   * xtb version 6.7.1 (edcfbbe) compiled by 'albert@albert-system' on 2024-07-22

   ID    Z sym.   atoms
    1    6 C      1-5, 7-11, 13-16, 18-34, 36-52, 54, 56-60
    2    7 N      6, 12, 17, 35, 53, 55, 61
    3    1 H      62-108

          program call               : xtb data2507/toluene/DTPTCzDP-CN/DTPTCzDP-CN_toluene_S0_finalOpt.xtbopt.xyz --gfn 2 --uhf 2 --gbsa toluene --ohess vtight --parallel 40 --molden --ceasefiles --namespace data2507/toluene/DTPTCzDP-CN/DTPTCzDP-CN_toluene_T1_preOpt
      * Solvation model:               GBSA
        Solvent                        toluene
        Solvent mass                       9.2140E+01 g/mol
          :  Hamiltonian                  GFN2-xTB          :
 * total energy  :  -160.1393876 Eh     change       -0.4528320E-07 Eh
 * total energy  :  -160.1430798 Eh     change       -0.3692205E-02 Eh
 * total energy  :  -160.1443880 Eh     change       -0.1308186E-02 Eh
 * total energy  :  -160.1445141 Eh     change       -0.1260927E-03 Eh
 * total energy  :  -160.1446352 Eh     change       -0.1211294E-03 Eh
 * total energy  :  -160.1446722 Eh     change       -0.3696595E-04 Eh
 * total energy  :  -160.1447026 Eh     change       -0.3039941E-04 Eh
 * total energy  :  -160.1447232 Eh     change       -0.2066409E-04 Eh
 * total energy  :  -160.1447417 Eh     change       -0.1843917E-04 Eh
 * total energy  :  -160.1447552 Eh     change       -0.1349046E-04 Eh
 * total energy  :  -160.1448612 Eh     change       -0.5936192E-06 Eh
 * total energy  :  -160.1448618 Eh     change       -0.5686119E-06 Eh
 * total energy  :  -160.1448622 Eh     change       -0.4492804E-06 Eh
 * total energy  :  -160.1448626 Eh     change       -0.4030892E-06 Eh
 * total energy  :  -160.1448631 Eh     change       -0.4308740E-06 Eh
 * total energy  :  -160.1448635 Eh     change       -0.4433666E-06 Eh
 * total energy  :  -160.1448639 Eh     change       -0.3862926E-06 Eh
 * total energy  :  -160.1448642 Eh     change       -0.2620451E-06 Eh
 * total energy  :  -160.1448642 Eh     change       -0.6768553E-07 Eh
   *** GEOMETRY OPTIMIZATION CONVERGED AFTER 62 ITERATIONS ***

 final structure:
================
108
 xtb: 6.7.1 (edcfbbe)
C            9.32451748925497        2.46145544435120        0.61220733162912
C            8.56484172117901        1.43779582203247        1.46401141745517
C            7.66023767152532        2.15622716923477        2.46309473336950
C            9.56319279057879        0.54322779704036        2.20547011390780
C            7.75179461634423        0.57210090288285        0.52479752367274
N            6.45149161210787        0.59880347268861        0.61175208077738
C            5.75428286032315       -0.17514765372509       -0.26354825217410
C            4.33931893205978       -0.17346511301475       -0.22754625819567
C            3.57336582231004       -0.96590452818574       -1.13383980027172
C            2.20637137856180       -0.94489652743843       -1.10248563158543
C            1.51475941894425       -0.14779061232731       -0.18186124239371
N            0.11323368213139       -0.11643062848096       -0.16146758237215
C           -0.65863024906470        1.01701851212426       -0.21496268633950
C           -0.28102914651478        2.34238070414585       -0.40588817209595
C           -1.26382944244083        3.30375937033304       -0.41763723631064
C           -2.62327321492689        2.97494644415875       -0.24575615177034
N           -3.58114669769048        3.98230859564937       -0.23199158042351
C           -3.27904565962485        5.23384673773462        0.32070090226581
C           -2.47780558589507        5.32880069567021        1.46012900665908
C           -2.18578117617092        6.56654957159157        1.99949610961073
C           -2.68866989920851        7.72145465853958        1.42028739029377
C           -3.48842302985563        7.63108237901190        0.29149538923203
C           -3.78261768343331        6.39903484812017       -0.25977682014191
C           -4.86103318760168        3.74666524776343       -0.75024320306294
C           -5.02468785663419        2.97266011642916       -1.90065931809319
C           -6.28895834589441        2.73976965853086       -2.40614096567111
C           -7.40398360622845        3.27741147046052       -1.78201490230851
C           -7.24585260381162        4.05234937802452       -0.64345610436281
C           -5.98656812509004        4.28614118578032       -0.12547958579572
C           -3.00670120024544        1.63907174546807       -0.09904142917236
C           -2.02889939935509        0.66425501594887       -0.09598404779208
C           -2.06563174947018       -0.76901006332834        0.00740985574792
C           -3.09405342785784       -1.68326471591642        0.12345181173567
C           -2.78139161505761       -3.04300480365982        0.20584974805175
N           -3.80016645005913       -3.98460546336074        0.30329403624994
C           -5.02235835141373       -3.76669935024400       -0.34655127789587
C           -5.05464173388844       -3.18013740237384       -1.61293287209957
C           -6.26271737881939       -2.96648882841838       -2.24777750265994
C           -7.45116132100035       -3.33720552484746       -1.63779535727583
C           -7.42354473293830       -3.92511248797112       -0.38267519630288
C           -6.22120462278490       -4.13902998420269        0.26338650540115
C           -3.61902884702670       -5.15531929287900        1.05127673724391
C           -2.92754083894480       -5.12081408234721        2.26315246861456
C           -2.75865504650283       -6.27901665493530        2.99708994637057
C           -3.27665252822462       -7.48115543879142        2.54050839644404
C           -3.96583948840988       -7.51924694625315        1.33825620416655
C           -4.13704416156830       -6.36786841639980        0.59435771842647
C           -1.43540660534622       -3.45841505352050        0.19120576349397
C           -0.40213944272293       -2.55626156680619        0.07600392181871
C           -0.71479976322616       -1.20529740832181       -0.03333794016749
C            2.26555975421620        0.63296135826734        0.74449795365040
C            1.61656751292487        1.38016963767584        1.74080116019183
N            1.09114537666768        1.97753578812601        2.57414394199899
C            3.64629576935382        0.61305363679014        0.70768271218059
N            6.39900412002474       -0.94846067481349       -1.17810536856450
C            7.70216885443179       -0.91261441280982       -1.17651858766401
C            8.45711467926261       -1.76582912610078       -2.17382153998962
C            9.29344944847244       -0.83391843257671       -3.05764276985793
C            7.49197737228107       -2.57863763312190       -3.03437680394818
C            9.38362122053000       -2.70372969548638       -1.39254490644577
N            8.44938586088440       -0.16536143227876       -0.35154507409708
H            8.62604643094421        3.10472724428587        0.07903891780194
H            9.95630394968645        3.08090547054098        1.24513187709840
H            9.94668621440243        1.94763523308532       -0.11665985015957
H            8.25841231156528        2.77657204422751        3.12701578723854
H            7.10459848237904        1.43572172506209        3.05892421765446
H            6.94341544209888        2.78564337951202        1.94129740917215
H           10.18495092013543        0.01114874229177        1.48999509375140
H            9.03674175302862       -0.18784495655679        2.81709128425054
H           10.19845889574924        1.14563625648805        2.85116037750328
H            4.10712249172634       -1.57103070974738       -1.84877327998820
H            1.63585978335441       -1.52952117343367       -1.81038040420135
H            0.75301415010041        2.61165201916402       -0.55706826834667
H           -0.99478061955474        4.33674600247192       -0.57575282386255
H           -2.09293356180605        4.43057503153648        1.92007911549582
H           -1.56684018395565        6.62683952132437        2.88229782587225
H           -2.45875966753194        8.68603595185998        1.84665575977529
H           -3.87880006299530        8.52693201529156       -0.16795895811260
H           -4.39362508760121        6.33054016334796       -1.14762238714464
H           -4.15460216833639        2.56872970423347       -2.39666895510688
H           -6.40315587833871        2.14273858064261       -3.29858959323174
H           -8.38996063712339        3.09563112895149       -2.18164115127694
H           -8.11000484104603        4.47102253344279       -0.14954394876160
H           -5.86556173141304        4.87749086538962        0.76987682521710
H           -4.04559171605722        1.37881785875747        0.03009196743314
H           -4.12082140246125       -1.35539691388945        0.16660676102708
H           -4.12817489311838       -2.90566558219467       -2.09526112848688
H           -6.27520761420326       -2.51627989462611       -3.22924407506806
H           -8.39298906187136       -3.17065923550805       -2.13799853378164
H           -8.34537042694783       -4.21262056195567        0.10070724454532
H           -6.20155673273658       -4.58594405154432        1.24626805119801
H           -2.53580401403685       -4.18193580408629        2.62599317269772
H           -2.22591115761263       -6.24068371001530        3.93570894721426
H           -3.14351661945353       -8.38312570213282        3.11830271984683
H           -4.36627855817301       -8.45343341543971        0.97349263231242
H           -4.66419771781998       -6.39941629541730       -0.34769628592539
H           -1.21503682277213       -4.51278925801577        0.25561704322889
H            0.62329907706376       -2.89121354311588        0.06299179795745
H            4.21671073199385        1.20079241855697        1.41214366673712
H            9.88517767016059       -1.41543779761134       -3.76129925445055
H            9.96070397202341       -0.23794159866804       -2.43994067192338
H            8.64691544825682       -0.16002360050489       -3.61769573113163
H            8.04890338675761       -3.18596950456307       -3.74460510434946
H            6.88566477060621       -3.23062048927010       -2.41013527863722
H            6.82377423769053       -1.91770327276138       -3.58099762085818
H           10.04828825299492       -2.12300404353201       -0.75781486824531
H            8.80163167070733       -3.37362186392907       -0.76138894907104
H            9.97921303660955       -3.30083370375776       -2.07969784622806

          :  Hamiltonian                  GFN2-xTB          :
         :: gradient norm              0.000103425126 Eh/a0 ::
         :: HOMO-LUMO gap              0.414596514487 eV    ::
         :: SCC energy              -162.988666802531 Eh    ::
         :: -> dispersion             -0.145943274960 Eh    ::
         :: -> Gsolv                  -0.083453319171 Eh    ::
         :: repulsion energy           2.843802580685 Eh    ::

    * Orbital Energies and Occupations

         #    Occupation            Energy/Eh            Energy/eV
      -------------------------------------------------------------
         1        2.0000           -0.6918543             -18.8263
       ...           ...                  ...                  ...
       138        2.0000           -0.4156477             -11.3104
       139        2.0000           -0.4148896             -11.2897
       140        2.0000           -0.4142621             -11.2726
       141        2.0000           -0.4134358             -11.2502
       142        2.0000           -0.4079061             -11.0997
       143        2.0000           -0.4000135             -10.8849
       144        2.0000           -0.3986415             -10.8476
       145        2.0000           -0.3842456             -10.4559
       146        2.0000           -0.3638221              -9.9001
       147        1.9476           -0.3570027              -9.7145
       148        1.8492           -0.3558947              -9.6844
       149        1.2033           -0.3529553              -9.6044
       150        0.9997           -0.2765396              -7.5250 (HOMO)
       151        0.0003           -0.2613039              -7.1104 (LUMO)
       152        0.0000           -0.2556548              -6.9567
       153                         -0.2456855              -6.6854
       154                         -0.2412735              -6.5654
       155                         -0.2407912              -6.5523
       156                         -0.2355517              -6.4097
       157                         -0.2351304              -6.3982
       158                         -0.2344637              -6.3801
       159                         -0.2314939              -6.2993
       160                         -0.2307492              -6.2790
       161                         -0.2297754              -6.2525
       ...                                ...                  ...
       291                          1.1597084              31.5573
      -------------------------------------------------------------
                  HL-Gap            0.0152357 Eh            0.4146 eV

     #   Z          covCN         q      C6AA      α(0)
     1   6 C        3.763    -0.102    22.499     6.761
     2   6 C        3.908     0.012    20.313     6.406
     3   6 C        3.760    -0.106    22.565     6.772
     4   6 C        3.762    -0.104    22.526     6.766
     5   6 C        2.969     0.227    23.242     7.908
     6   7 N        1.840    -0.337    29.593     8.062
     7   6 C        2.957     0.180    24.139     8.059
     8   6 C        2.975    -0.029    28.718     8.790
     9   6 C        2.917    -0.051    29.272     8.872
    10   6 C        2.911    -0.045    29.107     8.847
    11   6 C        2.914     0.021    27.538     8.605
    12   7 N        2.799    -0.013    21.501     6.887
    13   6 C        3.083     0.044    26.928     8.507
    14   6 C        2.908    -0.036    28.905     8.816
    15   6 C        2.925    -0.047    29.166     8.856
    16   6 C        2.925     0.061    26.641     8.464
    17   7 N        2.753    -0.037    21.953     6.959
    18   6 C        2.925     0.062    26.604     8.459
    19   6 C        2.921    -0.041    29.026     8.835
    20   6 C        2.919    -0.026    28.644     8.777
    21   6 C        2.919    -0.031    28.776     8.797
    22   6 C        2.919    -0.027    28.669     8.780
    23   6 C        2.921    -0.042    29.053     8.839
    24   6 C        2.925     0.062    26.603     8.458
    25   6 C        2.921    -0.042    29.055     8.839
    26   6 C        2.919    -0.026    28.658     8.779
    27   6 C        2.919    -0.031    28.780     8.797
    28   6 C        2.919    -0.026    28.651     8.778
    29   6 C        2.921    -0.042    29.033     8.836
    30   6 C        2.914    -0.045    29.124     8.849
    31   6 C        3.063    -0.012    28.246     8.715
    32   6 C        3.064    -0.012    28.238     8.714
    33   6 C        2.914    -0.045    29.125     8.850
    34   6 C        2.924     0.060    26.663     8.468
    35   7 N        2.753    -0.040    22.018     6.969
    36   6 C        2.926     0.062    26.603     8.458
    37   6 C        2.921    -0.043    29.060     8.840
    38   6 C        2.919    -0.026    28.663     8.779
    39   6 C        2.919    -0.032    28.789     8.799
    40   6 C        2.919    -0.026    28.658     8.779
    41   6 C        2.921    -0.042    29.046     8.838
    42   6 C        2.925     0.062    26.600     8.458
    43   6 C        2.921    -0.043    29.058     8.840
    44   6 C        2.919    -0.027    28.664     8.780
    45   6 C        2.919    -0.032    28.792     8.799
    46   6 C        2.919    -0.027    28.666     8.780
    47   6 C        2.921    -0.042    29.051     8.839
    48   6 C        2.924    -0.049    29.223     8.865
    49   6 C        2.908    -0.041    29.013     8.832
    50   6 C        3.081     0.041    26.984     8.516
    51   6 C        2.966    -0.010    28.256     8.719
    52   6 C        1.914     0.116    28.233     8.581
    53   7 N        0.911    -0.313    28.042     7.659
    54   6 C        2.933    -0.028    28.707     8.787
    55   7 N        1.840    -0.332    29.459     8.044
    56   6 C        2.968     0.226    23.254     7.910
    57   6 C        3.908     0.012    20.312     6.406
    58   6 C        3.762    -0.103    22.511     6.763
    59   6 C        3.760    -0.107    22.590     6.776
    60   6 C        3.762    -0.103    22.517     6.764
    61   7 N        1.840    -0.370    30.503     8.185
    62   1 H        0.925     0.027     2.626     2.534
    63   1 H        0.925     0.047     2.357     2.401
    64   1 H        0.925     0.043     2.406     2.426
    65   1 H        0.925     0.043     2.410     2.427
    66   1 H        0.925     0.035     2.510     2.477
    67   1 H        0.925     0.038     2.482     2.464
    68   1 H        0.925     0.046     2.373     2.409
    69   1 H        0.925     0.027     2.625     2.534
    70   1 H        0.925     0.046     2.370     2.407
    71   1 H        0.926     0.035     2.516     2.480
    72   1 H        0.926     0.035     2.517     2.481
    73   1 H        0.926     0.034     2.525     2.485
    74   1 H        0.926     0.047     2.361     2.403
    75   1 H        0.926     0.042     2.421     2.433
    76   1 H        0.926     0.042     2.418     2.432
    77   1 H        0.926     0.042     2.426     2.436
    78   1 H        0.926     0.044     2.396     2.421
    79   1 H        0.926     0.044     2.400     2.423
    80   1 H        0.926     0.042     2.425     2.435
    81   1 H        0.926     0.044     2.391     2.418
    82   1 H        0.926     0.043     2.411     2.428
    83   1 H        0.926     0.044     2.398     2.422
    84   1 H        0.926     0.042     2.417     2.431
    85   1 H        0.926     0.055     2.262     2.352
    86   1 H        0.926     0.053     2.284     2.364
    87   1 H        0.926     0.041     2.433     2.439
    88   1 H        0.926     0.043     2.405     2.425
    89   1 H        0.926     0.042     2.423     2.434
    90   1 H        0.926     0.043     2.411     2.428
    91   1 H        0.926     0.041     2.432     2.439
    92   1 H        0.926     0.040     2.448     2.447
    93   1 H        0.926     0.041     2.435     2.440
    94   1 H        0.926     0.041     2.440     2.443
    95   1 H        0.926     0.043     2.410     2.428
    96   1 H        0.926     0.042     2.416     2.431
    97   1 H        0.926     0.047     2.354     2.399
    98   1 H        0.926     0.044     2.394     2.419
    99   1 H        0.926     0.034     2.533     2.489
   100   1 H        0.925     0.047     2.362     2.403
   101   1 H        0.925     0.043     2.404     2.425
   102   1 H        0.925     0.028     2.621     2.532
   103   1 H        0.925     0.043     2.409     2.427
   104   1 H        0.925     0.038     2.475     2.460
   105   1 H        0.925     0.039     2.465     2.455
   106   1 H        0.925     0.044     2.394     2.420
   107   1 H        0.925     0.027     2.624     2.533
   108   1 H        0.925     0.046     2.364     2.404

molecular dipole:
                 x           y           z       tot (Debye)
 q only:       -8.009      -0.595      -1.003
   full:       -7.465      -0.769      -1.197      19.315

 projected vibrational frequencies (cm⁻¹)
eigval :       -0.00     0.00     0.00     0.00     0.00     0.00
eigval :       10.71    12.50    13.92    15.73    18.48    23.60
eigval :       25.04    28.51    33.67    41.33    42.36    50.90
eigval :       53.08    55.09    57.19    63.56    67.67    70.83
eigval :       79.20    81.95    84.03    87.74   105.13   110.19
eigval :      120.47   131.50   139.67   143.19   144.43   154.98
eigval :      168.93   178.99   181.88   198.63   206.78   221.80
eigval :      223.85   228.65   231.72   233.10   236.71   237.74
eigval :      241.25   245.83   251.33   256.53   258.82   267.80
eigval :      273.81   294.80   305.60   306.32   312.72   318.07
eigval :      324.32   338.52   347.53   349.53   366.10   374.53
eigval :      376.67   377.07   381.23   382.41   383.28   385.49
eigval :      394.28   401.97   406.38   416.10   418.67   427.65
eigval :      438.68   443.77   456.56   469.37   492.05   500.66
eigval :      502.67   509.23   512.46   534.57   536.44   547.03
eigval :      550.66   558.58   568.62   574.40   584.36   586.53
eigval :      588.57   589.18   597.11   606.27   611.64   618.34
eigval :      624.72   632.66   645.87   648.05   659.80   660.92
eigval :      661.05   664.25   668.39   676.82   703.02   704.32
eigval :      717.96   729.06   746.88   756.47   757.24   757.62
eigval :      759.91   790.33   792.29   801.39   820.85   825.29
eigval :      860.49   861.31   863.35   865.21   871.86   872.24
eigval :      873.39   875.20   877.79   896.75   897.88   898.49
eigval :      898.95   900.80   904.75   908.88   909.63   912.45
eigval :      916.07   924.46   927.77   928.43   928.87   929.22
eigval :      929.55   930.04   930.26   931.57   934.13   944.20
eigval :      963.67   964.33   964.58   965.45   965.70   966.09
eigval :      968.48   987.56   999.31  1000.84  1002.66  1008.04
eigval :     1029.22  1029.27  1029.50  1034.14  1036.85  1074.04
eigval :     1079.71  1079.87  1081.02  1081.04  1104.65  1120.63
eigval :     1120.88  1122.00  1122.92  1136.53  1146.36  1164.65
eigval :     1174.55  1176.96  1177.14  1177.27  1178.10  1178.16
eigval :     1189.11  1190.91  1191.76  1196.09  1196.63  1199.14
eigval :     1207.80  1213.92  1224.00  1228.02  1229.35  1236.03
eigval :     1239.13  1245.18  1250.10  1265.99  1272.87  1273.72
eigval :     1274.91  1277.03  1280.62  1284.51  1294.64  1298.32
eigval :     1302.58  1311.53  1315.91  1316.12  1322.83  1322.93
eigval :     1328.36  1331.64  1345.20  1352.95  1359.09  1367.01
eigval :     1388.42  1389.55  1394.01  1394.30  1395.99  1412.93
eigval :     1417.75  1423.60  1425.50  1429.33  1429.98  1433.69
eigval :     1437.85  1438.31  1444.35  1451.83  1458.08  1459.40
eigval :     1460.49  1460.85  1463.44  1475.10  1476.17  1482.28
eigval :     1488.71  1489.51  1489.92  1490.88  1492.25  1494.91
eigval :     1495.44  1496.29  1511.65  1513.47  1539.98  1542.92
eigval :     1550.43  1561.06  1565.14  1569.20  1569.96  1572.91
eigval :     1573.82  1579.09  1581.39  1582.48  1587.70  1590.13
eigval :     2312.69  3014.33  3014.92  3018.03  3018.53  3022.06
eigval :     3022.43  3022.71  3023.10  3027.63  3027.92  3032.24
eigval :     3034.56  3039.30  3041.07  3041.11  3042.49  3043.91
eigval :     3045.23  3070.13  3079.27  3079.66  3079.83  3080.46
eigval :     3080.53  3081.35  3081.48  3082.19  3085.65  3088.18
eigval :     3089.02  3089.31  3089.56  3090.23  3091.29  3092.44
eigval :     3092.74  3093.62  3094.76  3099.16  3099.50  3099.73
eigval :     3099.92  3100.36  3102.47  3103.40  3105.47  3107.09

   temp. (K)  partition function   enthalpy   heat capacity  entropy
                                   cal/mol     cal/K/mol   cal/K/mol   J/K/mol
 298.15  VIB  0.449E+27            32996.710    198.770    208.149
         ROT  0.233E+09              888.752      2.981     41.272
         INT  0.105E+36            33885.463    201.751    249.421
         TR   0.216E+29             1481.254      4.968     45.873
         TOT                       35366.7166   206.7187   295.2943  1235.5113

       T/K    H(0)-H(T)+PV         H(T)/Eh          T*S/Eh         G(T)/Eh
   ------------------------------------------------------------------------
    298.15    0.563605E-01    0.908579E+00    0.140304E+00    0.768275E+00
   ------------------------------------------------------------------------

         :::::::::::::::::::::::::::::::::::::::::::::::::::::
         ::                  THERMODYNAMIC                  ::
         :::::::::::::::::::::::::::::::::::::::::::::::::::::
         :: total free energy        -159.376589261690 Eh   ::
         ::.................................................::
         :: total energy             -160.144864226667 Eh   ::
         :: zero point energy           0.852218354067 Eh   ::
         :: G(RRHO) w/o ZPVE           -0.083943389090 Eh   ::
         :: G(RRHO) contrib.            0.768274964977 Eh   ::
         :::::::::::::::::::::::::::::::::::::::::::::::::::::

           -------------------------------------------------
          | TOTAL ENERGY             -160.144864226667 Eh   |
          | TOTAL ENTHALPY           -159.236285422240 Eh   |
          | TOTAL FREE ENERGY        -159.376589261690 Eh   |
          | GRADIENT NORM               0.000103569519 Eh/α |
          | HOMO-LUMO GAP               0.414584491364 eV   |
           -------------------------------------------------

 * finished run on 2025/08/25 at 19:33:40.070
