   * xtb version 6.7.1 (edcfbbe) compiled by 'albert@albert-system' on 2024-07-22

   ID    Z sym.   atoms
    1    6 C      1-5, 7-11, 13-16, 18-34, 36-52, 54, 56-60
    2    7 N      6, 12, 17, 35, 53, 55, 61
    3    1 H      62-108

          program call               : xtb data2507/toluene/DTPTCzDP-CN/DTPTCzDP-CN_toluene_T1_crest.xyz --gfn 2 --uhf 2 --gbsa toluene --ohess vtight --parallel 40 --molden --ceasefiles --namespace data2507/toluene/DTPTCzDP-CN/DTPTCzDP-CN_toluene_T1_finalOpt
      * Solvation model:               GBSA
        Solvent                        toluene
        Solvent mass                       9.2140E+01 g/mol
          :  Hamiltonian                  GFN2-xTB          :
 * total energy  :  -160.1444020 Eh     change       -0.6717471E-08 Eh
 * total energy  :  -160.1446757 Eh     change       -0.2736993E-03 Eh
 * total energy  :  -160.1447724 Eh     change       -0.9665761E-04 Eh
 * total energy  :  -160.1447800 Eh     change       -0.7599398E-05 Eh
 * total energy  :  -160.1447874 Eh     change       -0.7423294E-05 Eh
 * total energy  :  -160.1447933 Eh     change       -0.5888253E-05 Eh
 * total energy  :  -160.1448012 Eh     change       -0.7969946E-05 Eh
 * total energy  :  -160.1448058 Eh     change       -0.4529001E-05 Eh
 * total energy  :  -160.1448091 Eh     change       -0.3327955E-05 Eh
 * total energy  :  -160.1448111 Eh     change       -0.1964912E-05 Eh
 * total energy  :  -160.1448701 Eh     change       -0.1661854E-06 Eh
 * total energy  :  -160.1448703 Eh     change       -0.1676829E-06 Eh
 * total energy  :  -160.1448703 Eh     change        0.1744556E-07 Eh
 * total energy  :  -160.1448703 Eh     change        0.3750699E-08 Eh
 * total energy  :  -160.1448702 Eh     change        0.6183853E-08 Eh
 * total energy  :  -160.1448702 Eh     change        0.3173199E-08 Eh
 * total energy  :  -160.1448702 Eh     change       -0.2908507E-08 Eh
 * total energy  :  -160.1448703 Eh     change       -0.1154612E-07 Eh
 * total energy  :  -160.1448703 Eh     change       -0.4728670E-07 Eh
   *** GEOMETRY OPTIMIZATION CONVERGED AFTER 74 ITERATIONS ***

 final structure:
================
108
 xtb: 6.7.1 (edcfbbe)
C            9.33627957831339        2.44131246209734        0.62395323482472
C            8.56988458966577        1.42392070630006        1.47723657859904
C            7.66551753101133        2.14966214124528        2.47122461849351
C            9.56230781907096        0.52767680787294        2.22462791412953
C            7.75593755082539        0.55826995830408        0.53875779877327
N            6.45551294235095        0.59046692266392        0.62176107582061
C            5.75777603511889       -0.18423363739074       -0.25244278564714
C            4.34272834438074       -0.17743987909042       -0.21998771104949
C            3.57619575570776       -0.97125399843710       -1.12458456776924
C            2.20920065465252       -0.94648918723701       -1.09565827586854
C            1.51805886570312       -0.14401170875970       -0.17933270717990
N            0.11657573076637       -0.11118297464117       -0.15944585030628
C           -0.65458724838893        1.02266917113540       -0.21513604549734
C           -0.27671291291498        2.34718178254592       -0.41149290258262
C           -1.25897754588081        3.30914372603467       -0.42438933478265
C           -2.61820718615471        2.98179544009000       -0.24800344900531
N           -3.57581170038771        3.98939590164322       -0.23507353322424
C           -3.27287710390743        5.24283460623691        0.31257771881556
C           -2.46674316408048        5.34235482696251        1.44817062531269
C           -2.17405659330079        6.58215880275002        1.98244629952502
C           -2.68132971509963        7.73457861583412        1.40211072013687
C           -3.48609576699594        7.63966031419226        0.27725113129415
C           -3.78087916859354        6.40554992655840       -0.26904874838625
C           -4.85768668824472        3.75067528321149       -0.74727046533619
C           -5.02481841220328        2.97393895618546       -1.89532210714985
C           -6.29091866416720        2.73646322293185       -2.39405043780022
C           -7.40430550395129        3.27232532336694       -1.76546183890823
C           -7.24267139409489        4.05044043042896       -0.62956775837808
C           -5.98146880417825        4.28887199285284       -0.11835542999430
C           -3.00202568783718        1.64660274155294       -0.09616950125808
C           -2.02486374665465        0.67121056254428       -0.09238999711973
C           -2.06252229413110       -0.76168056683419        0.01522743688573
C           -3.09155764331680       -1.67468330197278        0.13575988066180
C           -2.77997564280075       -3.03448436604558        0.22100542010682
N           -3.79934908587981       -3.97494738649184        0.32289694650885
C           -5.02320847926956       -3.75740588752760       -0.32394239195318
C           -5.05887147482147       -3.17318028811689       -1.59130276294511
C           -6.26868167171011       -2.96030765137653       -2.22311535696446
C           -7.45552636589778       -3.32948792278544       -1.60911638412293
C           -7.42457749222140       -3.91498187837926       -0.35295224029011
C           -6.22048155610910       -4.12808244174705        0.29009225568883
C           -3.61713353064884       -5.14466496937294        1.07225822947490
C           -2.92271826171158       -5.10879464532271        2.28240126824544
C           -2.75255864745136       -6.26606225452580        3.01753144985426
C           -3.27219715442847       -7.46859336441989        2.56386871301878
C           -3.96448777248056       -7.50799366169401        1.36344242976738
C           -4.13700292444698       -6.35755805834801        0.61838249253608
C           -1.43435122821264       -3.45102537639784        0.20483851393813
C           -0.40049284970536       -2.55006155513756        0.08557685810182
C           -0.71212289553292       -1.19910860842417       -0.02671804662379
C            2.26941907602761        0.63915916333047        0.74457446044573
C            1.62111192795454        1.39282435734507        1.73643658903005
N            1.09647311612713        1.99602704184466        2.56611228295530
C            3.65016953957693        0.61538281852408        0.71022371314067
N            6.40209507918772       -0.96342198846700       -1.16226079241174
C            7.70538195434181       -0.93264825867478       -1.15705649756704
C            8.46001661415094       -1.79222183776826       -2.14911918305472
C            9.30429712552405       -0.86694370101661       -3.03235173563910
C            7.49435815464648       -2.60282951277610       -3.01114716471460
C            9.37886686993772       -2.73224518127595       -1.36136680829464
N            8.45315533532386       -0.18539908206230       -0.33260832484583
H            8.64205727730909        3.08597915377656        0.08693781550503
H            9.96925838901736        3.05997638625895        1.25644854187376
H            9.95795777583943        1.92234360206229       -0.10167663970638
H            8.26456355772565        2.76892790894154        3.13537172645260
H            7.10431308734377        1.43362617655472        3.06722515574375
H            6.95358375260723        2.78116562422006        1.94526807150911
H           10.18306154360014       -0.01029517870480        1.51269279506496
H            9.03101543636885       -0.19835985179888        2.83805933671985
H           10.19903195544185        1.12967177434303        2.86926199579766
H            4.10954715476418       -1.58083266295398       -1.83603983525477
H            1.63842129146366       -1.53265087250675       -1.80205866538011
H            0.75713785470129        2.61530883995062       -0.56602409022427
H           -0.98967529014930        4.34139671722706       -0.58681854300137
H           -2.07882393978752        4.44601021531174        1.90925367868142
H           -1.55118406756974        6.64601298570746        2.86222707822539
H           -2.45092104367752        8.70077262054252        1.82452985571134
H           -3.87998170045898        8.53356466313112       -0.18300464085537
H           -4.39586404690779        6.33347984591745       -1.15386128448123
H           -4.15599424733266        2.57121060967571       -2.39453823701534
H           -6.40790140304065        2.13714131742003       -3.28459779598161
H           -8.39176843647093        3.08671689614494       -2.15961720629307
H           -8.10550818213967        4.46783742032169       -0.13229347465137
H           -5.85760531609366        4.88257293311244        0.77505693185783
H           -4.04072167993827        1.38730441204656        0.03634505354466
H           -4.11792609307124       -1.34570195656648        0.17999780087509
H           -4.13368639878246       -2.89996384616472       -2.07679895942340
H           -6.28382005142212       -2.51195643020453       -3.20539127209827
H           -8.39869622726402       -3.16358600349098       -2.10699272891884
H           -8.34512994860159       -4.20122326946364        0.13359705172715
H           -6.19819745974690       -4.57314400505538        1.27375913572695
H           -2.52960557473001       -4.16961066868798        2.64295883424787
H           -2.21747517340719       -6.22668840358629        3.95477338963722
H           -3.13819119299184       -8.36978804514123        3.14265735078224
H           -4.36627303857264       -8.44248565272175        1.00095054625093
H           -4.66634892329568       -6.39019875202287       -0.32239477689806
H           -1.21466587967120       -4.50539977364259        0.27148973252852
H            0.62458303314440       -2.88606275399581        0.07178946390257
H            4.22089806171597        1.20477660642249        1.41304169213847
H            9.89578239075327       -1.45333669638937       -3.73215916288758
H            9.97214894203443       -0.27252942481043       -2.41381182335815
H            8.66324034116439       -0.19141471112771       -3.59671994927666
H            8.05115330126324       -3.21498127954236       -3.71733223283992
H            6.88232698949703       -3.24996045078164       -2.38745484530868
H            6.83162934001492       -1.94024133801801       -3.56242073695168
H           10.04357422998948       -2.15284117531503       -0.72545495265952
H            8.79115266654693       -3.39771308953498       -0.73083424772685
H            9.97454576206552       -3.33397649821964       -2.04438564353637

          :  Hamiltonian                  GFN2-xTB          :
         :: gradient norm              0.000135629171 Eh/a0 ::
         :: HOMO-LUMO gap              0.414885483908 eV    ::
         :: SCC energy              -162.988636730922 Eh    ::
         :: -> dispersion             -0.145953317097 Eh    ::
         :: -> Gsolv                  -0.083458205131 Eh    ::
         :: repulsion energy           2.843766422671 Eh    ::

    * Orbital Energies and Occupations

         #    Occupation            Energy/Eh            Energy/eV
      -------------------------------------------------------------
         1        2.0000           -0.6918376             -18.8259
       ...           ...                  ...                  ...
       138        2.0000           -0.4156519             -11.3105
       139        2.0000           -0.4148855             -11.2896
       140        2.0000           -0.4142586             -11.2725
       141        2.0000           -0.4134269             -11.2499
       142        2.0000           -0.4079012             -11.0996
       143        2.0000           -0.4000278             -10.8853
       144        2.0000           -0.3986240             -10.8471
       145        2.0000           -0.3842397             -10.4557
       146        2.0000           -0.3638167              -9.9000
       147        1.9478           -0.3569969              -9.7144
       148        1.8493           -0.3558854              -9.6841
       149        1.2029           -0.3529428              -9.6041
       150        0.9997           -0.2765368              -7.5249 (HOMO)
       151        0.0003           -0.2612901              -7.1101 (LUMO)
       152        0.0000           -0.2556578              -6.9568
       153                         -0.2456753              -6.6852
       154                         -0.2412734              -6.5654
       155                         -0.2407859              -6.5521
       156                         -0.2355445              -6.4095
       157                         -0.2351337              -6.3983
       158                         -0.2344687              -6.3802
       159                         -0.2314941              -6.2993
       160                         -0.2307481              -6.2790
       161                         -0.2297812              -6.2527
       ...                                ...                  ...
       291                          1.1595535              31.5531
      -------------------------------------------------------------
                  HL-Gap            0.0152467 Eh            0.4149 eV

     #   Z          covCN         q      C6AA      α(0)
     1   6 C        3.763    -0.102    22.499     6.761
     2   6 C        3.908     0.012    20.313     6.406
     3   6 C        3.760    -0.106    22.565     6.772
     4   6 C        3.762    -0.104    22.526     6.766
     5   6 C        2.969     0.227    23.242     7.908
     6   7 N        1.840    -0.337    29.594     8.062
     7   6 C        2.957     0.180    24.139     8.059
     8   6 C        2.974    -0.029    28.718     8.790
     9   6 C        2.917    -0.051    29.272     8.872
    10   6 C        2.911    -0.045    29.108     8.847
    11   6 C        2.914     0.021    27.538     8.605
    12   7 N        2.799    -0.013    21.501     6.887
    13   6 C        3.083     0.044    26.928     8.507
    14   6 C        2.908    -0.036    28.904     8.816
    15   6 C        2.925    -0.047    29.166     8.856
    16   6 C        2.925     0.061    26.641     8.464
    17   7 N        2.753    -0.037    21.953     6.959
    18   6 C        2.925     0.062    26.603     8.459
    19   6 C        2.921    -0.041    29.026     8.835
    20   6 C        2.919    -0.026    28.644     8.777
    21   6 C        2.919    -0.031    28.776     8.797
    22   6 C        2.919    -0.027    28.669     8.780
    23   6 C        2.921    -0.042    29.053     8.839
    24   6 C        2.925     0.062    26.604     8.459
    25   6 C        2.921    -0.042    29.054     8.839
    26   6 C        2.919    -0.026    28.657     8.779
    27   6 C        2.919    -0.031    28.779     8.797
    28   6 C        2.919    -0.026    28.651     8.778
    29   6 C        2.921    -0.042    29.032     8.836
    30   6 C        2.914    -0.045    29.125     8.850
    31   6 C        3.063    -0.012    28.246     8.715
    32   6 C        3.064    -0.012    28.239     8.714
    33   6 C        2.914    -0.045    29.125     8.850
    34   6 C        2.924     0.060    26.663     8.468
    35   7 N        2.753    -0.040    22.018     6.969
    36   6 C        2.926     0.062    26.603     8.458
    37   6 C        2.921    -0.043    29.060     8.840
    38   6 C        2.919    -0.026    28.663     8.779
    39   6 C        2.919    -0.032    28.789     8.799
    40   6 C        2.919    -0.026    28.658     8.779
    41   6 C        2.921    -0.042    29.046     8.838
    42   6 C        2.925     0.062    26.600     8.458
    43   6 C        2.921    -0.043    29.058     8.840
    44   6 C        2.919    -0.027    28.665     8.780
    45   6 C        2.919    -0.032    28.792     8.799
    46   6 C        2.919    -0.027    28.666     8.780
    47   6 C        2.921    -0.042    29.051     8.839
    48   6 C        2.924    -0.049    29.224     8.865
    49   6 C        2.908    -0.041    29.013     8.832
    50   6 C        3.081     0.041    26.985     8.516
    51   6 C        2.966    -0.010    28.256     8.719
    52   6 C        1.914     0.116    28.233     8.581
    53   7 N        0.911    -0.313    28.043     7.659
    54   6 C        2.933    -0.028    28.706     8.787
    55   7 N        1.840    -0.332    29.460     8.044
    56   6 C        2.968     0.226    23.254     7.910
    57   6 C        3.908     0.012    20.312     6.406
    58   6 C        3.762    -0.103    22.511     6.763
    59   6 C        3.760    -0.107    22.590     6.776
    60   6 C        3.762    -0.103    22.517     6.764
    61   7 N        1.840    -0.370    30.504     8.185
    62   1 H        0.925     0.027     2.626     2.534
    63   1 H        0.925     0.047     2.357     2.401
    64   1 H        0.925     0.043     2.406     2.426
    65   1 H        0.925     0.043     2.409     2.427
    66   1 H        0.925     0.035     2.510     2.477
    67   1 H        0.925     0.038     2.482     2.464
    68   1 H        0.925     0.046     2.373     2.409
    69   1 H        0.925     0.027     2.625     2.534
    70   1 H        0.925     0.046     2.370     2.407
    71   1 H        0.926     0.035     2.516     2.480
    72   1 H        0.926     0.035     2.517     2.481
    73   1 H        0.926     0.034     2.524     2.485
    74   1 H        0.926     0.047     2.361     2.403
    75   1 H        0.926     0.042     2.421     2.433
    76   1 H        0.926     0.042     2.419     2.432
    77   1 H        0.926     0.042     2.426     2.436
    78   1 H        0.926     0.044     2.396     2.421
    79   1 H        0.926     0.044     2.400     2.423
    80   1 H        0.926     0.042     2.424     2.435
    81   1 H        0.926     0.044     2.391     2.418
    82   1 H        0.926     0.043     2.411     2.428
    83   1 H        0.926     0.044     2.398     2.422
    84   1 H        0.926     0.042     2.416     2.431
    85   1 H        0.926     0.055     2.263     2.352
    86   1 H        0.926     0.053     2.284     2.364
    87   1 H        0.926     0.041     2.433     2.439
    88   1 H        0.926     0.043     2.404     2.425
    89   1 H        0.926     0.042     2.423     2.434
    90   1 H        0.926     0.043     2.411     2.428
    91   1 H        0.926     0.041     2.432     2.439
    92   1 H        0.926     0.040     2.448     2.447
    93   1 H        0.926     0.041     2.435     2.440
    94   1 H        0.926     0.041     2.440     2.443
    95   1 H        0.926     0.043     2.410     2.428
    96   1 H        0.926     0.043     2.416     2.430
    97   1 H        0.926     0.047     2.354     2.399
    98   1 H        0.926     0.044     2.394     2.419
    99   1 H        0.926     0.034     2.533     2.489
   100   1 H        0.925     0.047     2.362     2.403
   101   1 H        0.925     0.043     2.403     2.424
   102   1 H        0.925     0.028     2.621     2.532
   103   1 H        0.925     0.043     2.409     2.427
   104   1 H        0.925     0.038     2.474     2.460
   105   1 H        0.925     0.039     2.465     2.455
   106   1 H        0.925     0.044     2.395     2.420
   107   1 H        0.925     0.027     2.624     2.533
   108   1 H        0.925     0.047     2.364     2.404

molecular dipole:
                 x           y           z       tot (Debye)
 q only:       -8.014      -0.589      -0.998
   full:       -7.469      -0.765      -1.191      19.323

 projected vibrational frequencies (cm⁻¹)
eigval :       -0.00    -0.00    -0.00    -0.00    -0.00     0.00
eigval :       10.43    12.42    13.26    15.29    18.19    23.13
eigval :       24.52    27.81    33.82    40.95    42.04    50.84
eigval :       52.62    54.78    56.85    63.11    67.47    70.71
eigval :       79.00    81.46    83.52    87.40   104.76   110.32
eigval :      120.58   131.36   139.52   142.90   144.35   154.70
eigval :      168.89   178.64   181.28   198.60   206.66   221.76
eigval :      223.86   227.67   231.21   232.56   236.55   237.73
eigval :      241.34   245.93   251.18   256.37   258.80   267.63
eigval :      273.83   294.82   305.53   306.33   312.52   318.00
eigval :      324.74   338.56   347.53   349.39   366.38   374.41
eigval :      376.36   376.70   380.95   382.46   383.17   385.36
eigval :      394.32   402.35   406.40   415.97   418.77   427.67
eigval :      439.20   443.91   456.53   469.39   492.07   500.70
eigval :      502.79   509.34   512.58   534.55   536.40   547.12
eigval :      550.68   558.56   568.66   574.44   584.35   586.53
eigval :      588.57   589.15   597.07   606.24   611.54   618.35
eigval :      624.66   632.58   645.93   648.00   659.79   660.76
eigval :      661.01   664.22   668.31   676.94   702.89   704.31
eigval :      717.95   729.13   746.68   756.49   757.61   757.76
eigval :      760.27   790.46   792.55   801.46   820.49   825.49
eigval :      860.22   860.99   862.64   865.37   871.92   872.37
eigval :      873.53   875.57   877.81   896.42   898.31   898.49
eigval :      899.38   900.98   904.69   908.85   909.51   912.46
eigval :      916.50   924.07   927.50   928.29   928.31   929.18
eigval :      929.35   930.33   930.47   931.67   934.40   944.22
eigval :      963.82   964.43   964.78   965.50   965.64   966.18
eigval :      968.48   987.55   998.46  1000.94  1002.66  1008.06
eigval :     1029.28  1029.29  1029.67  1034.24  1036.85  1074.07
eigval :     1079.46  1079.74  1080.79  1081.21  1104.85  1120.10
eigval :     1120.66  1121.48  1123.07  1136.59  1146.42  1164.60
eigval :     1174.41  1176.96  1177.09  1177.43  1177.88  1178.22
eigval :     1189.02  1190.79  1191.15  1196.26  1196.54  1199.07
eigval :     1207.88  1214.09  1223.94  1228.03  1229.37  1236.02
eigval :     1239.11  1245.43  1250.17  1266.01  1272.86  1273.45
eigval :     1274.64  1276.98  1280.51  1284.62  1294.64  1298.23
eigval :     1302.53  1311.46  1315.88  1316.11  1322.81  1322.91
eigval :     1328.39  1331.51  1345.19  1352.93  1359.17  1366.98
eigval :     1388.46  1389.68  1394.09  1394.26  1396.00  1412.77
eigval :     1417.77  1423.61  1425.58  1429.33  1429.99  1433.74
eigval :     1437.85  1438.30  1444.26  1451.79  1457.99  1459.51
eigval :     1460.39  1460.84  1463.40  1475.12  1476.19  1482.29
eigval :     1488.66  1489.51  1489.90  1490.89  1492.20  1494.86
eigval :     1495.41  1496.24  1511.63  1513.50  1539.95  1542.86
eigval :     1550.37  1561.00  1565.15  1569.18  1569.98  1572.88
eigval :     1573.84  1579.08  1581.34  1582.50  1587.66  1590.12
eigval :     2312.38  3014.26  3014.77  3017.91  3018.40  3022.08
eigval :     3022.39  3022.66  3023.07  3027.62  3027.95  3032.19
eigval :     3034.53  3039.41  3040.89  3041.01  3042.43  3043.90
eigval :     3045.22  3070.14  3079.23  3079.67  3079.92  3080.25
eigval :     3080.49  3081.36  3081.46  3082.16  3085.77  3088.35
eigval :     3089.00  3089.51  3089.56  3090.22  3091.41  3092.55
eigval :     3092.71  3093.54  3094.89  3099.25  3099.63  3099.76
eigval :     3100.00  3100.40  3102.48  3103.44  3105.59  3107.05

   temp. (K)  partition function   enthalpy   heat capacity  entropy
                                   cal/mol     cal/K/mol   cal/K/mol   J/K/mol
 298.15  VIB  0.579E+27            33011.193    198.709    208.398
         ROT  0.233E+09              888.752      2.981     41.272
         INT  0.135E+36            33899.945    201.690    249.670
         TR   0.216E+29             1481.254      4.968     45.873
         TOT                       35381.1990   206.6582   295.5428  1236.5510

       T/K    H(0)-H(T)+PV         H(T)/Eh          T*S/Eh         G(T)/Eh
   ------------------------------------------------------------------------
    298.15    0.563835E-01    0.908568E+00    0.140422E+00    0.768146E+00
   ------------------------------------------------------------------------

         :::::::::::::::::::::::::::::::::::::::::::::::::::::
         ::                  THERMODYNAMIC                  ::
         :::::::::::::::::::::::::::::::::::::::::::::::::::::
         :: total free energy        -159.376723875376 Eh   ::
         ::.................................................::
         :: total energy             -160.144870313009 Eh   ::
         :: zero point energy           0.852184825927 Eh   ::
         :: G(RRHO) w/o ZPVE           -0.084038388295 Eh   ::
         :: G(RRHO) contrib.            0.768146437633 Eh   ::
         :::::::::::::::::::::::::::::::::::::::::::::::::::::

           -------------------------------------------------
          | TOTAL ENERGY             -160.144870313009 Eh   |
          | TOTAL ENTHALPY           -159.236301957435 Eh   |
          | TOTAL FREE ENERGY        -159.376723875376 Eh   |
          | GRADIENT NORM               0.000136904179 Eh/α |
          | HOMO-LUMO GAP               0.414884600114 eV   |
           -------------------------------------------------

 * finished run on 2025/08/25 at 20:06:53.436
