   * xtb version 6.7.1 (edcfbbe) compiled by 'albert@albert-system' on 2024-07-22

   ID    Z sym.   atoms
    1    6 C      1-5, 7-11, 13-16, 18-34, 36-52, 54, 56-60
    2    7 N      6, 12, 17, 35, 53, 55, 61
    3    1 H      62-108

          program call               : xtb data2507/toluene/DTPTCzDP-CN/DTPTCzDP-CN_toluene_S0_crest.xyz --gfn 2 --gbsa toluene --ohess vtight --parallel 40 --molden --ceasefiles --namespace data2507/toluene/DTPTCzDP-CN/DTPTCzDP-CN_toluene_S0_finalOpt
      * Solvation model:               GBSA
        Solvent                        toluene
        Solvent mass                       9.2140E+01 g/mol
          :  Hamiltonian                  GFN2-xTB          :
 * total energy  :  -160.2081157 Eh     change       -0.2400384E-08 Eh
 * total energy  :  -160.2081710 Eh     change       -0.5530016E-04 Eh
 * total energy  :  -160.2081949 Eh     change       -0.2390736E-04 Eh
 * total energy  :  -160.2082079 Eh     change       -0.1294857E-04 Eh
 * total energy  :  -160.2082184 Eh     change       -0.1050311E-04 Eh
 * total energy  :  -160.2082269 Eh     change       -0.8539399E-05 Eh
 * total energy  :  -160.2082312 Eh     change       -0.4247813E-05 Eh
 * total energy  :  -160.2082346 Eh     change       -0.3462844E-05 Eh
 * total energy  :  -160.2082372 Eh     change       -0.2557554E-05 Eh
 * total energy  :  -160.2082394 Eh     change       -0.2213160E-05 Eh
 * total energy  :  -160.2083004 Eh     change       -0.2024800E-06 Eh
 * total energy  :  -160.2083007 Eh     change       -0.2220996E-06 Eh
 * total energy  :  -160.2083008 Eh     change       -0.1854057E-06 Eh
 * total energy  :  -160.2083010 Eh     change       -0.1888085E-06 Eh
 * total energy  :  -160.2083013 Eh     change       -0.2813160E-06 Eh
 * total energy  :  -160.2083017 Eh     change       -0.3892806E-06 Eh
 * total energy  :  -160.2083020 Eh     change       -0.2485075E-06 Eh
 * total energy  :  -160.2083021 Eh     change       -0.1307372E-06 Eh
 * total energy  :  -160.2083022 Eh     change       -0.7280019E-07 Eh
   *** GEOMETRY OPTIMIZATION CONVERGED AFTER 62 ITERATIONS ***

 final structure:
================
108
 xtb: 6.7.1 (edcfbbe)
C            9.33771506008740        2.48483261262049        0.48135824127624
C            8.60013126725851        1.47857788263322        1.37525625705303
C            7.70861248790973        2.21628278296212        2.37212676104050
C            9.61980488777746        0.60757113381471        2.11814632585249
C            7.78079219312369        0.58938521312540        0.47539824917419
N            6.46030810864877        0.62903747358155        0.56978558032839
C            5.79522718590230       -0.17573729030122       -0.25553480019994
C            4.33495948078079       -0.16647157721202       -0.19581811979219
C            3.58576075585238       -1.00033353204251       -1.03202157347941
C            2.20961689664007       -0.98129340061113       -0.99034737514554
C            1.53147071783529       -0.12842042912123       -0.11584082837167
N            0.14647249817204       -0.09635794941453       -0.09481118145660
C           -0.64237442778975        1.04626291327768       -0.11483238402729
C           -0.28116419047302        2.37160586008667       -0.30517454805671
C           -1.28178664516863        3.32007958049104       -0.33847878476285
C           -2.63332096642932        2.97631801556437       -0.18331998525651
N           -3.60963736427645        3.97917510531284       -0.19636768795002
C           -3.34803458562787        5.21311333139936        0.41250236092524
C           -2.58582851572925        5.28060409175950        1.57929111382082
C           -2.32188105700248        6.50194767567389        2.16879545244861
C           -2.81886438109928        7.67146907205405        1.61616648306296
C           -3.58192460158896        7.60953761904012        0.46121277112265
C           -3.84205211697274        6.39408701362602       -0.14213014726710
C           -4.85381995507366        3.73734131725729       -0.79219876804973
C           -4.94372992867347        2.97542914475682       -1.95769675535321
C           -6.17327437556787        2.73025816459892       -2.53792951166475
C           -7.33019684109232        3.24707194953264       -1.97714142286976
C           -7.24644368795980        4.01102526297715       -0.82422522140842
C           -6.02237380069835        4.25179910107743       -0.23007395391602
C           -2.99599406112073        1.64069654290173       -0.03918779935358
C           -2.00108008975232        0.67762979371333       -0.02545719176191
C           -2.03406277653034       -0.75897541047907        0.04651931884858
C           -3.07068613086721       -1.66946892490371        0.16095890138577
C           -2.77042295977739       -3.02782700770333        0.20661293452244
N           -3.79924077701788       -3.97387102921203        0.28465619938183
C           -4.99634354939356       -3.75795878944886       -0.41027088635287
C           -4.98386482736679       -3.17236858640299       -1.67661554808687
C           -6.16700779221521       -2.95345362811761       -2.35533523569583
C           -7.37837368871763       -3.32137413979304       -1.79200421965827
C           -7.39648223341115       -3.90850994816080       -0.53708124375685
C           -6.21898753537684       -4.12308746069616        0.15343621959689
C           -3.64018254219257       -5.12457963885199        1.06598241875858
C           -2.96155343618569       -5.06707788502420        2.28364478124116
C           -2.80414225817306       -6.20752068844200        3.04768079867088
C           -3.32470772591187       -7.41800528164655        2.61889339480200
C           -4.00261770375899       -7.48015041003823        1.41184903201457
C           -4.15740514984294       -6.34708376592663        0.63662743528909
C           -1.43244323182325       -3.44850644538513        0.17395657526215
C           -0.38938030370037       -2.54921564791541        0.08048553830748
C           -0.69392380492084       -1.19921911810737       -0.01067023756681
C            2.28737827014219        0.69529674247715        0.74599487750586
C            1.66292895771016        1.49323533883738        1.73085441017218
N            1.19424824098402        2.11636123968017        2.57324147552183
C            3.67737439032356        0.67383614901829        0.69473475537808
N            6.37592330136429       -0.98723629122929       -1.13602572323438
C            7.69954870537696       -0.95470561916145       -1.16611090950603
C            8.42461891877972       -1.84286448869308       -2.14457127100850
C            9.27746860301845       -0.94917219011901       -3.05380324411199
C            7.43600527478477       -2.65453533276025       -2.97920908353908
C            9.33672883743769       -2.78089178603273       -1.34368760844893
N            8.43985576923887       -0.18232800833600       -0.38032079381117
H            8.62673595733298        3.10732288565521       -0.05923499288965
H            9.96841839549042        3.12681438806046        1.09114517039408
H            9.95923767256941        1.95964559640454       -0.23958589018991
H            8.31753107781314        2.84970114164748        3.01230724911881
H            7.16439044127119        1.50912112368991        2.99347582852057
H            6.98473663673686        2.83648910025384        1.84986130943704
H           10.23647887759050        0.06520926556228        1.40643216904838
H            9.11202040213323       -0.11213754138904        2.75784595631014
H           10.25851071299202        1.23265083239737        2.73698842855092
H            4.10966473160446       -1.64555102942571       -1.71925263391952
H            1.63636533277775       -1.60501816804113       -1.65873308508050
H            0.74792640487426        2.66695469696652       -0.44345361202907
H           -1.02320651523462        4.35710090766954       -0.49045702314753
H           -2.20138952626072        4.37149259072700        2.01861103661950
H           -1.72955930556944        6.53753564942137        3.07161474683564
H           -2.61375619031236        8.62354826961405        2.08230431808836
H           -3.97018143780259        8.51610509162496        0.01992214990647
H           -4.42779375607689        6.35094641978631       -1.04894385164606
H           -4.04281165867864        2.57937404752279       -2.40338384360884
H           -6.22681133323269        2.13808928689239       -3.44005020268351
H           -8.28917670473783        3.05706467623695       -2.43536854413312
H           -8.14295600969828        4.41528081748306       -0.37684615340440
H           -5.96287063859131        4.83786505346977        0.67549600419454
H           -4.03376221851422        1.36012898557146        0.05237401119689
H           -4.09448647284180       -1.33314550913421        0.21376770578251
H           -4.04088184194953       -2.89210057798088       -2.12281007210447
H           -6.14134543784720       -2.50000480509312       -3.33566516374014
H           -8.30104374708525       -3.15181363843994       -2.32643368450408
H           -8.33617021960843       -4.19436122009781       -0.08699046325126
H           -6.23835179307309       -4.57181287962697        1.13601299820715
H           -2.56358721409042       -4.12272909756817        2.62600356158044
H           -2.27882229078753       -6.14766068719075        3.98995587629888
H           -3.20327110803371       -8.30610722211522        3.22079748444318
H           -4.40714532324391       -8.42042550265681        1.06611078880178
H           -4.67869902260072       -6.40022728893192       -0.30814389906071
H           -1.21783753857872       -4.50540929895217        0.22284072473951
H            0.63057372942972       -2.90102116523027        0.07781052526702
H            4.25535858923700        1.30246346889318        1.35469395107081
H            9.84780367759908       -1.56334131638972       -3.74605322250624
H            9.96566274139034       -0.35679627397728       -2.45647612675223
H            8.64478644333142       -0.27390552796571       -3.62726119454797
H            7.97704217551979       -3.28709532528490       -3.67847744243546
H            6.82309793599285       -3.28260299589987       -2.33784383201508
H            6.77818207825466       -1.99398068918114       -3.53827303415026
H           10.02486696783441       -2.20197509052363       -0.73319248448130
H            8.74648749019948       -3.42095775357185       -0.69021514994669
H            9.90794367591124       -3.40917586974225       -2.02245967923710

          :  Hamiltonian                  GFN2-xTB          :
         :: gradient norm              0.000119700411 Eh/a0 ::
         :: HOMO-LUMO gap              1.155989225939 eV    ::
         :: SCC energy              -163.064154131399 Eh    ::
         :: -> dispersion             -0.145937458744 Eh    ::
         :: -> Gsolv                  -0.069997720008 Eh    ::
         :: repulsion energy           2.855851972677 Eh    ::

    * Orbital Energies and Occupations

         #    Occupation            Energy/Eh            Energy/eV
      -------------------------------------------------------------
         1        2.0000           -0.6965591             -18.9543
       ...           ...                  ...                  ...
       137        2.0000           -0.4127729             -11.2321
       138        2.0000           -0.4073615             -11.0849
       139        2.0000           -0.4059138             -11.0455
       140        2.0000           -0.4056851             -11.0393
       141        2.0000           -0.4043941             -11.0041
       142        2.0000           -0.4041646             -10.9979
       143        2.0000           -0.4027139             -10.9584
       144        2.0000           -0.3902924             -10.6204
       145        2.0000           -0.3859787             -10.5030
       146        2.0000           -0.3843503             -10.4587
       147        2.0000           -0.3840328             -10.4501
       148        2.0000           -0.3511834              -9.5562
       149        2.0000           -0.3440784              -9.3629 (HOMO)
       150                         -0.3015966              -8.2069 (LUMO)
       151                         -0.2836650              -7.7189
       152                         -0.2713715              -7.3844
       153                         -0.2552727              -6.9463
       154                         -0.2396113              -6.5202
       155                         -0.2356413              -6.4121
       156                         -0.2301794              -6.2635
       157                         -0.2287631              -6.2250
       158                         -0.2251774              -6.1274
       159                         -0.2236359              -6.0854
       160                         -0.2223180              -6.0496
       ...                                ...                  ...
       291                          1.1485213              31.2529
      -------------------------------------------------------------
                  HL-Gap            0.0424818 Eh            1.1560 eV

     #   Z          covCN         q      C6AA      α(0)
     1   6 C        3.763    -0.107    22.584     6.774
     2   6 C        3.908     0.015    20.267     6.399
     3   6 C        3.760    -0.112    22.684     6.790
     4   6 C        3.762    -0.109    22.622     6.780
     5   6 C        2.993     0.224    23.298     7.918
     6   7 N        1.841    -0.318    29.098     7.994
     7   6 C        2.992     0.213    23.507     7.953
     8   6 C        2.981    -0.010    28.261     8.720
     9   6 C        2.921    -0.020    28.517     8.757
    10   6 C        2.919    -0.041    29.020     8.834
    11   6 C        2.914     0.076    26.296     8.409
    12   7 N        2.799    -0.038    21.971     6.962
    13   6 C        3.067     0.038    27.073     8.532
    14   6 C        2.909    -0.046    29.132     8.850
    15   6 C        2.927    -0.048    29.189     8.860
    16   6 C        2.924     0.060    26.645     8.465
    17   7 N        2.752    -0.077    22.732     7.081
    18   6 C        2.923     0.064    26.560     8.451
    19   6 C        2.922    -0.048    29.197     8.861
    20   6 C        2.919    -0.030    28.746     8.792
    21   6 C        2.919    -0.040    28.983     8.828
    22   6 C        2.919    -0.031    28.765     8.795
    23   6 C        2.922    -0.049    29.207     8.863
    24   6 C        2.922     0.065    26.551     8.450
    25   6 C        2.922    -0.049    29.210     8.863
    26   6 C        2.919    -0.030    28.753     8.793
    27   6 C        2.919    -0.040    28.983     8.828
    28   6 C        2.919    -0.030    28.753     8.793
    29   6 C        2.922    -0.048    29.191     8.860
    30   6 C        2.916    -0.052    29.281     8.873
    31   6 C        3.064    -0.013    28.265     8.718
    32   6 C        3.065    -0.012    28.247     8.715
    33   6 C        2.916    -0.051    29.256     8.870
    34   6 C        2.923     0.059    26.671     8.469
    35   7 N        2.752    -0.077    22.740     7.082
    36   6 C        2.923     0.065    26.554     8.451
    37   6 C        2.922    -0.049    29.204     8.862
    38   6 C        2.919    -0.030    28.749     8.793
    39   6 C        2.919    -0.039    28.975     8.827
    40   6 C        2.919    -0.030    28.752     8.793
    41   6 C        2.922    -0.048    29.191     8.860
    42   6 C        2.923     0.065    26.554     8.451
    43   6 C        2.922    -0.049    29.212     8.863
    44   6 C        2.919    -0.030    28.757     8.794
    45   6 C        2.919    -0.039    28.981     8.828
    46   6 C        2.919    -0.030    28.754     8.793
    47   6 C        2.922    -0.048    29.194     8.861
    48   6 C        2.926    -0.050    29.238     8.868
    49   6 C        2.909    -0.050    29.244     8.867
    50   6 C        3.065     0.037    27.097     8.536
    51   6 C        2.972     0.002    27.978     8.676
    52   6 C        1.912     0.124    28.061     8.555
    53   7 N        0.911    -0.262    26.783     7.485
    54   6 C        2.933    -0.018    28.455     8.748
    55   7 N        1.842    -0.315    29.006     7.982
    56   6 C        2.992     0.223    23.316     7.921
    57   6 C        3.908     0.015    20.265     6.399
    58   6 C        3.763    -0.108    22.605     6.777
    59   6 C        3.760    -0.113    22.711     6.794
    60   6 C        3.763    -0.108    22.603     6.777
    61   7 N        1.841    -0.313    28.963     7.976
    62   1 H        0.925     0.033     2.541     2.493
    63   1 H        0.925     0.056     2.246     2.344
    64   1 H        0.925     0.048     2.348     2.396
    65   1 H        0.925     0.050     2.315     2.379
    66   1 H        0.925     0.041     2.437     2.441
    67   1 H        0.925     0.044     2.400     2.423
    68   1 H        0.925     0.051     2.313     2.378
    69   1 H        0.925     0.033     2.542     2.493
    70   1 H        0.925     0.054     2.265     2.353
    71   1 H        0.926     0.073     2.058     2.243
    72   1 H        0.926     0.067     2.119     2.276
    73   1 H        0.926     0.027     2.635     2.539
    74   1 H        0.926     0.040     2.451     2.448
    75   1 H        0.926     0.032     2.554     2.499
    76   1 H        0.926     0.034     2.532     2.488
    77   1 H        0.926     0.032     2.559     2.501
    78   1 H        0.926     0.034     2.537     2.491
    79   1 H        0.926     0.032     2.554     2.499
    80   1 H        0.926     0.031     2.570     2.507
    81   1 H        0.926     0.034     2.534     2.489
    82   1 H        0.926     0.032     2.556     2.500
    83   1 H        0.926     0.033     2.538     2.491
    84   1 H        0.926     0.032     2.557     2.501
    85   1 H        0.926     0.042     2.421     2.433
    86   1 H        0.926     0.041     2.438     2.442
    87   1 H        0.926     0.032     2.562     2.503
    88   1 H        0.926     0.034     2.535     2.490
    89   1 H        0.926     0.032     2.558     2.501
    90   1 H        0.926     0.033     2.541     2.493
    91   1 H        0.926     0.031     2.565     2.505
    92   1 H        0.926     0.031     2.577     2.510
    93   1 H        0.926     0.033     2.548     2.496
    94   1 H        0.926     0.032     2.562     2.503
    95   1 H        0.926     0.034     2.535     2.490
    96   1 H        0.926     0.032     2.552     2.498
    97   1 H        0.926     0.041     2.435     2.440
    98   1 H        0.926     0.039     2.465     2.455
    99   1 H        0.926     0.064     2.149     2.292
   100   1 H        0.925     0.055     2.256     2.349
   101   1 H        0.925     0.049     2.338     2.391
   102   1 H        0.925     0.033     2.540     2.492
   103   1 H        0.925     0.051     2.313     2.379
   104   1 H        0.925     0.044     2.391     2.418
   105   1 H        0.925     0.044     2.396     2.421
   106   1 H        0.925     0.048     2.339     2.392
   107   1 H        0.925     0.033     2.538     2.491
   108   1 H        0.925     0.055     2.254     2.348

molecular dipole:
                 x           y           z       tot (Debye)
 q only:        0.158      -0.868      -1.084
   full:        0.481      -1.045      -1.307       4.426

 projected vibrational frequencies (cm⁻¹)
eigval :       -0.00    -0.00    -0.00    -0.00    -0.00     0.00
eigval :        9.11    10.05    10.74    12.72    13.53    14.78
eigval :       21.20    23.44    32.69    40.32    41.56    49.35
eigval :       53.14    54.78    56.57    59.47    68.44    71.22
eigval :       80.92    83.24    84.81    87.79   104.50   109.74
eigval :      116.02   121.21   139.49   143.81   145.06   156.36
eigval :      171.51   175.84   182.49   193.39   207.71   218.30
eigval :      220.01   223.84   230.39   235.13   236.77   238.54
eigval :      243.06   245.58   248.14   250.22   259.48   272.85
eigval :      275.28   298.54   306.78   312.36   316.53   319.57
eigval :      331.23   341.22   348.93   351.02   361.56   369.63
eigval :      377.32   377.83   382.69   383.41   386.11   391.54
eigval :      395.20   402.24   404.83   418.84   428.43   434.68
eigval :      450.20   455.96   466.69   476.02   489.17   491.10
eigval :      498.56   510.13   545.08   547.57   550.17   554.32
eigval :      557.68   567.33   567.96   575.25   585.54   587.51
eigval :      589.06   589.76   599.43   605.38   623.33   625.60
eigval :      634.72   653.95   658.95   660.81   663.61   669.39
eigval :      673.73   674.78   680.47   697.42   700.72   712.31
eigval :      722.11   755.43   756.25   756.81   759.70   762.08
eigval :      797.56   802.16   816.44   818.05   821.15   847.10
eigval :      864.73   867.29   870.83   873.32   874.41   875.45
eigval :      877.45   879.94   890.38   891.88   892.00   892.72
eigval :      894.25   907.62   909.06   909.39   913.81   919.26
eigval :      925.52   925.95   927.15   927.70   928.27   929.08
eigval :      930.39   931.46   935.23   943.87   947.97   961.06
eigval :      964.97   965.40   965.66   965.74   966.25   966.98
eigval :      970.64   989.35  1002.94  1003.91  1012.77  1028.26
eigval :     1029.07  1035.33  1036.23  1037.51  1058.07  1081.43
eigval :     1082.11  1082.45  1083.12  1093.35  1119.32  1120.20
eigval :     1121.06  1121.75  1123.25  1142.16  1155.40  1168.08
eigval :     1177.61  1177.79  1178.21  1178.61  1180.69  1185.24
eigval :     1192.77  1194.85  1196.62  1197.57  1199.15  1203.80
eigval :     1214.53  1224.37  1225.93  1227.97  1230.51  1234.77
eigval :     1242.51  1248.76  1254.43  1262.48  1270.66  1276.23
eigval :     1277.57  1282.13  1284.31  1307.02  1310.84  1315.43
eigval :     1317.32  1317.64  1323.89  1324.39  1324.90  1326.76
eigval :     1342.64  1351.43  1360.08  1370.01  1378.91  1389.62
eigval :     1389.87  1390.85  1395.86  1400.32  1410.02  1418.16
eigval :     1420.98  1421.23  1427.44  1432.73  1433.79  1440.98
eigval :     1441.64  1464.06  1467.91  1470.13  1471.34  1473.22
eigval :     1473.35  1473.43  1474.43  1484.97  1486.43  1487.08
eigval :     1488.26  1488.97  1489.33  1490.72  1491.77  1493.38
eigval :     1508.13  1510.48  1518.36  1521.40  1542.68  1561.95
eigval :     1570.79  1574.64  1575.21  1577.16  1579.20  1579.35
eigval :     1591.30  1591.42  1594.91  1597.12  1599.81  1611.90
eigval :     2357.83  3020.33  3020.68  3023.27  3023.77  3033.30
eigval :     3034.19  3034.99  3035.17  3037.82  3040.08  3040.25
eigval :     3040.88  3042.39  3044.62  3046.80  3047.38  3048.27
eigval :     3049.73  3070.93  3070.94  3071.24  3071.35  3072.03
eigval :     3072.18  3072.51  3073.55  3081.20  3081.37  3081.98
eigval :     3082.15  3082.70  3084.37  3084.65  3085.13  3085.66
eigval :     3088.77  3092.94  3093.52  3093.73  3094.17  3096.62
eigval :     3098.29  3099.15  3100.23  3101.71  3104.96  3113.83

   temp. (K)  partition function   enthalpy   heat capacity  entropy
                                   cal/mol     cal/K/mol   cal/K/mol   J/K/mol
 298.15  VIB  0.328E+28            32882.873    197.066    209.202
         ROT  0.233E+09              888.752      2.981     41.271
         INT  0.764E+36            33771.625    200.047    250.473
         TR   0.216E+29             1481.254      4.968     45.873
         TOT                       35252.8790   205.0147   296.3459  1239.9110

       T/K    H(0)-H(T)+PV         H(T)/Eh          T*S/Eh         G(T)/Eh
   ------------------------------------------------------------------------
    298.15    0.561790E-01    0.911637E+00    0.140803E+00    0.770834E+00
   ------------------------------------------------------------------------

         :::::::::::::::::::::::::::::::::::::::::::::::::::::
         ::                  THERMODYNAMIC                  ::
         :::::::::::::::::::::::::::::::::::::::::::::::::::::
         :: total free energy        -159.437468299507 Eh   ::
         ::.................................................::
         :: total energy             -160.208302165023 Eh   ::
         :: zero point energy           0.855458303796 Eh   ::
         :: G(RRHO) w/o ZPVE           -0.084624438280 Eh   ::
         :: G(RRHO) contrib.            0.770833865516 Eh   ::
         :::::::::::::::::::::::::::::::::::::::::::::::::::::

           -------------------------------------------------
          | TOTAL ENERGY             -160.208302165023 Eh   |
          | TOTAL ENTHALPY           -159.296664822627 Eh   |
          | TOTAL FREE ENERGY        -159.437468299507 Eh   |
          | GRADIENT NORM               0.000119832520 Eh/α |
          | HOMO-LUMO GAP               1.155988525502 eV   |
           -------------------------------------------------

 * finished run on 2025/08/25 at 19:33:21.270
