   * xtb version 6.7.1 (edcfbbe) compiled by 'albert@albert-system' on 2024-07-22

   ID    Z sym.   atoms
    1    6 C      1-5, 7-11, 13-16, 18-34, 36-52, 54, 56-60
    2    7 N      6, 12, 17, 35, 53, 55, 61
    3    1 H      62-108

          program call               : xtb data2507/toluene/DTPTCzDP-CN/DTPTCzDP-CN.xyz --gfn 2 --gbsa toluene --ohess vtight --parallel 40 --molden --ceasefiles --namespace data2507/toluene/DTPTCzDP-CN/DTPTCzDP-CN_toluene_S0_preOpt
      * Solvation model:               GBSA
        Solvent                        toluene
        Solvent mass                       9.2140E+01 g/mol
          :  Hamiltonian                  GFN2-xTB          :
 * total energy  :  -160.1755975 Eh     change       -0.1689756E-08 Eh
 * total energy  :  -160.1937760 Eh     change       -0.1817848E-01 Eh
 * total energy  :  -160.2006667 Eh     change       -0.6890747E-02 Eh
 * total energy  :  -160.2014764 Eh     change       -0.8096862E-03 Eh
 * total energy  :  -160.2047515 Eh     change       -0.3275084E-02 Eh
 * total energy  :  -160.2058760 Eh     change       -0.1124534E-02 Eh
 * total energy  :  -160.2065770 Eh     change       -0.7010061E-03 Eh
 * total energy  :  -160.2068964 Eh     change       -0.3193607E-03 Eh
 * total energy  :  -160.2070548 Eh     change       -0.1583760E-03 Eh
 * total energy  :  -160.2071913 Eh     change       -0.1365073E-03 Eh
 * total energy  :  -160.2080726 Eh     change       -0.3339593E-06 Eh
 * total energy  :  -160.2080728 Eh     change       -0.2610491E-06 Eh
 * total energy  :  -160.2080731 Eh     change       -0.2213621E-06 Eh
 * total energy  :  -160.2080733 Eh     change       -0.2584490E-06 Eh
 * total energy  :  -160.2080737 Eh     change       -0.3472796E-06 Eh
 * total energy  :  -160.2080742 Eh     change       -0.5028344E-06 Eh
 * total energy  :  -160.2080749 Eh     change       -0.7683055E-06 Eh
 * total energy  :  -160.2080759 Eh     change       -0.9818470E-06 Eh
 * total energy  :  -160.2080759 Eh     change       -0.5541921E-08 Eh
   *** GEOMETRY OPTIMIZATION CONVERGED AFTER 122 ITERATIONS ***

 final structure:
================
108
 xtb: 6.7.1 (edcfbbe)
C            8.81665101829951        2.76633072370115        0.55712456203575
C            7.99766299334265        1.89694094088027        1.52019203183916
C            7.04676777341669        2.76760573992381        2.33907337127594
C            8.94551569212652        1.12752453941182        2.44848880748687
C            7.23361760724396        0.89311368989113        0.69617035085537
N            5.91230157707590        0.90453872234578        0.73785413193403
C            5.29896416270522       -0.01193082561398       -0.01123454070323
C            3.83711982435641       -0.03592417255527        0.00167293038260
C            3.13391458468798       -0.96093885223248       -0.77624550091266
C            1.75701797311441       -0.97353035257336       -0.77762141097660
C            1.03272514117065       -0.06208778492304       -0.00581908031404
N           -0.35297646580120       -0.06163869634304       -0.03316875891986
C           -1.16503570275031        1.05158174105020       -0.20191356391156
C           -0.82381467540276        2.36254514312069       -0.49869586119932
C           -1.84200755671543        3.27772013055753       -0.66459091858609
C           -3.19139260775933        2.91335499305153       -0.54175206278013
N           -4.18749603412038        3.88536709161085       -0.69171062554361
C           -3.98932592624752        5.17156807063276       -0.17466465040540
C           -3.29914867977504        5.35554301852610        1.02393996786971
C           -3.10139099710200        6.62787635753907        1.52497528064465
C           -3.59261047515902        7.73365373216201        0.84954479060586
C           -4.28153508690904        7.55623444155713       -0.33958164192081
C           -4.47666558890317        6.28870348051542       -0.85357777626032
C           -5.39017125126499        3.56279865728960       -1.33265623224513
C           -5.39504423798413        2.71761551870800       -2.44278288311844
C           -6.58354852448955        2.39780768286683       -3.07043073647528
C           -7.78257980830002        2.91956171947562       -2.61185813012294
C           -7.78333707169503        3.76289231357603       -1.51236682373191
C           -6.60083980254875        4.08072315724582       -0.87208700668210
C           -3.53182000930309        1.58784063347499       -0.29001987585401
C           -2.51814642783042        0.65650839855620       -0.13754130239104
C           -2.52197882539593       -0.76511801423629        0.08530442336998
C           -3.54091492038926       -1.68973309375440        0.24416401163584
C           -3.20898197360240       -3.02080544833018        0.47919957735976
N           -4.21383567728037       -3.98076215798032        0.64928309630211
C           -4.04583333893625       -5.26985583514588        0.13033872014135
C           -4.52282353166357       -6.38091567277972        0.82643863770381
C           -4.35737892516036       -7.65126205917346        0.30912390359383
C           -3.70813403090218       -7.83834729176202       -0.90071705214827
C           -3.22867527957502       -6.73893283965058       -1.59453268172306
C           -3.39752791757570       -5.46393839145334       -1.08987730059616
C           -5.39200640350180       -3.64684554148785        1.32977587313969
C           -5.35349600681430       -2.80757471273932        2.44355545891556
C           -6.51911982232100       -2.47732757228468        3.10777437931916
C           -7.73737257538406       -2.98245273508643        2.68244393329530
C           -7.78092889137507       -3.82016289248131        1.57957469801212
C           -6.62177093548915       -4.14824394843367        0.90287746843017
C           -1.86091536290159       -3.40098879766598        0.56299351230822
C           -0.83681570213067       -2.49233092889579        0.39105580479565
C           -1.17094761452345       -1.17126369287573        0.13227555716747
C            1.74131089749353        0.85395154869025        0.80060718616884
C            1.06486617992574        1.71858544961834        1.69026210391615
N            0.54998239198399        2.39893946818057        2.45802264992304
C            3.13238011509167        0.86360487679739        0.79272032346171
N            5.93213064070573       -0.90003363071083       -0.76839502587833
C            7.25929396728469       -0.83128914257874       -0.75499881387697
C            8.00467439445988       -1.81497723704089       -1.62023023464291
C            9.51402377855979       -1.64736468899317       -1.46058530377915
C            7.59573708783111       -1.55762237225177       -3.07686414568915
C            7.58284455333098       -3.23112347511700       -1.20936448498788
N            7.94639481537344        0.04472689782100       -0.04037397177283
H            8.15878437082952        3.31585416247705       -0.11406025927085
H            9.41301439360399        3.47957810487839        1.12038268362471
H            9.47881264742360        2.14209966251812       -0.03739136344279
H            7.61621446401409        3.48336009743890        2.92659730853395
H            6.45259022944987        2.15446712411599        3.01228483745211
H            6.36783687372694        3.30996134921082        1.68592001687981
H            9.60499367644750        0.49150138420434        1.86383237452250
H            8.38007397778808        0.50334363797330        3.13836267853970
H            9.54585955493338        1.82677088309185        3.02490918609339
H            3.69261164988914       -1.65315300474550       -1.38575670131882
H            1.21890542739144       -1.67090458108559       -1.40100931036843
H            0.20418982604631        2.67074594021098       -0.61522144740696
H           -1.59963962511626        4.30352995156306       -0.89784259811625
H           -2.91960202349320        4.49646019818035        1.55803647252800
H           -2.56594163163426        6.75422147743285        2.45473224217721
H           -3.43923429794030        8.72592803448157        1.24649600555871
H           -4.66321028480821        8.41235916687586       -0.87694480517707
H           -5.00574717421504        6.15474978036419       -1.78599895237794
H           -4.46071722961048        2.31725886294365       -2.80872645499589
H           -6.57165224147484        1.74328676423331       -3.93003882693641
H           -8.70906507693750        2.67086383912494       -3.10740446899543
H           -8.71354958932912        4.17023322099777       -1.14353122251285
H           -6.60626981787066        4.73049889444009       -0.00901743467609
H           -4.56684660630836        1.29128694884871       -0.21987228501467
H           -4.57415567828361       -1.38304453572742        0.19496771033830
H           -5.02070619176653       -6.23971044694677        1.77478830844336
H           -4.73050767822257       -8.50230316953870        0.86033310987220
H           -3.57772221250524       -8.83298405505171       -1.29991183970203
H           -2.72703086288804       -6.87410128935383       -2.54187859762367
H           -3.03216152210172       -4.60801006659338       -1.63851345612839
H           -4.40480548983871       -2.41893489229756        2.78447653781490
H           -6.47351825894947       -1.82733016428688        3.96962022185072
H           -8.64561403446054       -2.72516130153093        3.20651681588642
H           -8.72638870216649       -4.21490245733021        1.23672094202887
H           -6.66104681837681       -4.79382991156388        0.03747201660526
H           -1.62466492831048       -4.43285048225263        0.77529846867878
H            0.19098874554231       -2.80839170048208        0.48087734583551
H            3.67459875195348        1.56367257776758        1.40969337139994
H           10.03286933237930       -2.36313901418968       -2.09329992179803
H            9.80826708553905       -1.81266477159309       -0.42738202103794
H            9.81773116511246       -0.64275812305658       -1.74257326913460
H            8.08181898062470       -2.27863839970540       -3.72924454741669
H            6.51818140357475       -1.65054146693509       -3.18646696247421
H            7.89104254567557       -0.55585022903289       -3.38419341452859
H            6.50488623870690       -3.34110473598747       -1.29380130391869
H            8.06564582257334       -3.96148174643872       -1.85370609536694
H            7.87233030883244       -3.43067853923106       -0.17909724069023

          :  Hamiltonian                  GFN2-xTB          :
         :: gradient norm              0.000065893282 Eh/a0 ::
         :: HOMO-LUMO gap              1.165535538373 eV    ::
         :: SCC energy              -163.063991969649 Eh    ::
         :: -> dispersion             -0.145556186783 Eh    ::
         :: -> Gsolv                  -0.070090645371 Eh    ::
         :: repulsion energy           2.855916042312 Eh    ::

    * Orbital Energies and Occupations

         #    Occupation            Energy/Eh            Energy/eV
      -------------------------------------------------------------
         1        2.0000           -0.6967794             -18.9603
       ...           ...                  ...                  ...
       137        2.0000           -0.4129032             -11.2357
       138        2.0000           -0.4072700             -11.0824
       139        2.0000           -0.4059833             -11.0474
       140        2.0000           -0.4056720             -11.0389
       141        2.0000           -0.4044608             -11.0059
       142        2.0000           -0.4040711             -10.9953
       143        2.0000           -0.4027449             -10.9592
       144        2.0000           -0.3902467             -10.6192
       145        2.0000           -0.3861845             -10.5086
       146        2.0000           -0.3845457             -10.4640
       147        2.0000           -0.3842657             -10.4564
       148        2.0000           -0.3508078              -9.5460
       149        2.0000           -0.3443203              -9.3694 (HOMO)
       150                         -0.3014876              -8.2039 (LUMO)
       151                         -0.2838667              -7.7244
       152                         -0.2727247              -7.4212
       153                         -0.2552879              -6.9467
       154                         -0.2395858              -6.5195
       155                         -0.2356225              -6.4116
       156                         -0.2301092              -6.2616
       157                         -0.2287965              -6.2259
       158                         -0.2251013              -6.1253
       159                         -0.2237189              -6.0877
       160                         -0.2225247              -6.0552
       ...                                ...                  ...
       291                          1.1485602              31.2539
      -------------------------------------------------------------
                  HL-Gap            0.0428326 Eh            1.1655 eV

     #   Z          covCN         q      C6AA      α(0)
     1   6 C        3.763    -0.108    22.603     6.777
     2   6 C        3.908     0.015    20.266     6.399
     3   6 C        3.760    -0.112    22.686     6.790
     4   6 C        3.763    -0.109    22.620     6.780
     5   6 C        2.994     0.224    23.291     7.917
     6   7 N        1.841    -0.318    29.094     7.994
     7   6 C        2.991     0.212    23.512     7.954
     8   6 C        2.981    -0.010    28.254     8.719
     9   6 C        2.921    -0.020    28.506     8.755
    10   6 C        2.919    -0.041    29.012     8.833
    11   6 C        2.914     0.076    26.294     8.409
    12   7 N        2.799    -0.038    21.977     6.963
    13   6 C        3.067     0.039    27.069     8.531
    14   6 C        2.909    -0.046    29.137     8.851
    15   6 C        2.927    -0.048    29.187     8.860
    16   6 C        2.924     0.060    26.647     8.465
    17   7 N        2.752    -0.078    22.746     7.083
    18   6 C        2.923     0.064    26.558     8.451
    19   6 C        2.922    -0.048    29.198     8.861
    20   6 C        2.919    -0.030    28.746     8.792
    21   6 C        2.919    -0.040    28.985     8.829
    22   6 C        2.919    -0.031    28.765     8.795
    23   6 C        2.922    -0.049    29.208     8.863
    24   6 C        2.923     0.065    26.549     8.450
    25   6 C        2.922    -0.049    29.209     8.863
    26   6 C        2.919    -0.030    28.756     8.794
    27   6 C        2.919    -0.040    28.982     8.828
    28   6 C        2.919    -0.030    28.752     8.793
    29   6 C        2.922    -0.048    29.187     8.860
    30   6 C        2.916    -0.051    29.276     8.873
    31   6 C        3.064    -0.013    28.265     8.718
    32   6 C        3.064    -0.012    28.250     8.716
    33   6 C        2.916    -0.051    29.264     8.871
    34   6 C        2.923     0.059    26.673     8.469
    35   7 N        2.752    -0.077    22.741     7.083
    36   6 C        2.923     0.065    26.555     8.451
    37   6 C        2.922    -0.048    29.198     8.861
    38   6 C        2.919    -0.030    28.754     8.793
    39   6 C        2.919    -0.040    28.987     8.829
    40   6 C        2.919    -0.030    28.760     8.794
    41   6 C        2.922    -0.049    29.220     8.865
    42   6 C        2.923     0.065    26.554     8.450
    43   6 C        2.922    -0.048    29.200     8.861
    44   6 C        2.919    -0.030    28.750     8.793
    45   6 C        2.919    -0.039    28.973     8.827
    46   6 C        2.919    -0.030    28.753     8.793
    47   6 C        2.922    -0.048    29.190     8.860
    48   6 C        2.927    -0.049    29.225     8.866
    49   6 C        2.909    -0.050    29.243     8.867
    50   6 C        3.066     0.038    27.094     8.535
    51   6 C        2.972     0.002    27.971     8.675
    52   6 C        1.912     0.124    28.061     8.555
    53   7 N        0.911    -0.261    26.765     7.482
    54   6 C        2.933    -0.018    28.453     8.748
    55   7 N        1.843    -0.316    29.034     7.986
    56   6 C        2.992     0.223    23.316     7.921
    57   6 C        3.908     0.015    20.263     6.398
    58   6 C        3.760    -0.112    22.699     6.792
    59   6 C        3.763    -0.108    22.600     6.776
    60   6 C        3.762    -0.109    22.621     6.780
    61   7 N        1.840    -0.311    28.916     7.969
    62   1 H        0.925     0.033     2.546     2.495
    63   1 H        0.925     0.056     2.249     2.345
    64   1 H        0.925     0.050     2.323     2.383
    65   1 H        0.925     0.051     2.313     2.378
    66   1 H        0.925     0.042     2.427     2.436
    67   1 H        0.925     0.043     2.410     2.427
    68   1 H        0.925     0.051     2.304     2.374
    69   1 H        0.925     0.033     2.549     2.497
    70   1 H        0.925     0.055     2.256     2.349
    71   1 H        0.926     0.070     2.086     2.259
    72   1 H        0.926     0.067     2.120     2.277
    73   1 H        0.926     0.027     2.635     2.539
    74   1 H        0.926     0.040     2.453     2.449
    75   1 H        0.926     0.032     2.558     2.501
    76   1 H        0.926     0.034     2.532     2.488
    77   1 H        0.926     0.032     2.559     2.502
    78   1 H        0.926     0.033     2.538     2.491
    79   1 H        0.926     0.032     2.558     2.501
    80   1 H        0.926     0.031     2.573     2.509
    81   1 H        0.926     0.034     2.537     2.491
    82   1 H        0.926     0.032     2.557     2.501
    83   1 H        0.926     0.034     2.535     2.490
    84   1 H        0.926     0.032     2.556     2.500
    85   1 H        0.926     0.042     2.424     2.435
    86   1 H        0.926     0.041     2.439     2.442
    87   1 H        0.926     0.031     2.565     2.505
    88   1 H        0.926     0.033     2.544     2.494
    89   1 H        0.926     0.032     2.563     2.503
    90   1 H        0.926     0.033     2.537     2.491
    91   1 H        0.926     0.032     2.562     2.503
    92   1 H        0.926     0.031     2.577     2.510
    93   1 H        0.926     0.033     2.541     2.493
    94   1 H        0.926     0.032     2.558     2.501
    95   1 H        0.926     0.034     2.535     2.490
    96   1 H        0.926     0.032     2.554     2.499
    97   1 H        0.926     0.041     2.435     2.440
    98   1 H        0.926     0.038     2.472     2.459
    99   1 H        0.926     0.065     2.142     2.289
   100   1 H        0.925     0.050     2.317     2.380
   101   1 H        0.925     0.043     2.404     2.425
   102   1 H        0.925     0.045     2.386     2.415
   103   1 H        0.925     0.056     2.246     2.344
   104   1 H        0.925     0.048     2.351     2.398
   105   1 H        0.925     0.034     2.536     2.490
   106   1 H        0.925     0.049     2.332     2.388
   107   1 H        0.925     0.055     2.254     2.348
   108   1 H        0.925     0.034     2.536     2.490

molecular dipole:
                 x           y           z       tot (Debye)
 q only:        0.178      -0.986      -0.996
   full:        0.513      -1.172      -1.195       4.450

 projected vibrational frequencies (cm⁻¹)
eigval :       -0.00    -0.00    -0.00    -0.00     0.00     0.00
eigval :        5.00    10.97    12.41    14.37    15.04    15.71
eigval :       21.03    22.61    34.07    36.23    41.44    50.84
eigval :       52.83    53.14    60.57    62.61    63.79    74.38
eigval :       81.28    83.00    85.07    91.60   104.57   109.01
eigval :      113.59   121.41   134.69   143.80   146.06   156.70
eigval :      169.62   171.75   181.65   194.95   209.03   216.35
eigval :      219.66   224.05   229.35   232.75   234.65   236.34
eigval :      245.02   248.39   251.26   252.27   261.79   263.90
eigval :      274.49   294.38   308.62   313.60   317.44   322.14
eigval :      330.40   343.48   347.41   355.14   360.75   370.93
eigval :      375.33   377.20   378.81   382.24   383.32   390.25
eigval :      394.30   402.91   409.05   417.89   427.36   435.48
eigval :      451.39   456.09   465.67   476.15   488.65   490.63
eigval :      502.53   509.89   544.16   545.59   551.04   555.69
eigval :      558.27   567.33   570.28   576.10   585.94   587.15
eigval :      588.80   589.91   596.18   606.64   621.63   630.33
eigval :      631.51   654.07   659.29   661.16   664.03   669.62
eigval :      673.97   675.87   681.34   697.39   701.04   712.25
eigval :      722.35   755.05   755.86   757.71   759.66   762.62
eigval :      799.51   802.17   815.82   819.21   820.06   843.45
eigval :      864.69   869.65   872.23   872.44   872.68   876.04
eigval :      876.57   880.27   890.71   890.89   891.68   893.20
eigval :      894.01   907.56   909.57   910.40   911.27   918.95
eigval :      924.97   925.75   927.79   928.09   928.51   929.44
eigval :      930.48   930.57   930.76   944.80   947.69   960.08
eigval :      964.68   964.99   965.51   966.04   966.23   967.40
eigval :      970.33   989.19  1003.00  1003.77  1011.81  1027.14
eigval :     1029.51  1035.36  1035.92  1036.85  1057.66  1081.79
eigval :     1082.51  1082.76  1083.56  1092.93  1119.81  1120.87
eigval :     1121.58  1122.84  1123.62  1141.34  1154.30  1167.27
eigval :     1178.15  1178.44  1178.88  1179.21  1180.49  1183.02
eigval :     1193.77  1193.99  1195.62  1198.08  1199.78  1207.61
eigval :     1214.87  1223.81  1225.77  1227.32  1228.27  1238.68
eigval :     1241.55  1249.58  1256.29  1258.58  1270.78  1277.00
eigval :     1278.20  1282.67  1284.56  1306.97  1311.33  1315.62
eigval :     1317.42  1317.76  1323.99  1324.54  1324.94  1327.51
eigval :     1343.44  1351.36  1359.81  1370.25  1376.81  1389.35
eigval :     1390.15  1391.31  1398.00  1399.70  1410.47  1418.42
eigval :     1420.58  1422.16  1427.39  1432.98  1433.91  1441.17
eigval :     1441.73  1464.06  1468.30  1470.08  1471.29  1473.23
eigval :     1473.46  1474.05  1474.45  1484.81  1486.16  1486.60
eigval :     1487.72  1488.27  1489.04  1489.44  1491.69  1493.53
eigval :     1507.75  1509.26  1517.86  1524.94  1543.66  1562.03
eigval :     1570.87  1574.19  1575.25  1577.08  1579.33  1579.45
eigval :     1591.15  1591.32  1594.83  1597.02  1599.63  1611.46
eigval :     2358.33  3019.93  3020.23  3022.70  3023.02  3034.28
eigval :     3034.48  3035.17  3035.50  3038.76  3040.21  3040.93
eigval :     3041.19  3042.71  3044.86  3046.34  3047.41  3048.42
eigval :     3049.30  3070.91  3071.40  3071.51  3071.67  3072.30
eigval :     3072.72  3072.73  3073.54  3081.48  3081.81  3082.08
eigval :     3082.86  3082.99  3084.31  3085.01  3085.28  3085.82
eigval :     3087.22  3093.45  3093.54  3094.25  3094.34  3095.91
eigval :     3097.27  3098.24  3100.33  3100.85  3105.30  3113.92

   temp. (K)  partition function   enthalpy   heat capacity  entropy
                                   cal/mol     cal/K/mol   cal/K/mol   J/K/mol
 298.15  VIB  0.378E+28            32889.524    197.102    209.385
         ROT  0.233E+09              888.752      2.981     41.269
         INT  0.882E+36            33778.277    200.083    250.654
         TR   0.216E+29             1481.254      4.968     45.873
         TOT                       35259.5307   205.0512   296.5267  1240.6676

       T/K    H(0)-H(T)+PV         H(T)/Eh          T*S/Eh         G(T)/Eh
   ------------------------------------------------------------------------
    298.15    0.561896E-01    0.911644E+00    0.140889E+00    0.770754E+00
   ------------------------------------------------------------------------

         :::::::::::::::::::::::::::::::::::::::::::::::::::::
         ::                  THERMODYNAMIC                  ::
         :::::::::::::::::::::::::::::::::::::::::::::::::::::
         :: total free energy        -159.437321661651 Eh   ::
         ::.................................................::
         :: total energy             -160.208075921965 Eh   ::
         :: zero point energy           0.855454012689 Eh   ::
         :: G(RRHO) w/o ZPVE           -0.084699752375 Eh   ::
         :: G(RRHO) contrib.            0.770754260314 Eh   ::
         :::::::::::::::::::::::::::::::::::::::::::::::::::::

           -------------------------------------------------
          | TOTAL ENERGY             -160.208075921965 Eh   |
          | TOTAL ENTHALPY           -159.296432270553 Eh   |
          | TOTAL FREE ENERGY        -159.437321661651 Eh   |
          | GRADIENT NORM               0.000065802014 Eh/α |
          | HOMO-LUMO GAP               1.165535665361 eV   |
           -------------------------------------------------

 * finished run on 2025/08/25 at 19:10:52.200
