   * xtb version 6.7.1 (edcfbbe) compiled by 'albert@albert-system' on 2024-07-22

   ID    Z sym.   atoms
    1    8 O      1
    2    6 C      2-6, 8-25, 27-34
    3    7 N      7
    4   16 S      26
    5    1 H      35-53

          program call               : xtb data2507/gas/CTM/CTM_gas_S0_finalOpt.xtbopt.xyz --gfn 2 --spinpol --tblite --uhf 2 --ohess vtight --parallel 40 --molden --ceasefiles --namespace data2507/gas/CTM/CTM_gas_T1_preOpt
 * total energy  :   -86.2506087 Eh     change       -0.3866006E-08 Eh
 * total energy  :   -86.2541213 Eh     change       -0.3512633E-02 Eh
 * total energy  :   -86.2550748 Eh     change       -0.9534663E-03 Eh
 * total energy  :   -86.2552400 Eh     change       -0.1652585E-03 Eh
 * total energy  :   -86.2553618 Eh     change       -0.1217573E-03 Eh
 * total energy  :   -86.2554677 Eh     change       -0.1058932E-03 Eh
 * total energy  :   -86.2555645 Eh     change       -0.9684584E-04 Eh
 * total energy  :   -86.2556421 Eh     change       -0.7756750E-04 Eh
 * total energy  :   -86.2556985 Eh     change       -0.5639730E-04 Eh
 * total energy  :   -86.2557547 Eh     change       -0.5622022E-04 Eh
 * total energy  :   -86.2564929 Eh     change       -0.4289512E-06 Eh
 * total energy  :   -86.2564931 Eh     change       -0.2539614E-06 Eh
 * total energy  :   -86.2564933 Eh     change       -0.1938681E-06 Eh
 * total energy  :   -86.2564935 Eh     change       -0.1716669E-06 Eh
 * total energy  :   -86.2564937 Eh     change       -0.1923475E-06 Eh
 * total energy  :   -86.2564938 Eh     change       -0.1546553E-06 Eh
 * total energy  :   -86.2564939 Eh     change       -0.1219269E-06 Eh
 * total energy  :   -86.2564940 Eh     change       -0.1045566E-06 Eh
 * total energy  :   -86.2564941 Eh     change       -0.8434252E-07 Eh
   *** GEOMETRY OPTIMIZATION CONVERGED AFTER 59 ITERATIONS ***

 final structure:
================
53
 xtb: 6.7.1 (edcfbbe)
O            1.56571946225084       -2.46019174934990       -1.35406514719690
C            1.30459590397626       -1.31429982499513       -0.87428659200867
C           -0.06436484515469       -0.93426800785981       -0.62920344190445
C           -0.44763263364607        0.05560022876113        0.29912913248384
C           -1.77114317213059        0.35867065085236        0.49578161738803
C           -2.77132996847932       -0.33362034900001       -0.19849989369065
N           -4.11714383144283       -0.01185662806435        0.00502171263369
C           -5.12493090346928       -0.90662826561790        0.29062278035606
C           -5.05520629951710       -2.27983835762170        0.49099555514377
C           -6.22888704646139       -2.94769437724340        0.78619366681859
C           -7.44228347256776       -2.27202120886530        0.89204985815176
C           -7.51348523402583       -0.90013049808815        0.72078776110608
C           -6.35023015781647       -0.20843984060213        0.42354688452583
C           -6.05011317488700        1.18181329492502        0.20609565493117
C           -6.81846999862202        2.33500434437769        0.19272573803899
C           -6.19712645746626        3.54122956582017       -0.08089275828155
C           -4.83264174942956        3.60106907958767       -0.35387312366896
C           -4.04575653516781        2.46468683552918       -0.34632781852990
C           -4.65874256117433        1.25445013789166       -0.04765049566239
C           -2.40637426157454       -1.36564779567865       -1.07420347915505
C           -1.08712044839859       -1.67214831800810       -1.27032746426306
C            2.40736820426801       -0.41243575724090       -0.56431118220600
C            2.27386474946024        0.98801669625092       -0.63548641524927
C            3.33974191101918        1.81586860573061       -0.36812562430366
C            4.56638670962686        1.25018656695336       -0.04168292271533
S            6.03556661177260        2.12249501975693        0.33355763779811
C            6.91028772874072        0.61778669425724        0.52699904661044
C            8.25080117318251        0.49888501355802        0.85414472795150
C            8.78908136983768       -0.76937471800433        0.96911983689967
C            8.00123577331630       -1.89620308439057        0.76030540400352
C            6.66377804677525       -1.77443907962824        0.43406790671246
C            6.09976166455217       -0.51001718217774        0.31331987187911
C            4.74195806051434       -0.14666335005961       -0.01603111452599
C            3.66678695161341       -0.96882402439963       -0.29446026027349
H            0.30245431912988        0.55569781646202        0.89233864701259
H           -2.05540319767721        1.10532786194083        1.22335704219614
H           -4.11490145745110       -2.80569744132522        0.43253144519437
H           -6.20337433660752       -4.01540806310102        0.94355509626831
H           -8.33805318898122       -2.82886707838425        1.12227151168877
H           -8.45261969414560       -0.37749477233891        0.82021814932819
H           -7.87919408172832        2.28990275249364        0.38712026092835
H           -6.77819530485252        4.45098978361666       -0.09361619414300
H           -4.38060059723153        4.55496827472370       -0.58039753322290
H           -2.99268456824896        2.51484223505921       -0.57627654700072
H           -3.17648383780310       -1.89260307802465       -1.61832852529116
H           -0.79199247285717       -2.45912086083471       -1.94723303844441
H            1.33207286143611        1.41908956341416       -0.93780822627186
H            3.23278782012922        2.88858365010088       -0.42080710187150
H            8.85447333431059        1.37907950295912        1.01231151895933
H            9.83205731500030       -0.88406761364327        1.22291508765751
H            8.44127561231773       -2.87759521862314        0.85451831503652
H            6.05468638226679       -2.65036575111371        0.27193458619268
H            3.77271888207303       -2.04211616950162       -0.28880140369639

 projected vibrational frequencies (cm⁻¹)
eigval :       -0.00    -0.00    -0.00     0.00     0.00     0.00
eigval :       10.96    17.66    23.49    41.38    53.49    70.11
eigval :       86.65   101.92   105.25   111.35   139.71   148.62
eigval :      162.46   166.24   212.92   222.69   238.37   253.20
eigval :      254.90   269.75   292.59   314.72   336.86   381.04
eigval :      381.93   391.45   395.06   402.16   408.55   411.48
eigval :      419.65   434.39   456.35   465.19   480.44   499.78
eigval :      514.41   523.14   535.17   542.06   549.37   578.78
eigval :      586.47   589.79   593.77   610.57   638.79   650.10
eigval :      663.42   673.71   686.37   694.99   701.15   709.54
eigval :      724.00   754.78   767.51   771.72   776.01   791.17
eigval :      799.23   816.37   843.66   851.25   868.67   869.41
eigval :      870.23   894.81   899.26   900.77   905.35   906.07
eigval :      909.61   911.05   919.32   920.76   921.14   934.56
eigval :      937.23   984.03  1001.51  1010.06  1041.89  1066.57
eigval :     1069.61  1074.49  1084.73  1112.03  1129.19  1140.58
eigval :     1148.11  1151.57  1154.97  1173.01  1177.42  1177.96
eigval :     1179.31  1193.00  1217.47  1228.10  1229.06  1235.86
eigval :     1240.31  1255.24  1279.98  1281.79  1290.95  1324.55
eigval :     1332.74  1337.98  1340.04  1348.54  1363.69  1381.78
eigval :     1404.65  1408.66  1411.32  1414.38  1420.75  1425.53
eigval :     1451.66  1459.11  1460.77  1474.02  1481.33  1498.88
eigval :     1526.65  1557.30  1563.82  1567.69  1575.07  1577.60
eigval :     1578.64  1599.62  3075.70  3079.45  3083.10  3083.55
eigval :     3083.82  3086.71  3088.29  3089.78  3090.34  3092.49
eigval :     3095.66  3097.01  3097.83  3098.44  3099.44  3101.29
eigval :     3102.04  3102.53  3106.02

   temp. (K)  partition function   enthalpy   heat capacity  entropy
                                   cal/mol     cal/K/mol   cal/K/mol   J/K/mol
 298.15  VIB  0.677E+11            14929.843     98.290     90.802
         ROT  0.398E+08              888.752      2.981     37.757
         INT  0.270E+19            15818.595    101.271    128.559
         TR   0.935E+28             1481.254      4.968     44.205
         TOT                       17299.8491   106.2388   172.7639   722.8443

       T/K    H(0)-H(T)+PV         H(T)/Eh          T*S/Eh         G(T)/Eh
   ------------------------------------------------------------------------
    298.15    0.275691E-01    0.419499E+00    0.820857E-01    0.337413E+00
   ------------------------------------------------------------------------

         :::::::::::::::::::::::::::::::::::::::::::::::::::::
         ::                  THERMODYNAMIC                  ::
         :::::::::::::::::::::::::::::::::::::::::::::::::::::
         :: total free energy         -85.919080781955 Eh   ::
         ::.................................................::
         :: total energy              -86.256494147220 Eh   ::
         :: zero point energy           0.391930019864 Eh   ::
         :: G(RRHO) w/o ZPVE           -0.054516654599 Eh   ::
         :: G(RRHO) contrib.            0.337413365265 Eh   ::
         :::::::::::::::::::::::::::::::::::::::::::::::::::::

           -------------------------------------------------
          | TOTAL ENERGY              -86.256494147220 Eh   |
          | TOTAL ENTHALPY            -85.836995062960 Eh   |
          | TOTAL FREE ENERGY         -85.919080781955 Eh   |
          | GRADIENT NORM               0.000030102229 Eh/α |
           -------------------------------------------------

 * finished run on 2025/09/07 at 01:17:34.680
