   * xtb version 6.7.1 (edcfbbe) compiled by 'albert@albert-system' on 2024-07-22

   ID    Z sym.   atoms
    1    8 O      1
    2    6 C      2-6, 8-25, 27-34
    3    7 N      7
    4   16 S      26
    5    1 H      35-53

          program call               : xtb data2507/gas/CTM/CTM_gas_T1_crest.xyz --gfn 2 --spinpol --tblite --uhf 2 --ohess vtight --parallel 40 --molden --ceasefiles --namespace data2507/gas/CTM/CTM_gas_T1_finalOpt
 * total energy  :   -86.2563877 Eh     change       -0.3199627E-07 Eh
 * total energy  :   -86.2564483 Eh     change       -0.6061079E-04 Eh
 * total energy  :   -86.2564720 Eh     change       -0.2373857E-04 Eh
 * total energy  :   -86.2564756 Eh     change       -0.3624888E-05 Eh
 * total energy  :   -86.2564791 Eh     change       -0.3421734E-05 Eh
 * total energy  :   -86.2564813 Eh     change       -0.2276598E-05 Eh
 * total energy  :   -86.2564833 Eh     change       -0.1981433E-05 Eh
 * total energy  :   -86.2564847 Eh     change       -0.1330440E-05 Eh
 * total energy  :   -86.2564856 Eh     change       -0.9592627E-06 Eh
 * total energy  :   -86.2564865 Eh     change       -0.8766720E-06 Eh
 * total energy  :   -86.2564881 Eh     change       -0.7991233E-06 Eh
 * total energy  :   -86.2564891 Eh     change       -0.1015737E-05 Eh
 * total energy  :   -86.2564904 Eh     change       -0.1292429E-05 Eh
 * total energy  :   -86.2564920 Eh     change       -0.1520732E-05 Eh
 * total energy  :   -86.2564932 Eh     change       -0.1206410E-05 Eh
 * total energy  :   -86.2564939 Eh     change       -0.7717617E-06 Eh
 * total energy  :   -86.2564943 Eh     change       -0.3861111E-06 Eh
 * total energy  :   -86.2564942 Eh     change        0.1387204E-06 Eh
 * total energy  :   -86.2564942 Eh     change       -0.2977401E-08 Eh
   *** GEOMETRY OPTIMIZATION CONVERGED AFTER 20 ITERATIONS ***

 final structure:
================
53
 xtb: 6.7.1 (edcfbbe)
O            1.56745152261534        2.44579526367480       -1.39308526530148
C            1.29967894896459        1.30411308886280       -0.90670086479867
C           -0.07161396375657        0.93801554327800       -0.65271158390545
C           -0.46092476769796       -0.04382342218037        0.28148214874462
C           -1.78678781730713       -0.33168126601563        0.48592831744530
C           -2.78292799357723        0.36871199200628       -0.20589977315749
N           -4.13139498342591        0.06395836890270        0.00644622045014
C           -4.68922820911979       -1.19557992699763       -0.03879804797483
C           -4.09314505457175       -2.41454280329467       -0.33612367149056
C           -4.89444310080415       -3.54084795129466       -0.33575313301299
C           -6.25667294837657       -3.46272845415377       -0.05620561810660
C           -6.86125726220850       -2.24777415670713        0.21626902582163
C           -6.07826397523916       -1.10439676401883        0.22167839408331
C           -6.35971446426455        0.29031722295934        0.43542280804211
C           -7.51265135008512        0.99776167572010        0.73584930299678
C           -7.42330698305898        2.36926737513953        0.90149960617118
C           -6.20203766019883        3.02915315492389        0.78696188605013
C           -5.03838155631390        2.34541687976407        0.48844696528213
C           -5.12640894504325        0.97245020377386        0.29372458462705
C           -2.41116320289475        1.39276680555894       -1.08804481255816
C           -1.08969331795714        1.68386380126619       -1.29211893580277
C            2.39697533760224        0.39495452137803       -0.59968039670143
C            2.25185914627921       -1.00491994621460       -0.65822579809476
C            3.31383496077159       -1.83896473989278       -0.39439025462335
C            4.54821750914332       -1.28053808778874       -0.08507604986889
S            6.01423322136198       -2.16146768761241        0.28226050164208
C            6.90317003156442       -0.66234006286986        0.45282490274799
C            8.24818704741532       -0.55161811810082        0.76398278853096
C            8.79823790037172        0.71309914084007        0.86086260445941
C            8.01751007970901        1.84445075490087        0.64982227550092
C            6.67544426809356        1.73085111626266        0.33988933871032
C            6.09955935181390        0.47015716697345        0.23777554433246
C            4.73521041610585        0.11503353476651       -0.07315848140600
C            3.66362241292348        0.94331456336783       -0.34675410088021
H            0.28642495094987       -0.54940114534343        0.87348799589581
H           -2.07543731622615       -1.07234824509151        1.21790253693976
H           -3.04194162771984       -2.47884712595902       -0.57105020634591
H           -4.45571707963349       -4.50120272144158       -0.56117282633320
H           -6.84932307526002       -4.36505577671457       -0.06287254137112
H           -7.92034176923957       -2.18850742251187        0.41575123220706
H           -8.45778013285323        0.48740635926983        0.84204615311334
H           -8.31079891000112        2.93824024726472        1.13412371373666
H           -6.16227327566576        4.09705784327462        0.94000310975491
H           -4.09185509101718        2.85916603654746        0.42310290674747
H           -3.17824579699830        1.92577925922181       -1.63054260396271
H           -0.78934394209927        2.46446334782181       -1.97411558749567
H            1.30405707896683       -1.43118608920350       -0.94826035315413
H            3.19795991922397       -2.91119538474904       -0.43719552732401
H            8.84633177317339       -1.43531462050162        0.92351391125523
H            9.84500562579698        0.82141830226290        1.10154415467999
H            8.46679292900119        2.82295987491806        0.72929853471382
H            6.07189546602524        2.61031651804609        0.17627112399578
H            3.77790984454318        2.01577487491148       -0.35089909370840

 projected vibrational frequencies (cm⁻¹)
eigval :       -0.00    -0.00    -0.00    -0.00     0.00     0.00
eigval :       11.54    17.99    23.74    41.66    53.91    70.33
eigval :       86.94   102.24   105.26   111.48   140.16   149.30
eigval :      162.49   166.55   213.02   222.90   238.43   253.28
eigval :      255.12   270.12   292.56   314.98   337.17   381.31
eigval :      382.19   391.59   395.17   402.34   408.81   411.74
eigval :      419.97   434.45   456.47   465.18   480.40   499.95
eigval :      514.46   523.21   535.46   542.09   549.42   578.79
eigval :      586.49   590.05   593.70   610.65   638.63   650.21
eigval :      663.54   673.79   686.46   695.20   701.14   709.60
eigval :      723.95   754.78   768.43   772.58   776.85   791.63
eigval :      799.39   816.98   844.52   851.68   869.64   870.30
eigval :      871.22   894.90   899.92   901.70   906.21   906.90
eigval :      909.82   911.65   920.35   921.84   922.08   935.17
eigval :      937.50   984.01  1001.62  1010.12  1041.87  1066.86
eigval :     1070.00  1074.69  1084.73  1112.32  1129.67  1141.04
eigval :     1148.56  1151.69  1155.49  1173.60  1177.90  1178.57
eigval :     1180.05  1193.43  1217.65  1228.32  1229.45  1235.98
eigval :     1240.27  1255.77  1280.15  1282.11  1291.03  1324.62
eigval :     1332.69  1338.04  1340.12  1348.59  1364.02  1381.97
eigval :     1404.36  1408.93  1411.79  1414.23  1420.81  1424.79
eigval :     1451.97  1459.22  1460.82  1474.13  1481.48  1498.85
eigval :     1526.69  1557.33  1563.86  1567.77  1575.15  1577.72
eigval :     1578.62  1599.52  3075.94  3079.84  3083.03  3083.50
eigval :     3083.77  3086.84  3088.27  3089.70  3090.35  3092.98
eigval :     3095.58  3096.94  3097.94  3098.68  3099.83  3101.39
eigval :     3102.14  3102.57  3105.75

   temp. (K)  partition function   enthalpy   heat capacity  entropy
                                   cal/mol     cal/K/mol   cal/K/mol   J/K/mol
 298.15  VIB  0.605E+11            14918.804     98.269     90.659
         ROT  0.398E+08              888.752      2.981     37.758
         INT  0.241E+19            15807.556    101.250    128.417
         TR   0.935E+28             1481.254      4.968     44.205
         TOT                       17288.8102   106.2183   172.6216   722.2488

       T/K    H(0)-H(T)+PV         H(T)/Eh          T*S/Eh         G(T)/Eh
   ------------------------------------------------------------------------
    298.15    0.275515E-01    0.419564E+00    0.820181E-01    0.337546E+00
   ------------------------------------------------------------------------

         :::::::::::::::::::::::::::::::::::::::::::::::::::::
         ::                  THERMODYNAMIC                  ::
         :::::::::::::::::::::::::::::::::::::::::::::::::::::
         :: total free energy         -85.918948053797 Eh   ::
         ::.................................................::
         :: total energy              -86.256494186668 Eh   ::
         :: zero point energy           0.392012759078 Eh   ::
         :: G(RRHO) w/o ZPVE           -0.054466626206 Eh   ::
         :: G(RRHO) contrib.            0.337546132871 Eh   ::
         :::::::::::::::::::::::::::::::::::::::::::::::::::::

           -------------------------------------------------
          | TOTAL ENERGY              -86.256494186668 Eh   |
          | TOTAL ENTHALPY            -85.836929954823 Eh   |
          | TOTAL FREE ENERGY         -85.918948053797 Eh   |
          | GRADIENT NORM               0.000117577917 Eh/α |
           -------------------------------------------------

 * finished run on 2025/09/07 at 01:20:44.809
