   * xtb version 6.7.1 (edcfbbe) compiled by 'albert@albert-system' on 2024-07-22

   ID    Z sym.   atoms
    1    8 O      1
    2    6 C      2-6, 8-25, 27-34
    3    7 N      7
    4   16 S      26
    5    1 H      35-53

          program call               : xtb data2507/gas/CTM/CTM_gas_S0_crest.xyz --gfn 2 --ohess vtight --parallel 40 --molden --ceasefiles --namespace data2507/gas/CTM/CTM_gas_S0_finalOpt
          :  Hamiltonian                  GFN2-xTB          :
 * total energy  :   -86.3422143 Eh     change       -0.6872938E-09 Eh
 * total energy  :   -86.3422152 Eh     change       -0.8928799E-06 Eh
 * total energy  :   -86.3422161 Eh     change       -0.9435661E-06 Eh
 * total energy  :   -86.3422177 Eh     change       -0.1531715E-05 Eh
 * total energy  :   -86.3422181 Eh     change       -0.4525917E-06 Eh
 * total energy  :   -86.3422184 Eh     change       -0.3366911E-06 Eh
 * total energy  :   -86.3422189 Eh     change       -0.4767099E-06 Eh
 * total energy  :   -86.3422193 Eh     change       -0.3884155E-06 Eh
 * total energy  :   -86.3422196 Eh     change       -0.2729006E-06 Eh
 * total energy  :   -86.3422198 Eh     change       -0.2613686E-06 Eh
 * total energy  :   -86.3422201 Eh     change       -0.2348641E-06 Eh
 * total energy  :   -86.3422203 Eh     change       -0.1882236E-06 Eh
 * total energy  :   -86.3422204 Eh     change       -0.1430815E-06 Eh
 * total energy  :   -86.3422205 Eh     change       -0.1065094E-06 Eh
 * total energy  :   -86.3422206 Eh     change       -0.7931256E-07 Eh
   *** GEOMETRY OPTIMIZATION CONVERGED AFTER 15 ITERATIONS ***

 final structure:
================
53
 xtb: 6.7.1 (edcfbbe)
O            1.55635686276672       -2.82825557909298       -1.07356281584743
C            1.30919407976221       -1.67095105161523       -0.79347587532946
C           -0.08225910560310       -1.20864020602056       -0.57084885137311
C           -0.39418400046442       -0.21240262064476        0.35340282808835
C           -1.70592416394333        0.16049361659703        0.56074115758964
C           -2.73283354288846       -0.44395870363323       -0.16440060760294
N           -4.05727977122890       -0.05022302775074        0.03356536201822
C           -5.13361901109769       -0.89545112860190        0.23797863086561
C           -5.16339428997787       -2.27717134682672        0.35792996232851
C           -6.38515855024293       -2.87770854685715        0.59645278221541
C           -7.55216684876595       -2.12836046492303        0.72443264030501
C           -7.52390360813739       -0.75099583574470        0.63482585944430
C           -6.30783668984209       -0.12520803390392        0.39533642979298
C           -5.91507656357838        1.25121006181872        0.27158608388636
C           -6.61535465474763        2.44935611039275        0.31191507032369
C           -5.92074289626965        3.62802282695128        0.12637888587138
C           -4.54907047610972        3.61962000372370       -0.11427647350183
C           -3.83102254147419        2.43950322740140       -0.15914331432912
C           -4.51869190205570        1.25378842702127        0.05440393113161
C           -2.42535323156053       -1.44799724954293       -1.08256126294435
C           -1.11534928347873       -1.83383994891896       -1.26818476002975
C            2.38618691318935       -0.65918487312895       -0.65498564447669
C            2.18477664997115        0.68363225111539       -0.99958684605940
C            3.20951422483229        1.60019527374939       -0.89345105862504
C            4.44405061975248        1.17101525182386       -0.42878349456961
S            5.85685733754487        2.17073331809510       -0.20808171648713
C            6.78177533213799        0.78746637633545        0.34209809462155
C            8.11024004351945        0.80466819004265        0.73237719826852
C            8.68982158025284       -0.38155418123403        1.14006962867541
C            7.95571427544585       -1.56384516953781        1.15719572951911
C            6.63206836109342       -1.57894185316849        0.76807958811002
C            6.02605807235922       -0.39635001846675        0.35403172094552
C            4.67369516402308       -0.17603680471970       -0.09053731580726
C            3.63504303891996       -1.08618425119750       -0.22133330474000
H            0.39057533628154        0.24683144529412        0.93647036025877
H           -1.94859618143274        0.90810372815129        1.30086540132463
H           -4.26303364434976       -2.86773886832146        0.28259443775631
H           -6.43443507894194       -3.95245733264229        0.68985804770124
H           -8.48771615822955       -2.63550219348611        0.90724945924104
H           -8.42443898990726       -0.16763467007505        0.75320138975250
H           -7.68165820094358        2.45336064713784        0.47983567209031
H           -6.44549154180323        4.57119559996408        0.15671551354861
H           -4.03477118735667        4.55584565943613       -0.27367329271864
H           -2.77170064731717        2.44521885605200       -0.36715344781532
H           -3.21728812666670       -1.90722968949760       -1.65445886908604
H           -0.86526808712968       -2.61386446415172       -1.97164264981553
H            1.22436192060091        0.99914512057462       -1.37867922071529
H            3.06112292572001        2.63332663969638       -1.16691974853993
H            8.67276486330841        1.72513845116785        0.71536076485657
H            9.72440210277602       -0.38990263792728        1.44810984076311
H            8.42975242796213       -2.47887811885358        1.47883954575328
H            6.06400803089713       -2.49645578051831        0.78041895981974
H            3.77826096392861       -2.12890059963947        0.01817755984654

          :  Hamiltonian                  GFN2-xTB          :
         :: gradient norm              0.000031388011 Eh/a0 ::
         :: HOMO-LUMO gap              2.127365851182 eV    ::
         :: SCC energy               -87.893634823250 Eh    ::
         :: -> dispersion             -0.071984660141 Eh    ::
         :: repulsion energy           1.551414222487 Eh    ::

    * Orbital Energies and Occupations

         #    Occupation            Energy/Eh            Energy/eV
      -------------------------------------------------------------
         1        2.0000           -0.7341295             -19.9767
       ...           ...                  ...                  ...
        68        2.0000           -0.4353832             -11.8474
        69        2.0000           -0.4258902             -11.5891
        70        2.0000           -0.4248363             -11.5604
        71        2.0000           -0.4229100             -11.5080
        72        2.0000           -0.4222728             -11.4906
        73        2.0000           -0.4201931             -11.4340
        74        2.0000           -0.4181160             -11.3775
        75        2.0000           -0.4084356             -11.1141
        76        2.0000           -0.3992045             -10.8629
        77        2.0000           -0.3916808             -10.6582
        78        2.0000           -0.3818490             -10.3906
        79        2.0000           -0.3817137             -10.3870
        80        2.0000           -0.3674988             -10.0002 (HOMO)
        81                         -0.2893196              -7.8728 (LUMO)
        82                         -0.2662796              -7.2458
        83                         -0.2498425              -6.7986
        84                         -0.2440939              -6.6421
        85                         -0.2413054              -6.5663
        86                         -0.2365102              -6.4358
        87                         -0.2250514              -6.1240
        88                         -0.2138156              -5.8182
        89                         -0.2133908              -5.8067
        90                         -0.1993368              -5.4242
        91                         -0.1890579              -5.1445
       ...                                ...                  ...
       160                          0.7424988              20.2044
      -------------------------------------------------------------
                  HL-Gap            0.0781792 Eh            2.1274 eV

     #   Z          covCN         q      C6AA      α(0)
     1   8 O        0.858    -0.373    21.155     6.167
     2   6 C        2.829     0.225    23.273     7.905
     3   6 C        2.972    -0.016    28.411     8.743
     4   6 C        2.920    -0.027    28.667     8.780
     5   6 C        2.921    -0.043    29.065     8.841
     6   6 C        2.913     0.071    26.420     8.429
     7   7 N        2.802    -0.041    22.039     6.972
     8   6 C        3.072     0.047    26.883     8.501
     9   6 C        2.910    -0.050    29.249     8.868
    10   6 C        2.924    -0.032    28.809     8.802
    11   6 C        2.920    -0.040    28.983     8.828
    12   6 C        2.913    -0.032    28.804     8.801
    13   6 C        3.067    -0.016    28.332     8.728
    14   6 C        3.067    -0.015    28.327     8.727
    15   6 C        2.913    -0.032    28.803     8.800
    16   6 C        2.920    -0.040    28.988     8.829
    17   6 C        2.924    -0.033    28.822     8.804
    18   6 C        2.910    -0.051    29.256     8.869
    19   6 C        3.072     0.046    26.889     8.502
    20   6 C        2.920    -0.042    29.052     8.839
    21   6 C        2.924    -0.018    28.453     8.747
    22   6 C        2.971    -0.018    28.448     8.749
    23   6 C        2.924    -0.030    28.748     8.793
    24   6 C        2.935    -0.038    28.952     8.825
    25   6 C        3.002     0.042    27.055     8.532
    26  16 S        2.212    -0.077   144.275    20.216
    27   6 C        3.004     0.039    27.111     8.541
    28   6 C        2.935    -0.037    28.932     8.822
    29   6 C        2.924    -0.029    28.714     8.787
    30   6 C        2.919    -0.033    28.812     8.802
    31   6 C        2.917    -0.030    28.753     8.793
    32   6 C        3.104    -0.001    27.928     8.659
    33   6 C        3.104    -0.001    27.915     8.657
    34   6 C        2.923    -0.021    28.537     8.760
    35   1 H        0.926     0.041     2.436     2.441
    36   1 H        0.926     0.046     2.369     2.407
    37   1 H        0.926     0.030     2.582     2.513
    38   1 H        0.926     0.032     2.563     2.503
    39   1 H        0.926     0.030     2.585     2.514
    40   1 H        0.926     0.033     2.551     2.498
    41   1 H        0.926     0.033     2.548     2.496
    42   1 H        0.926     0.030     2.588     2.516
    43   1 H        0.926     0.030     2.581     2.512
    44   1 H        0.926     0.027     2.632     2.537
    45   1 H        0.926     0.048     2.339     2.392
    46   1 H        0.926     0.059     2.208     2.323
    47   1 H        0.926     0.041     2.439     2.442
    48   1 H        0.926     0.045     2.381     2.413
    49   1 H        0.926     0.042     2.417     2.431
    50   1 H        0.926     0.040     2.453     2.449
    51   1 H        0.926     0.039     2.467     2.456
    52   1 H        0.926     0.043     2.410     2.428
    53   1 H        0.926     0.060     2.202     2.321

molecular dipole:
                 x           y           z       tot (Debye)
 q only:        0.136       0.705       0.367
   full:        0.146       0.650       0.411       1.988

 projected vibrational frequencies (cm⁻¹)
eigval :       -0.00    -0.00    -0.00     0.00     0.00     0.00
eigval :       11.48    16.09    22.65    41.33    52.67    72.13
eigval :       86.49   102.26   104.34   107.21   138.78   146.29
eigval :      161.77   168.01   211.03   231.83   240.88   254.36
eigval :      268.79   272.41   289.48   317.53   381.04   384.06
eigval :      388.96   395.08   398.25   407.04   417.24   423.88
eigval :      434.97   443.68   471.98   475.67   489.65   518.08
eigval :      525.64   535.12   541.05   544.76   576.93   586.45
eigval :      591.22   602.65   610.95   645.91   653.34   673.99
eigval :      685.24   692.98   697.78   707.79   713.84   724.54
eigval :      737.16   757.07   770.20   775.01   781.34   802.31
eigval :      828.52   831.66   867.08   872.55   874.85   876.56
eigval :      882.62   897.99   903.29   903.96   907.79   915.03
eigval :      919.55   921.66   922.37   924.13   930.93   937.59
eigval :      953.55  1002.94  1012.13  1029.95  1047.98  1071.26
eigval :     1075.00  1075.47  1093.43  1117.23  1134.23  1153.16
eigval :     1154.92  1163.06  1173.91  1176.66  1181.12  1181.32
eigval :     1181.80  1199.71  1222.78  1231.22  1235.83  1243.35
eigval :     1255.83  1263.03  1292.10  1299.96  1300.44  1322.01
eigval :     1337.97  1342.12  1357.40  1360.80  1366.47  1401.42
eigval :     1406.42  1412.33  1427.01  1427.79  1434.89  1467.18
eigval :     1475.19  1487.46  1489.20  1547.29  1556.88  1563.46
eigval :     1575.95  1577.05  1584.78  1586.38  1589.82  1599.04
eigval :     1614.32  1687.35  3077.57  3078.81  3081.64  3083.03
eigval :     3084.19  3084.34  3087.42  3089.72  3090.34  3090.70
eigval :     3092.12  3096.19  3096.72  3097.07  3098.47  3098.88
eigval :     3100.65  3100.80  3103.44

   temp. (K)  partition function   enthalpy   heat capacity  entropy
                                   cal/mol     cal/K/mol   cal/K/mol   J/K/mol
 298.15  VIB  0.578E+11            14677.786     96.621     89.527
         ROT  0.394E+08              888.752      2.981     37.738
         INT  0.228E+19            15566.539     99.602    127.265
         TR   0.935E+28             1481.254      4.968     44.205
         TOT                       17047.7926   104.5698   171.4695   717.4282

       T/K    H(0)-H(T)+PV         H(T)/Eh          T*S/Eh         G(T)/Eh
   ------------------------------------------------------------------------
    298.15    0.271674E-01    0.422776E+00    0.814707E-01    0.341306E+00
   ------------------------------------------------------------------------

         :::::::::::::::::::::::::::::::::::::::::::::::::::::
         ::                  THERMODYNAMIC                  ::
         :::::::::::::::::::::::::::::::::::::::::::::::::::::
         :: total free energy         -86.000914952655 Eh   ::
         ::.................................................::
         :: total energy              -86.342220600767 Eh   ::
         :: zero point energy           0.395608934033 Eh   ::
         :: G(RRHO) w/o ZPVE           -0.054303285921 Eh   ::
         :: G(RRHO) contrib.            0.341305648112 Eh   ::
         :::::::::::::::::::::::::::::::::::::::::::::::::::::

           -------------------------------------------------
          | TOTAL ENERGY              -86.342220600767 Eh   |
          | TOTAL ENTHALPY            -85.919444279945 Eh   |
          | TOTAL FREE ENERGY         -86.000914952655 Eh   |
          | GRADIENT NORM               0.000031354938 Eh/α |
          | HOMO-LUMO GAP               2.127363925886 eV   |
           -------------------------------------------------

 * finished run on 2025/09/07 at 01:17:28.102
