   * xtb version 6.7.1 (edcfbbe) compiled by 'albert@albert-system' on 2024-07-22

   ID    Z sym.   atoms
    1    8 O      1
    2    6 C      2-6, 8-25, 27-34
    3    7 N      7
    4   16 S      26
    5    1 H      35-53

          program call               : xtb data2507/gas/CTM/CTM.xyz --gfn 2 --ohess vtight --parallel 40 --molden --ceasefiles --namespace data2507/gas/CTM/CTM_gas_S0_preOpt
          :  Hamiltonian                  GFN2-xTB          :
 * total energy  :   -86.3266738 Eh     change       -0.1052271E-08 Eh
 * total energy  :   -86.3383175 Eh     change       -0.1164371E-01 Eh
 * total energy  :   -86.3407513 Eh     change       -0.2433749E-02 Eh
 * total energy  :   -86.3412486 Eh     change       -0.4972557E-03 Eh
 * total energy  :   -86.3416449 Eh     change       -0.3963135E-03 Eh
 * total energy  :   -86.3417743 Eh     change       -0.1294277E-03 Eh
 * total energy  :   -86.3418649 Eh     change       -0.9063314E-04 Eh
 * total energy  :   -86.3419191 Eh     change       -0.5416208E-04 Eh
 * total energy  :   -86.3419549 Eh     change       -0.3582001E-04 Eh
 * total energy  :   -86.3419916 Eh     change       -0.3667365E-04 Eh
 * total energy  :   -86.3422139 Eh     change       -0.7107012E-06 Eh
 * total energy  :   -86.3422146 Eh     change       -0.6853607E-06 Eh
 * total energy  :   -86.3422153 Eh     change       -0.6591986E-06 Eh
 * total energy  :   -86.3422159 Eh     change       -0.6180482E-06 Eh
 * total energy  :   -86.3422164 Eh     change       -0.5777026E-06 Eh
 * total energy  :   -86.3422170 Eh     change       -0.5249492E-06 Eh
 * total energy  :   -86.3422175 Eh     change       -0.4786781E-06 Eh
 * total energy  :   -86.3422179 Eh     change       -0.4220324E-06 Eh
 * total energy  :   -86.3422179 Eh     change       -0.2212445E-08 Eh
   *** GEOMETRY OPTIMIZATION CONVERGED AFTER 68 ITERATIONS ***

 final structure:
================
53
 xtb: 6.7.1 (edcfbbe)
O            2.04975214800511       -2.63727964463727       -1.23051453074679
C            1.76532662802055       -1.49887590009169       -0.91096746117823
C            0.36003879469708       -1.09284945301658       -0.66606154136501
C            0.01788143175271       -0.14986986340817        0.30219160910962
C           -1.30525991631636        0.16645168373200        0.53082489173759
C           -2.31381650856457       -0.44067412051435       -0.21748791850318
N           -3.65098690705693       -0.10706399738094        0.00400198010663
C           -4.69319632607935       -1.00258791244429        0.16812273133511
C           -4.66940218303681       -2.38873253659038        0.21857963564478
C           -5.86628449738642       -3.04728900696156        0.42833348548316
C           -7.06085197889612       -2.35103793162747        0.59573113973142
C           -7.08581645101702       -0.97085021791476        0.57616530236370
C           -5.89556644794381       -0.28731850459021        0.36662579922167
C           -5.55658566330839        1.10771987997118        0.31211378345238
C           -6.30257045317192        2.27406478974033        0.41536305997476
C           -5.65496002687619        3.48678391740133        0.28869324210866
C           -4.28511810044250        3.54388138086467        0.04433858167959
C           -3.52213075536780        2.39638354837015       -0.06268869744877
C           -4.16226429731334        1.17540993651710        0.09194411521644
C           -1.97528673045071       -1.38927381118477       -1.18254114547088
C           -0.65361599563721       -1.72098599147632       -1.38866626316924
C            2.80832562508071       -0.45593818728859       -0.74761574126844
C            2.55586802406132        0.89099701392146       -1.03831024622124
C            3.55152322745379        1.83719572507011       -0.91653456364497
C            4.80838826000016        1.43339685968551       -0.49053701642779
S            6.19222936792095        2.47106098962382       -0.26203950805690
C            7.17268122735748        1.10093248201752        0.22083242532989
C            8.50786031458287        1.14850123554017        0.58480262146129
C            9.13367781159370       -0.03117023450916        0.93974213754714
C            8.43834492808053       -1.23676407369749        0.93102261783653
C            7.10808816791552       -1.28218590539037        0.56764103350371
C            6.45594969504008       -0.10684901673294        0.20636420379061
C            5.08853407573323        0.08371354248777       -0.20472662678940
C            4.07830340543632       -0.85557405654337       -0.35042612229980
H            0.78907352277006        0.31042193599584        0.90233879522286
H           -1.57029640758735        0.87036220627480        1.30531715439638
H           -3.74733458689774       -2.93973096345401        0.11251527542586
H           -5.87372742977451       -4.12648148006180        0.46738181187685
H           -7.97556892613394       -2.90252911073113        0.75389164279240
H           -8.00766716331385       -0.42938966525779        0.72548644494840
H           -7.36746267406135        2.22795170950282        0.58596098300768
H           -6.21564803067253        4.40607016814729        0.36870869716724
H           -3.80814377767957        4.50630223902556       -0.06825063163703
H           -2.46484591031372        2.45410885129034       -0.27304742499563
H           -2.75305870926834       -1.84863003154281       -1.77342661958319
H           -0.37992146021303       -2.45941629445211       -2.12732876288811
H            1.57863379741367        1.18742042905317       -1.38870520522875
H            3.36398180905580        2.87389031837015       -1.14947671554473
H            9.04009436858595        2.08695881283000        0.58817696250854
H           10.17428198604450       -0.01601291521071        1.22650422949468
H            8.94806575289532       -2.14602666862701        1.21188031985586
H            6.57015735613888       -2.21772925238264        0.55972015840374
H            4.26033058914480       -1.90086290771116       -0.15196312926850

          :  Hamiltonian                  GFN2-xTB          :
         :: gradient norm              0.000032909906 Eh/a0 ::
         :: HOMO-LUMO gap              2.127389318387 eV    ::
         :: SCC energy               -87.893601059905 Eh    ::
         :: -> dispersion             -0.071976843798 Eh    ::
         :: repulsion energy           1.551383182062 Eh    ::

    * Orbital Energies and Occupations

         #    Occupation            Energy/Eh            Energy/eV
      -------------------------------------------------------------
         1        2.0000           -0.7341659             -19.9777
       ...           ...                  ...                  ...
        68        2.0000           -0.4353985             -11.8478
        69        2.0000           -0.4258537             -11.5881
        70        2.0000           -0.4247508             -11.5581
        71        2.0000           -0.4229351             -11.5086
        72        2.0000           -0.4222174             -11.4891
        73        2.0000           -0.4201235             -11.4321
        74        2.0000           -0.4180165             -11.3748
        75        2.0000           -0.4083972             -11.1131
        76        2.0000           -0.3992435             -10.8640
        77        2.0000           -0.3916707             -10.6579
        78        2.0000           -0.3818093             -10.3896
        79        2.0000           -0.3817508             -10.3880
        80        2.0000           -0.3674453              -9.9987 (HOMO)
        81                         -0.2892652              -7.8713 (LUMO)
        82                         -0.2662888              -7.2461
        83                         -0.2498417              -6.7985
        84                         -0.2440254              -6.6403
        85                         -0.2412254              -6.5641
        86                         -0.2365373              -6.4365
        87                         -0.2250186              -6.1231
        88                         -0.2138382              -5.8188
        89                         -0.2134443              -5.8081
        90                         -0.1992669              -5.4223
        91                         -0.1890182              -5.1434
       ...                                ...                  ...
       160                          0.7425196              20.2050
      -------------------------------------------------------------
                  HL-Gap            0.0781801 Eh            2.1274 eV

     #   Z          covCN         q      C6AA      α(0)
     1   8 O        0.858    -0.373    21.156     6.167
     2   6 C        2.829     0.225    23.273     7.905
     3   6 C        2.972    -0.016    28.409     8.743
     4   6 C        2.920    -0.027    28.667     8.780
     5   6 C        2.921    -0.043    29.066     8.841
     6   6 C        2.913     0.071    26.422     8.429
     7   7 N        2.802    -0.041    22.038     6.972
     8   6 C        3.072     0.046    26.884     8.501
     9   6 C        2.910    -0.050    29.249     8.868
    10   6 C        2.924    -0.032    28.810     8.802
    11   6 C        2.920    -0.040    28.983     8.828
    12   6 C        2.913    -0.032    28.805     8.801
    13   6 C        3.067    -0.016    28.332     8.728
    14   6 C        3.067    -0.015    28.327     8.727
    15   6 C        2.913    -0.032    28.803     8.800
    16   6 C        2.920    -0.040    28.988     8.829
    17   6 C        2.924    -0.033    28.822     8.804
    18   6 C        2.910    -0.051    29.256     8.869
    19   6 C        3.072     0.046    26.889     8.502
    20   6 C        2.920    -0.042    29.053     8.839
    21   6 C        2.924    -0.018    28.454     8.748
    22   6 C        2.971    -0.018    28.450     8.749
    23   6 C        2.924    -0.030    28.748     8.793
    24   6 C        2.935    -0.038    28.952     8.824
    25   6 C        3.002     0.042    27.054     8.532
    26  16 S        2.212    -0.077   144.270    20.216
    27   6 C        3.004     0.039    27.111     8.541
    28   6 C        2.935    -0.037    28.932     8.821
    29   6 C        2.924    -0.029    28.714     8.787
    30   6 C        2.919    -0.033    28.812     8.802
    31   6 C        2.917    -0.030    28.753     8.793
    32   6 C        3.104    -0.001    27.927     8.659
    33   6 C        3.104    -0.001    27.914     8.657
    34   6 C        2.923    -0.021    28.535     8.760
    35   1 H        0.926     0.041     2.437     2.441
    36   1 H        0.926     0.046     2.369     2.407
    37   1 H        0.926     0.030     2.581     2.512
    38   1 H        0.926     0.032     2.563     2.503
    39   1 H        0.926     0.030     2.585     2.514
    40   1 H        0.926     0.033     2.551     2.498
    41   1 H        0.926     0.033     2.548     2.496
    42   1 H        0.926     0.030     2.588     2.516
    43   1 H        0.926     0.030     2.581     2.512
    44   1 H        0.926     0.027     2.632     2.537
    45   1 H        0.926     0.048     2.339     2.392
    46   1 H        0.926     0.059     2.211     2.325
    47   1 H        0.926     0.041     2.438     2.442
    48   1 H        0.926     0.045     2.381     2.413
    49   1 H        0.926     0.042     2.417     2.431
    50   1 H        0.926     0.040     2.453     2.449
    51   1 H        0.926     0.039     2.467     2.456
    52   1 H        0.926     0.043     2.409     2.427
    53   1 H        0.926     0.060     2.199     2.319

molecular dipole:
                 x           y           z       tot (Debye)
 q only:        0.123       0.698       0.382
   full:        0.135       0.642       0.423       1.985

 projected vibrational frequencies (cm⁻¹)
eigval :       -0.00    -0.00     0.00     0.00     0.00     0.00
eigval :       11.48    16.14    22.53    41.47    52.79    72.06
eigval :       86.55   102.17   104.33   107.28   138.49   146.28
eigval :      161.46   168.03   210.93   232.10   240.69   254.41
eigval :      268.86   272.45   289.40   317.70   381.04   384.01
eigval :      388.92   394.95   398.21   407.18   417.08   423.83
eigval :      435.11   443.87   471.87   475.52   489.73   518.08
eigval :      526.14   535.21   541.04   544.74   576.89   586.39
eigval :      591.22   602.57   610.86   645.85   653.22   674.02
eigval :      685.49   692.98   697.77   707.81   713.82   724.61
eigval :      737.07   757.08   770.21   775.03   781.35   802.26
eigval :      828.44   831.63   867.05   872.57   874.90   876.62
eigval :      882.70   897.95   903.30   903.98   907.80   914.95
eigval :      919.52   921.63   922.34   924.15   931.06   937.51
eigval :      953.59  1002.95  1012.10  1030.07  1047.98  1071.34
eigval :     1075.09  1075.47  1093.38  1117.26  1134.29  1153.25
eigval :     1154.91  1162.99  1173.97  1176.66  1181.12  1181.32
eigval :     1181.78  1199.77  1222.75  1231.30  1235.80  1243.40
eigval :     1256.01  1263.06  1292.04  1300.01  1300.32  1321.82
eigval :     1337.94  1342.28  1357.42  1360.77  1366.41  1401.40
eigval :     1406.31  1412.36  1427.02  1427.75  1434.83  1467.15
eigval :     1475.16  1487.45  1489.21  1547.30  1556.87  1563.43
eigval :     1575.96  1577.00  1584.83  1586.36  1589.79  1599.02
eigval :     1614.32  1687.08  3077.57  3078.83  3081.43  3083.03
eigval :     3084.18  3084.39  3087.54  3089.77  3090.35  3090.78
eigval :     3092.21  3096.20  3096.70  3097.08  3098.49  3098.88
eigval :     3100.74  3100.85  3103.44

   temp. (K)  partition function   enthalpy   heat capacity  entropy
                                   cal/mol     cal/K/mol   cal/K/mol   J/K/mol
 298.15  VIB  0.578E+11            14677.957     96.624     89.534
         ROT  0.394E+08              888.752      2.981     37.738
         INT  0.228E+19            15566.710     99.605    127.271
         TR   0.935E+28             1481.254      4.968     44.205
         TOT                       17047.9635   104.5732   171.4762   717.4563

       T/K    H(0)-H(T)+PV         H(T)/Eh          T*S/Eh         G(T)/Eh
   ------------------------------------------------------------------------
    298.15    0.271677E-01    0.422777E+00    0.814739E-01    0.341303E+00
   ------------------------------------------------------------------------

         :::::::::::::::::::::::::::::::::::::::::::::::::::::
         ::                  THERMODYNAMIC                  ::
         :::::::::::::::::::::::::::::::::::::::::::::::::::::
         :: total free energy         -86.000914661704 Eh   ::
         ::.................................................::
         :: total energy              -86.342217877842 Eh   ::
         :: zero point energy           0.395609415369 Eh   ::
         :: G(RRHO) w/o ZPVE           -0.054306199231 Eh   ::
         :: G(RRHO) contrib.            0.341303216138 Eh   ::
         :::::::::::::::::::::::::::::::::::::::::::::::::::::

           -------------------------------------------------
          | TOTAL ENERGY              -86.342217877842 Eh   |
          | TOTAL ENTHALPY            -85.919440803394 Eh   |
          | TOTAL FREE ENERGY         -86.000914661704 Eh   |
          | GRADIENT NORM               0.000032912731 Eh/α |
          | HOMO-LUMO GAP               2.127388792578 eV   |
           -------------------------------------------------

 * finished run on 2025/09/07 at 01:15:24.839
