   * xtb version 6.7.1 (edcfbbe) compiled by 'albert@albert-system' on 2024-07-22

   ID    Z sym.   atoms
    1    7 N      1, 11, 19, 25, 43
    2    6 C      2-10, 12-18, 20-24, 26-42, 44-52
    3    1 H      53-81

          program call               : xtb data2507/toluene/4PyCNICz/4PyCNICz_toluene_T1_crest.xyz --gfn 2 --uhf 2 --gbsa toluene --ohess vtight --parallel 40 --molden --ceasefiles --namespace data2507/toluene/4PyCNICz/4PyCNICz_toluene_T1_finalOpt
      * Solvation model:               GBSA
        Solvent                        toluene
        Solvent mass                       9.2140E+01 g/mol
          :  Hamiltonian                  GFN2-xTB          :
 * total energy  :  -130.0699839 Eh     change       -0.5369628E-08 Eh
 * total energy  :  -130.0701310 Eh     change       -0.1470950E-03 Eh
 * total energy  :  -130.0702059 Eh     change       -0.7487268E-04 Eh
 * total energy  :  -130.0702219 Eh     change       -0.1606233E-04 Eh
 * total energy  :  -130.0702377 Eh     change       -0.1578281E-04 Eh
 * total energy  :  -130.0702567 Eh     change       -0.1895482E-04 Eh
 * total energy  :  -130.0702639 Eh     change       -0.7230888E-05 Eh
 * total energy  :  -130.0702773 Eh     change       -0.1338355E-04 Eh
 * total energy  :  -130.0702813 Eh     change       -0.4017750E-05 Eh
 * total energy  :  -130.0702869 Eh     change       -0.5608007E-05 Eh
 * total energy  :  -130.0703114 Eh     change       -0.4345845E-06 Eh
 * total energy  :  -130.0703118 Eh     change       -0.3443307E-06 Eh
 * total energy  :  -130.0703122 Eh     change       -0.3926885E-06 Eh
 * total energy  :  -130.0703127 Eh     change       -0.5119608E-06 Eh
 * total energy  :  -130.0703132 Eh     change       -0.5395865E-06 Eh
 * total energy  :  -130.0703137 Eh     change       -0.4636344E-06 Eh
 * total energy  :  -130.0703140 Eh     change       -0.3278510E-06 Eh
 * total energy  :  -130.0703143 Eh     change       -0.2565337E-06 Eh
 * total energy  :  -130.0703143 Eh     change       -0.1801027E-08 Eh
   *** GEOMETRY OPTIMIZATION CONVERGED AFTER 44 ITERATIONS ***

 final structure:
================
81
 xtb: 6.7.1 (edcfbbe)
N            1.85723309151763        3.08159756331052        0.90158416005648
C            2.58486787455777        2.19237899756705        0.73465067686921
C            3.47582549927026        1.16803627076406        0.48642681422728
C            4.87164135102650        1.40106906637076        0.47389573000894
C            5.42876165537150        2.67118944441517        0.97233605026305
C            6.47031899727578        3.27959815667788        0.27634365157985
C            7.01286596386974        4.46561196410392        0.73387413386973
C            6.52945876445127        5.04902168787355        1.89398724875775
C            5.50533464642269        4.43852090544550        2.59905514807419
C            4.95446318839834        3.25457802341666        2.14286625828099
N            5.72579820229254        0.52639784029962        0.01845691873044
C            5.29663447493606       -0.68035560330846       -0.45402205487785
C            6.25756979879888       -1.61277779654703       -0.97537423195988
C            5.85608689678337       -2.87369039265069       -1.43855197345989
C            6.78415372678787       -3.76156415491040       -1.93747864363664
C            8.12874567897362       -3.41724236760703       -1.98809213355887
C            8.53799795005846       -2.17186677064506       -1.53058829111380
C            7.61734560300399       -1.27710034281574       -1.02856620324620
N            4.01456179220632       -0.98580281767767       -0.40177026110305
C            3.08758162476543       -0.17540904949118        0.06341423248492
C            1.74104028102132       -0.68257066561313        0.13704808501934
C            0.76153322384708       -0.13202298446625        0.97992278790458
C           -0.50809626897070       -0.65921412124089        1.02364202260957
C           -0.84793664039425       -1.75219714234495        0.22450832489474
N           -2.13948577697748       -2.29961502727974        0.30133146747839
C           -2.38381036244825       -3.58963025456236        0.75648159766685
C           -1.48959522947556       -4.61332793222081        1.01804325409436
C           -2.00428234778865       -5.81566429105636        1.47994958172198
C           -3.36807219299161       -5.98814918097547        1.68865459974357
C           -4.26162218115983       -4.95689902160664        1.45311235665927
C           -3.76745736553898       -3.74666038075016        0.98628692225651
C           -4.37804961036807       -2.48614929502708        0.66818868889590
C           -5.69052728310476       -2.04439605565626        0.77984748718570
C           -6.00060838755216       -0.74302391866314        0.43745738800929
C           -4.99280659162148        0.07240963938135       -0.07995628856363
C           -3.64531474019401       -0.34136284618555       -0.23068058345581
C           -2.95272611130642        0.75659045638631       -0.84995459673290
C           -1.67873123332543        0.94237265527601       -1.37910747467119
C           -1.36214440499161        2.15753646611516       -1.95236895600735
C           -2.29812853674350        3.18975086206230       -2.03804113980446
C           -3.58244712298690        3.02203141901730       -1.56757897348659
C           -3.90404342626910        1.80438605425899       -0.97607706549365
N           -5.11928996933917        1.37531645961129       -0.50933248382995
C           -6.30288393388666        2.13599353933293       -0.49302124094617
C           -6.32273705193740        3.37011080408111        0.14990936985832
C           -7.48579637880143        4.11858321456863        0.16392949705374
C           -8.63005167814296        3.64251161915578       -0.45603392172784
C           -8.60915946420207        2.41415809823494       -1.09689439973889
C           -7.44973880046190        1.66018853388173       -1.12151561237734
C           -3.32776812878566       -1.62832206637368        0.22213774249993
C            0.12004875092113       -2.32605228643650       -0.60329925477243
C            1.38873544069691       -1.80196801754576       -0.64233073561557
H            6.83785619457597        2.81612863644372       -0.62726231941882
H            7.81521865090956        4.93476688411379        0.18378012130333
H            6.95278694620002        5.97603081851675        2.25105901687199
H            5.13168318960069        4.88348837060956        3.50933130768607
H            4.16517106901147        2.77511440339238        2.70390566961248
H            4.80911627932624       -3.13288622094083       -1.39037052323565
H            6.46400531016117       -4.73157813000297       -2.29059525867386
H            8.85302435395763       -4.11559851331402       -2.38052273624055
H            9.58400767337189       -1.90239038690975       -1.56675285697220
H            7.92367362641378       -0.30756413883576       -0.66483160482676
H            1.00704668616188        0.70125245325933        1.61875191408568
H           -1.24934039186120       -0.23164945610457        1.68217035146186
H           -0.42804905202299       -4.48262463561451        0.87578882382540
H           -1.32832513653716       -6.63221228043761        1.68532420851667
H           -3.73207321139574       -6.93920113182400        2.04732975120238
H           -5.31781447355064       -5.08836765724327        1.63065994145022
H           -6.45452678333149       -2.71029114504838        1.14788842022135
H           -7.00250000618865       -0.36313351971487        0.55707508637660
H           -0.94718690001989        0.15334066373521       -1.36302817320596
H           -0.37011590229939        2.30998010950854       -2.35092974433386
H           -2.01364972289048        4.12473513507865       -2.49651752802256
H           -4.32154958015882        3.80169238516492       -1.66830915928308
H           -5.43199081483331        3.72707317989696        0.64518547514240
H           -7.49920085658847        5.07425666973411        0.66621790930070
H           -9.53631735519064        4.22873688661122       -0.44091574936697
H           -9.49725592005336        2.04374976335709       -1.58671498490588
H           -7.42092473307777        0.71283216782081       -1.63873872336035
H           -0.14375019174600       -3.16508751349228       -1.23009355292588
H            2.13816988477010       -2.22902036401822       -1.29056444556168

          :  Hamiltonian                  GFN2-xTB          :
         :: gradient norm              0.000037441259 Eh/a0 ::
         :: HOMO-LUMO gap              0.335052678768 eV    ::
         :: SCC energy              -132.517190779244 Eh    ::
         :: -> dispersion             -0.118248049616 Eh    ::
         :: -> Gsolv                  -0.064803911862 Eh    ::
         :: repulsion energy           2.446876500609 Eh    ::

    * Orbital Energies and Occupations

         #    Occupation            Energy/Eh            Energy/eV
      -------------------------------------------------------------
         1        2.0000           -0.6934781             -18.8705
       ...           ...                  ...                  ...
       110        2.0000           -0.4160723             -11.3219
       111        2.0000           -0.4131756             -11.2431
       112        2.0000           -0.4096617             -11.1475
       113        2.0000           -0.4075088             -11.0889
       114        2.0000           -0.4044869             -11.0066
       115        2.0000           -0.4021867             -10.9441
       116        2.0000           -0.4004010             -10.8955
       117        2.0000           -0.3974063             -10.8140
       118        2.0000           -0.3860568             -10.5051
       119        1.9924           -0.3745631             -10.1924
       120        1.5636           -0.3701758             -10.0730
       121        1.4440           -0.3697193             -10.0606
       122        0.9985           -0.2903510              -7.9009 (HOMO)
       123        0.0015           -0.2780379              -7.5658 (LUMO)
       124                         -0.2608202              -7.0973
       125                         -0.2509242              -6.8280
       126                         -0.2439851              -6.6392
       127                         -0.2416378              -6.5753
       128                         -0.2384604              -6.4888
       129                         -0.2322913              -6.3210
       130                         -0.2317152              -6.3053
       131                         -0.2230157              -6.0686
       132                         -0.2192051              -5.9649
       133                         -0.2183149              -5.9407
       ...                                ...                  ...
       237                          1.1618419              31.6153
      -------------------------------------------------------------
                  HL-Gap            0.0123130 Eh            0.3351 eV

     #   Z          covCN         q      C6AA      α(0)
     1   7 N        0.911    -0.359    29.244     7.821
     2   6 C        1.905     0.100    28.617     8.639
     3   6 C        2.959    -0.056    29.382     8.891
     4   6 C        2.947     0.120    25.359     8.259
     5   6 C        2.984     0.003    27.961     8.674
     6   6 C        2.925    -0.026    28.657     8.779
     7   6 C        2.919    -0.028    28.689     8.783
     8   6 C        2.920    -0.026    28.659     8.779
     9   6 C        2.919    -0.027    28.671     8.781
    10   6 C        2.923    -0.027    28.676     8.782
    11   7 N        1.851    -0.267    27.779     7.812
    12   6 C        2.899     0.157    24.596     8.132
    13   6 C        2.979    -0.007    28.194     8.710
    14   6 C        2.923    -0.036    28.901     8.816
    15   6 C        2.917    -0.031    28.782     8.797
    16   6 C        2.919    -0.036    28.891     8.814
    17   6 C        2.916    -0.031    28.777     8.797
    18   6 C        2.924    -0.036    28.887     8.814
    19   7 N        1.853    -0.230    26.874     7.683
    20   6 C        2.939     0.085    26.103     8.379
    21   6 C        2.978    -0.005    28.139     8.701
    22   6 C        2.920    -0.037    28.915     8.818
    23   6 C        2.918    -0.036    28.903     8.816
    24   6 C        2.915     0.052    26.839     8.495
    25   7 N        2.801    -0.017    21.586     6.900
    26   6 C        3.079     0.045    26.896     8.503
    27   6 C        2.910    -0.042    29.043     8.837
    28   6 C        2.924    -0.029    28.730     8.790
    29   6 C        2.919    -0.035    28.880     8.813
    30   6 C        2.913    -0.028    28.689     8.783
    31   6 C        3.060    -0.012    28.261     8.718
    32   6 C        3.068    -0.013    28.262     8.717
    33   6 C        2.914    -0.032    28.788     8.798
    34   6 C        2.912    -0.045    29.115     8.848
    35   6 C        3.081     0.044    26.926     8.507
    36   6 C        3.051    -0.034    28.801     8.802
    37   6 C        3.062    -0.008    28.156     8.701
    38   6 C        2.912    -0.034    28.841     8.806
    39   6 C        2.919    -0.030    28.740     8.791
    40   6 C        2.922    -0.028    28.699     8.785
    41   6 C        2.909    -0.045    29.119     8.848
    42   6 C        3.082     0.049    26.813     8.489
    43   7 N        2.804    -0.014    21.513     6.889
    44   6 C        2.914     0.061    26.637     8.463
    45   6 C        2.922    -0.038    28.936     8.821
    46   6 C        2.920    -0.025    28.618     8.773
    47   6 C        2.919    -0.027    28.688     8.783
    48   6 C        2.920    -0.025    28.626     8.774
    49   6 C        2.921    -0.038    28.957     8.824
    50   6 C        3.055     0.051    26.806     8.491
    51   6 C        2.916    -0.042    29.037     8.836
    52   6 C        2.925    -0.034    28.838     8.807
    53   1 H        0.926     0.041     2.440     2.443
    54   1 H        0.926     0.046     2.375     2.410
    55   1 H        0.926     0.046     2.365     2.405
    56   1 H        0.926     0.043     2.412     2.429
    57   1 H        0.926     0.028     2.616     2.529
    58   1 H        0.926     0.036     2.505     2.475
    59   1 H        0.926     0.034     2.536     2.490
    60   1 H        0.926     0.033     2.547     2.496
    61   1 H        0.926     0.032     2.553     2.499
    62   1 H        0.926     0.037     2.485     2.465
    63   1 H        0.926     0.031     2.566     2.505
    64   1 H        0.926     0.040     2.452     2.449
    65   1 H        0.926     0.040     2.442     2.444
    66   1 H        0.926     0.042     2.428     2.437
    67   1 H        0.926     0.041     2.430     2.438
    68   1 H        0.926     0.046     2.376     2.411
    69   1 H        0.926     0.053     2.279     2.361
    70   1 H        0.926     0.053     2.286     2.364
    71   1 H        0.926     0.035     2.523     2.484
    72   1 H        0.926     0.031     2.570     2.507
    73   1 H        0.926     0.041     2.433     2.439
    74   1 H        0.926     0.045     2.383     2.414
    75   1 H        0.926     0.047     2.352     2.398
    76   1 H        0.926     0.047     2.355     2.400
    77   1 H        0.926     0.046     2.364     2.404
    78   1 H        0.926     0.048     2.340     2.392
    79   1 H        0.926     0.050     2.322     2.383
    80   1 H        0.926     0.048     2.342     2.393
    81   1 H        0.926     0.046     2.376     2.410

molecular dipole:
                 x           y           z       tot (Debye)
 q only:       -5.187      -0.884      -0.252
   full:       -4.975      -0.836      -0.177      12.830

 projected vibrational frequencies (cm⁻¹)
eigval :       -0.00    -0.00    -0.00    -0.00     0.00     0.00
eigval :        8.35    10.78    14.91    30.90    34.70    39.13
eigval :       40.92    43.01    46.74    54.26    56.48    62.57
eigval :       68.84    84.32    91.95    95.86   113.79   123.53
eigval :      127.50   135.38   150.33   156.16   169.05   184.62
eigval :      212.06   220.76   222.74   228.07   238.10   238.93
eigval :      254.88   260.19   270.93   291.18   310.95   320.40
eigval :      323.95   351.79   368.30   371.29   376.11   377.15
eigval :      383.10   391.98   397.44   406.31   411.62   420.91
eigval :      430.84   440.80   449.57   464.33   471.57   479.25
eigval :      481.59   498.52   515.57   535.56   547.71   550.51
eigval :      557.38   566.62   579.88   582.02   586.06   587.84
eigval :      592.68   594.35   599.08   603.55   615.09   618.01
eigval :      625.45   643.25   650.17   658.73   668.21   672.62
eigval :      676.25   677.27   683.21   687.03   702.95   709.36
eigval :      712.59   750.65   751.53   760.78   768.04   772.16
eigval :      772.44   804.36   814.12   823.95   836.43   840.50
eigval :      850.56   858.64   869.73   870.51   873.42   877.16
eigval :      878.88   884.65   890.35   901.45   902.49   904.61
eigval :      906.24   909.76   912.99   914.79   917.26   921.54
eigval :      922.36   924.23   925.41   927.22   930.62   931.02
eigval :      932.72   963.11   979.57   985.70   998.54  1005.53
eigval :     1037.20  1065.35  1069.34  1071.70  1075.30  1078.86
eigval :     1081.56  1088.16  1097.62  1108.12  1111.60  1115.05
eigval :     1119.83  1133.25  1133.72  1141.51  1162.27  1165.40
eigval :     1172.06  1175.96  1177.70  1178.07  1179.35  1184.64
eigval :     1185.88  1194.14  1197.84  1207.43  1216.61  1227.83
eigval :     1248.04  1258.83  1266.30  1267.56  1269.14  1277.99
eigval :     1279.37  1286.78  1290.47  1296.85  1311.59  1314.77
eigval :     1318.95  1322.41  1330.65  1338.93  1349.38  1354.83
eigval :     1360.05  1367.12  1382.38  1385.81  1392.46  1408.28
eigval :     1416.11  1422.11  1424.81  1431.50  1431.61  1442.52
eigval :     1447.84  1463.38  1464.64  1470.14  1472.12  1476.54
eigval :     1482.22  1509.81  1534.88  1553.29  1555.03  1573.21
eigval :     1574.06  1577.66  1579.96  1580.03  1581.65  1583.60
eigval :     1586.66  1589.80  1591.48  2239.66  3067.47  3069.14
eigval :     3073.97  3077.14  3081.59  3081.63  3082.05  3083.01
eigval :     3083.11  3083.43  3084.01  3087.04  3087.86  3087.93
eigval :     3088.65  3089.10  3090.64  3092.26  3094.57  3095.40
eigval :     3095.73  3099.02  3099.78  3100.27  3101.01  3101.23
eigval :     3110.34  3111.38  3138.86

   temp. (K)  partition function   enthalpy   heat capacity  entropy
                                   cal/mol     cal/K/mol   cal/K/mol   J/K/mol
 298.15  VIB  0.614E+19            23988.838    151.111    149.819
         ROT  0.119E+09              888.752      2.981     39.929
         INT  0.729E+27            24877.590    154.092    189.748
         TR   0.165E+29             1481.254      4.968     45.339
         TOT                       26358.8441   159.0602   235.0878   983.6074

       T/K    H(0)-H(T)+PV         H(T)/Eh          T*S/Eh         G(T)/Eh
   ------------------------------------------------------------------------
    298.15    0.420055E-01    0.648000E+00    0.111698E+00    0.536302E+00
   ------------------------------------------------------------------------

         :::::::::::::::::::::::::::::::::::::::::::::::::::::
         ::                  THERMODYNAMIC                  ::
         :::::::::::::::::::::::::::::::::::::::::::::::::::::
         :: total free energy        -129.534011829405 Eh   ::
         ::.................................................::
         :: total energy             -130.070314281522 Eh   ::
         :: zero point energy           0.605994764659 Eh   ::
         :: G(RRHO) w/o ZPVE           -0.069692312542 Eh   ::
         :: G(RRHO) contrib.            0.536302452117 Eh   ::
         :::::::::::::::::::::::::::::::::::::::::::::::::::::

           -------------------------------------------------
          | TOTAL ENERGY             -130.070314281522 Eh   |
          | TOTAL ENTHALPY           -129.422314025014 Eh   |
          | TOTAL FREE ENERGY        -129.534011829405 Eh   |
          | GRADIENT NORM               0.000039486803 Eh/α |
          | HOMO-LUMO GAP               0.335054494082 eV   |
           -------------------------------------------------

 * finished run on 2025/09/08 at 12:22:36.556
