   * xtb version 6.7.1 (edcfbbe) compiled by 'albert@albert-system' on 2024-07-22

   ID    Z sym.   atoms
    1    7 N      1, 11, 19, 25, 43
    2    6 C      2-10, 12-18, 20-24, 26-42, 44-52
    3    1 H      53-81

          program call               : xtb data2507/toluene/4PyCNICz/4PyCNICz.xyz --gfn 2 --gbsa toluene --ohess vtight --parallel 40 --molden --ceasefiles --namespace data2507/toluene/4PyCNICz/4PyCNICz_toluene_S0_preOpt
      * Solvation model:               GBSA
        Solvent                        toluene
        Solvent mass                       9.2140E+01 g/mol
          :  Hamiltonian                  GFN2-xTB          :
 * total energy  :  -130.1068295 Eh     change       -0.1932818E-08 Eh
 * total energy  :  -130.1259707 Eh     change       -0.1914121E-01 Eh
 * total energy  :  -130.1316778 Eh     change       -0.5707140E-02 Eh
 * total energy  :  -130.1335625 Eh     change       -0.1884711E-02 Eh
 * total energy  :  -130.1351606 Eh     change       -0.1598095E-02 Eh
 * total energy  :  -130.1362946 Eh     change       -0.1133911E-02 Eh
 * total energy  :  -130.1372320 Eh     change       -0.9374384E-03 Eh
 * total energy  :  -130.1380010 Eh     change       -0.7690475E-03 Eh
 * total energy  :  -130.1385969 Eh     change       -0.5959053E-03 Eh
 * total energy  :  -130.1390375 Eh     change       -0.4405575E-03 Eh
 * total energy  :  -130.1423705 Eh     change       -0.1535638E-05 Eh
 * total energy  :  -130.1423717 Eh     change       -0.1190932E-05 Eh
 * total energy  :  -130.1423727 Eh     change       -0.9843276E-06 Eh
 * total energy  :  -130.1423737 Eh     change       -0.9786188E-06 Eh
 * total energy  :  -130.1423745 Eh     change       -0.8783281E-06 Eh
 * total energy  :  -130.1423752 Eh     change       -0.6572673E-06 Eh
 * total energy  :  -130.1423756 Eh     change       -0.3759054E-06 Eh
 * total energy  :  -130.1423758 Eh     change       -0.2706161E-06 Eh
 * total energy  :  -130.1423759 Eh     change       -0.3968722E-08 Eh
   *** GEOMETRY OPTIMIZATION CONVERGED AFTER 94 ITERATIONS ***

 final structure:
================
81
 xtb: 6.7.1 (edcfbbe)
N            2.68299527338585        1.43308681480323        3.09604235652322
C            3.21128163098620        0.89164432513457        2.22935298278323
C            3.82780896786566        0.29472294387510        1.11936070699284
C            5.17175153997030        0.56182475091982        0.77751869485265
C            6.07924162678719        1.30048616708637        1.66050122303381
C            7.01867350128795        2.16451756449487        1.09882281602952
C            7.88611232397565        2.87129242478525        1.90891242083289
C            7.83727546731267        2.71143119392597        3.28503467171271
C            6.92135698254366        1.83747825555181        3.84820385514156
C            6.04379839696884        1.13449874637739        3.04333412065138
N            5.66728687642819        0.15469308949781       -0.38018582695982
C            4.88384451012054       -0.52917580851701       -1.21086650899190
C            5.44137288165860       -0.93307692972725       -2.49864443829718
C            4.68873169153423       -1.71581240888967       -3.37526333749132
C            5.22014246856536       -2.09735247155511       -4.59192116163219
C            6.50167325364020       -1.70321205735506       -4.94676960979117
C            7.25472136338311       -0.92573071106808       -4.07955612305385
C            6.73133605027825       -0.54232342761357       -2.86003185974767
N            3.63029630725687       -0.88434811608552       -0.93765270876196
C            3.09421277560636       -0.49657793294233        0.20787731536795
C            1.71266853856848       -0.90832848955540        0.46790574347712
C            1.29986444848961       -1.30796248586853        1.73758626773313
C           -0.00971738306834       -1.68338111255572        1.96023795674453
C           -0.93253676778694       -1.64965969713734        0.91714892007116
N           -2.26099357037740       -2.03142616806184        1.13416540884885
C           -2.63214800269195       -3.30778664008748        1.52951212056414
C           -1.84925780777548       -4.34842246182256        2.00502259496628
C           -2.47883633118308       -5.53995476770379        2.31515014735892
C           -3.85210943480755       -5.70071417699969        2.14613949801923
C           -4.63107736432217       -4.67598702813032        1.64616020272543
C           -4.02047138767603       -3.46852662269047        1.33049567254655
C           -4.50211815134290       -2.23280525921597        0.78086479878843
C           -5.77559390881289       -1.83706833877683        0.37057570879222
C           -5.95908733432149       -0.57822219363308       -0.15201264246403
C           -4.86925302574607        0.29211460010111       -0.20210670749305
C           -3.57546826187473       -0.04649029886114        0.26785576176931
C           -2.78985628507751        1.15709753436817        0.19244949815849
C           -1.50872057095876        1.52290573344214        0.59756928498219
C           -1.06939097794503        2.80979381691079        0.35963594095044
C           -1.88351241501471        3.74696316602905       -0.27238041489196
C           -3.17656604272335        3.43072026465151       -0.63775975824074
C           -3.63202057003554        2.14603970433582       -0.37516537786004
N           -4.87562817074832        1.60735709002864       -0.61237358998503
C           -5.98047100763354        2.29401715766486       -1.14665389959696
C           -6.40688265088337        3.48678085643174       -0.57095692668148
C           -7.49041847342821        4.16111233858958       -1.10446228123877
C           -8.15934062866796        3.64918463381756       -2.20436134861807
C           -7.73913145746786        2.45853615606521       -2.77438428622528
C           -6.65089604678214        1.78216000730177       -2.25333534671866
C           -3.38886277269495       -1.36718137771546        0.68971984721271
C           -0.51806502410867       -1.26986081066544       -0.35962805934369
C            0.79436940907826       -0.91404590372402       -0.58211431171744
H            7.04353145819964        2.27886170494827        0.02582135566942
H            8.60287751518201        3.54706193446821        1.46693131810466
H            8.51614548684184        3.26264030057626        3.91827300820885
H            6.88924123863477        1.69962550904173        4.91858906860006
H            5.34672220048537        0.43937930566260        3.48860120936029
H            3.69509936938305       -2.01672767563135       -3.08171216004186
H            4.63550933237391       -2.70508381351533       -5.26658496084522
H            6.91393421226730       -2.00312451276560       -5.89887985050793
H            8.25306697574361       -0.62038253505155       -4.35573840749861
H            7.30544734041718        0.05734305089281       -2.17107950103075
H            2.00699827646625       -1.33975073393577        2.55355480630215
H           -0.32914342279700       -1.97801211841112        2.94822618474257
H           -0.78164121783276       -4.24104738164075        2.12350427296849
H           -1.89166869478226       -6.36370422749376        2.69416034215780
H           -4.30844728775393       -6.64559324389641        2.40287441905299
H           -5.69280839941833       -4.80718508204905        1.50025492751740
H           -6.60495815491149       -2.52162550309255        0.45844742172217
H           -6.93073827084083       -0.25176532077603       -0.48860180434746
H           -0.86414609160101        0.82870688030432        1.10989834359150
H           -0.07506520536053        3.09446591809807        0.67335156344303
H           -1.50311692969071        4.73999982667928       -0.46214117999862
H           -3.81633425635484        4.16105870250634       -1.10968054747274
H           -5.89306341304799        3.87183450941249        0.29740613763489
H           -7.81776593690585        5.08654936766681       -0.65397978559125
H           -9.00676801946252        4.17669793985347       -2.61579459394042
H           -8.25601150951555        2.05712733588625       -3.63358322508787
H           -6.30983562297793        0.86152179381281       -2.70316224472522
H           -1.23377908725135       -1.25414649535284       -1.16725367373718
H            1.12433465498560       -0.61974307543345       -1.56627145610479

          :  Hamiltonian                  GFN2-xTB          :
         :: gradient norm              0.000121497966 Eh/a0 ::
         :: HOMO-LUMO gap              1.418868752945 eV    ::
         :: SCC energy              -132.599079579071 Eh    ::
         :: -> dispersion             -0.118289061777 Eh    ::
         :: -> Gsolv                  -0.058141832173 Eh    ::
         :: repulsion energy           2.456703726705 Eh    ::

    * Orbital Energies and Occupations

         #    Occupation            Energy/Eh            Energy/eV
      -------------------------------------------------------------
         1        2.0000           -0.6975107             -18.9802
       ...           ...                  ...                  ...
       109        2.0000           -0.4184705             -11.3872
       110        2.0000           -0.4159184             -11.3177
       111        2.0000           -0.4155217             -11.3069
       112        2.0000           -0.4144591             -11.2780
       113        2.0000           -0.4125851             -11.2270
       114        2.0000           -0.4115619             -11.1992
       115        2.0000           -0.4091812             -11.1344
       116        2.0000           -0.4073587             -11.0848
       117        2.0000           -0.3936452             -10.7116
       118        2.0000           -0.3854986             -10.4900
       119        2.0000           -0.3814390             -10.3795
       120        2.0000           -0.3627830              -9.8718
       121        2.0000           -0.3571170              -9.7176 (HOMO)
       122                         -0.3049746              -8.2988 (LUMO)
       123                         -0.2933028              -7.9812
       124                         -0.2552442              -6.9455
       125                         -0.2487928              -6.7700
       126                         -0.2443583              -6.6493
       127                         -0.2380441              -6.4775
       128                         -0.2370916              -6.4516
       129                         -0.2329579              -6.3391
       130                         -0.2326004              -6.3294
       131                         -0.2313826              -6.2962
       132                         -0.2266935              -6.1686
       ...                                ...                  ...
       237                          1.1486377              31.2560
      -------------------------------------------------------------
                  HL-Gap            0.0521424 Eh            1.4189 eV

     #   Z          covCN         q      C6AA      α(0)
     1   7 N        0.911    -0.282    27.278     7.554
     2   6 C        1.905     0.115    28.269     8.587
     3   6 C        2.963    -0.028    28.708     8.789
     4   6 C        2.967     0.122    25.325     8.255
     5   6 C        2.981    -0.002    28.058     8.689
     6   6 C        2.925    -0.023    28.579     8.767
     7   6 C        2.918    -0.025    28.635     8.775
     8   6 C        2.920    -0.022    28.559     8.764
     9   6 C        2.919    -0.025    28.634     8.775
    10   6 C        2.922    -0.027    28.676     8.782
    11   7 N        1.850    -0.282    28.155     7.864
    12   6 C        2.939     0.193    23.887     8.016
    13   6 C        2.984    -0.004    28.115     8.698
    14   6 C        2.923    -0.026    28.640     8.776
    15   6 C        2.918    -0.026    28.655     8.778
    16   6 C        2.920    -0.021    28.530     8.759
    17   6 C        2.918    -0.026    28.656     8.778
    18   6 C        2.923    -0.025    28.637     8.776
    19   7 N        1.849    -0.282    28.162     7.865
    20   6 C        2.969     0.122    25.313     8.253
    21   6 C        2.981    -0.004    28.113     8.697
    22   6 C        2.922    -0.026    28.660     8.779
    23   6 C        2.920    -0.039    28.972     8.827
    24   6 C        2.915     0.076    26.304     8.410
    25   7 N        2.803    -0.044    22.098     6.982
    26   6 C        3.073     0.044    26.927     8.508
    27   6 C        2.910    -0.052    29.289     8.874
    28   6 C        2.924    -0.036    28.902     8.816
    29   6 C        2.920    -0.042    29.034     8.836
    30   6 C        2.913    -0.036    28.896     8.815
    31   6 C        3.067    -0.015    28.327     8.727
    32   6 C        3.067    -0.028    28.639     8.775
    33   6 C        2.916    -0.037    28.926     8.819
    34   6 C        2.911    -0.061    29.511     8.908
    35   6 C        3.080     0.044    26.919     8.506
    36   6 C        3.052    -0.038    28.900     8.817
    37   6 C        3.061    -0.018    28.397     8.739
    38   6 C        2.913    -0.039    28.978     8.827
    39   6 C        2.919    -0.043    29.059     8.840
    40   6 C        2.923    -0.035    28.883     8.813
    41   6 C        2.910    -0.052    29.292     8.875
    42   6 C        3.080     0.046    26.877     8.499
    43   7 N        2.802    -0.042    22.057     6.975
    44   6 C        2.913     0.064    26.568     8.452
    45   6 C        2.922    -0.041    29.018     8.834
    46   6 C        2.920    -0.028    28.690     8.784
    47   6 C        2.919    -0.032    28.797     8.800
    48   6 C        2.920    -0.028    28.694     8.784
    49   6 C        2.922    -0.041    29.017     8.834
    50   6 C        3.058     0.043    26.982     8.518
    51   6 C        2.921    -0.035    28.869     8.811
    52   6 C        2.924    -0.021    28.531     8.759
    53   1 H        0.926     0.049     2.331     2.388
    54   1 H        0.926     0.050     2.319     2.381
    55   1 H        0.926     0.050     2.316     2.380
    56   1 H        0.926     0.047     2.364     2.404
    57   1 H        0.926     0.030     2.591     2.517
    58   1 H        0.926     0.055     2.263     2.353
    59   1 H        0.926     0.048     2.351     2.398
    60   1 H        0.926     0.049     2.329     2.386
    61   1 H        0.926     0.048     2.348     2.396
    62   1 H        0.926     0.055     2.263     2.352
    63   1 H        0.926     0.036     2.501     2.473
    64   1 H        0.926     0.054     2.266     2.354
    65   1 H        0.926     0.027     2.623     2.533
    66   1 H        0.926     0.030     2.586     2.515
    67   1 H        0.926     0.029     2.599     2.521
    68   1 H        0.926     0.032     2.562     2.503
    69   1 H        0.926     0.035     2.515     2.480
    70   1 H        0.926     0.032     2.553     2.499
    71   1 H        0.926     0.020     2.733     2.585
    72   1 H        0.926     0.018     2.757     2.596
    73   1 H        0.926     0.029     2.599     2.521
    74   1 H        0.926     0.032     2.558     2.501
    75   1 H        0.926     0.041     2.429     2.437
    76   1 H        0.926     0.041     2.434     2.440
    77   1 H        0.926     0.041     2.441     2.443
    78   1 H        0.926     0.042     2.426     2.435
    79   1 H        0.926     0.043     2.412     2.428
    80   1 H        0.926     0.054     2.275     2.358
    81   1 H        0.926     0.054     2.264     2.353

molecular dipole:
                 x           y           z       tot (Debye)
 q only:        0.165       0.078      -1.606
   full:        0.259       0.064      -1.517       3.916

 projected vibrational frequencies (cm⁻¹)
eigval :       -0.00    -0.00    -0.00     0.00     0.00     0.00
eigval :        8.98    12.47    19.11    24.80    29.86    35.02
eigval :       36.96    43.49    47.68    56.82    61.26    63.61
eigval :       67.78    81.38    89.12    99.64   108.13   127.87
eigval :      131.97   136.50   152.48   158.66   163.01   188.43
eigval :      213.01   216.68   225.62   230.94   232.76   238.35
eigval :      254.44   262.04   268.92   292.87   312.56   321.06
eigval :      327.98   359.43   365.47   370.99   375.47   378.04
eigval :      379.23   387.20   394.67   414.38   417.19   420.50
eigval :      441.18   445.25   453.08   470.99   480.07   493.75
eigval :      501.44   519.71   523.53   535.54   553.88   556.25
eigval :      567.29   580.28   584.33   586.84   590.40   593.46
eigval :      601.83   607.93   612.40   621.07   627.79   635.81
eigval :      638.53   646.78   663.59   671.74   674.15   676.23
eigval :      683.13   687.19   698.24   700.98   707.40   721.75
eigval :      744.67   752.99   766.73   767.92   771.22   777.17
eigval :      780.64   818.46   819.29   833.19   842.01   864.95
eigval :      870.00   872.58   873.01   876.59   877.54   879.11
eigval :      880.60   894.38   899.26   902.44   905.80   907.57
eigval :      913.64   915.56   915.83   918.71   926.01   927.63
eigval :      927.77   927.97   931.07   931.78   932.88   934.20
eigval :      934.92   970.51   987.37   988.66  1006.71  1013.02
eigval :     1067.13  1070.34  1071.92  1075.00  1078.25  1081.04
eigval :     1084.46  1102.37  1110.88  1116.68  1119.03  1133.97
eigval :     1139.02  1145.75  1150.56  1170.38  1175.42  1177.42
eigval :     1178.07  1178.37  1179.59  1182.02  1183.64  1186.48
eigval :     1194.31  1196.85  1208.16  1224.04  1239.66  1243.26
eigval :     1252.49  1260.57  1266.95  1268.30  1273.33  1276.99
eigval :     1287.24  1308.59  1311.43  1314.90  1317.80  1320.79
eigval :     1327.54  1344.86  1359.38  1361.42  1362.57  1375.24
eigval :     1379.90  1390.40  1395.10  1403.09  1408.87  1427.23
eigval :     1427.64  1428.95  1432.86  1433.43  1463.93  1464.30
eigval :     1473.34  1477.33  1478.61  1480.52  1482.40  1493.63
eigval :     1502.72  1557.57  1567.41  1573.83  1578.47  1579.56
eigval :     1581.79  1586.82  1589.05  1591.37  1592.53  1592.58
eigval :     1595.73  1604.96  1606.84  2333.71  3069.59  3071.04
eigval :     3076.71  3076.75  3077.42  3077.50  3078.44  3079.41
eigval :     3081.48  3081.86  3083.44  3085.18  3086.71  3087.47
eigval :     3088.11  3090.41  3091.14  3091.96  3092.36  3095.18
eigval :     3095.27  3097.15  3099.37  3099.68  3100.39  3104.34
eigval :     3105.58  3105.82  3128.49

   temp. (K)  partition function   enthalpy   heat capacity  entropy
                                   cal/mol     cal/K/mol   cal/K/mol   J/K/mol
 298.15  VIB  0.498E+19            23780.432    149.261    148.435
         ROT  0.119E+09              888.752      2.981     39.932
         INT  0.592E+27            24669.185    152.242    188.367
         TR   0.165E+29             1481.254      4.968     45.339
         TOT                       26150.4385   157.2101   233.7062   977.8269

       T/K    H(0)-H(T)+PV         H(T)/Eh          T*S/Eh         G(T)/Eh
   ------------------------------------------------------------------------
    298.15    0.416734E-01    0.651699E+00    0.111041E+00    0.540657E+00
   ------------------------------------------------------------------------

         :::::::::::::::::::::::::::::::::::::::::::::::::::::
         ::                  THERMODYNAMIC                  ::
         :::::::::::::::::::::::::::::::::::::::::::::::::::::
         :: total free energy        -129.601718487378 Eh   ::
         ::.................................................::
         :: total energy             -130.142375856220 Eh   ::
         :: zero point energy           0.610025369915 Eh   ::
         :: G(RRHO) w/o ZPVE           -0.069368001073 Eh   ::
         :: G(RRHO) contrib.            0.540657368841 Eh   ::
         :::::::::::::::::::::::::::::::::::::::::::::::::::::

           -------------------------------------------------
          | TOTAL ENERGY             -130.142375856220 Eh   |
          | TOTAL ENTHALPY           -129.490677110000 Eh   |
          | TOTAL FREE ENERGY        -129.601718487378 Eh   |
          | GRADIENT NORM               0.000121600867 Eh/α |
          | HOMO-LUMO GAP               1.418867715844 eV   |
           -------------------------------------------------

 * finished run on 2025/09/08 at 12:06:57.667
