   * xtb version 6.7.1 (edcfbbe) compiled by 'albert@albert-system' on 2024-07-22

   ID    Z sym.   atoms
    1    7 N      1, 11, 19, 25, 43
    2    6 C      2-10, 12-18, 20-24, 26-42, 44-52
    3    1 H      53-81

          program call               : xtb data2507/toluene/4PyCNICz/4PyCNICz_toluene_S0_crest.xyz --gfn 2 --gbsa toluene --ohess vtight --parallel 40 --molden --ceasefiles --namespace data2507/toluene/4PyCNICz/4PyCNICz_toluene_S0_finalOpt
      * Solvation model:               GBSA
        Solvent                        toluene
        Solvent mass                       9.2140E+01 g/mol
          :  Hamiltonian                  GFN2-xTB          :
 * total energy  :  -130.1415162 Eh     change       -0.2871332E-08 Eh
 * total energy  :  -130.1415727 Eh     change       -0.5657054E-04 Eh
 * total energy  :  -130.1416098 Eh     change       -0.3708153E-04 Eh
 * total energy  :  -130.1416357 Eh     change       -0.2584369E-04 Eh
 * total energy  :  -130.1416674 Eh     change       -0.3172376E-04 Eh
 * total energy  :  -130.1417210 Eh     change       -0.5362735E-04 Eh
 * total energy  :  -130.1417576 Eh     change       -0.3662070E-04 Eh
 * total energy  :  -130.1417443 Eh     change        0.1332675E-04 Eh
 * total energy  :  -130.1417757 Eh     change       -0.3143055E-04 Eh
 * total energy  :  -130.1418031 Eh     change       -0.2736684E-04 Eh
 * total energy  :  -130.1421111 Eh     change       -0.1093015E-05 Eh
 * total energy  :  -130.1421122 Eh     change       -0.1108218E-05 Eh
 * total energy  :  -130.1421134 Eh     change       -0.1186990E-05 Eh
 * total energy  :  -130.1421146 Eh     change       -0.1213199E-05 Eh
 * total energy  :  -130.1421158 Eh     change       -0.1196751E-05 Eh
 * total energy  :  -130.1421169 Eh     change       -0.1056314E-05 Eh
 * total energy  :  -130.1421177 Eh     change       -0.8862582E-06 Eh
 * total energy  :  -130.1421184 Eh     change       -0.6903910E-06 Eh
 * total energy  :  -130.1421184 Eh     change       -0.5538766E-08 Eh
   *** GEOMETRY OPTIMIZATION CONVERGED AFTER 68 ITERATIONS ***

 final structure:
================
81
 xtb: 6.7.1 (edcfbbe)
N            1.72669566909268        3.02878307463280        0.58256762195317
C            2.48686078212738        2.16599981088947        0.54529254206392
C            3.44504659241986        1.14793092724109        0.42537945277895
C            4.82462470686201        1.45160093467170        0.48128545842668
C            5.32395000389856        2.77564782012450        0.86724098767017
C            6.43015802369238        3.30265642065040        0.20218721659715
C            6.91965043179965        4.54835573864286        0.54454384363732
C            6.32307169395287        5.27244839994829        1.56493496674519
C            5.23890514050459        4.74343152875704        2.24639963982636
C            4.73813264295434        3.50142635925550        1.90175515154420
N            5.73427686877478        0.54440421399997        0.16788099808483
C            5.32740574842703       -0.67390330210715       -0.18371758424192
C            6.34472269073778       -1.64678894176291       -0.57356433544049
C            5.97564171235118       -2.94064433362041       -0.94367448540206
C            6.94062982301959       -3.85609933645888       -1.31625877806778
C            8.27903812402058       -3.49267144731118       -1.32330315705342
C            8.65260941065079       -2.20921383191608       -0.95356031864418
C            7.69322879449586       -1.28824093293813       -0.57970225393257
N            4.05756747949129       -1.06570834639991       -0.18688861218147
C            3.10962142591045       -0.18999325948552        0.11744102924950
C            1.73843933380936       -0.69970048056777        0.10243844583194
C            0.74378834542610       -0.18929711025633        0.93673404273775
C           -0.52860030251974       -0.71938233976890        0.91093874652575
C           -0.83565206699420       -1.77557725968744        0.05282196997134
N           -2.11627283052582       -2.33610615354074        0.06866963429125
C           -2.36109781408387       -3.64880711694028        0.45011793018539
C           -1.47670697353371       -4.70521027190351        0.60265386375246
C           -1.98927784538361       -5.92304077697598        1.01165874974577
C           -3.34650194639690       -6.08729883166647        1.27682084106761
C           -4.22630701351163       -5.02968905611747        1.15548976837494
C           -3.73384308695888       -3.79769832541723        0.74356389558877
C           -4.33993039547378       -2.51199115529664        0.53964715523035
C           -5.64682572171720       -2.06362410049476        0.73197696925564
C           -5.95886458596913       -0.74930415507683        0.47179832312323
C           -4.96803915260204        0.08390570320571       -0.04909598903668
C           -3.63207785741716       -0.33577733086004       -0.27201638123523
C           -2.95300388512186        0.77826462495410       -0.87896272986658
C           -1.70277054674103        0.96464048952508       -1.46226567245103
C           -1.39876636653446        2.18823249883871       -2.02381877381066
C           -2.32208409107718        3.23076429157282       -2.03093241394331
C           -3.58433710102091        3.06424968231656       -1.49786330237004
C           -3.89342971817976        1.83680913365519       -0.92857974219288
N           -5.09693666807731        1.40419957897229       -0.41920124555635
C           -6.27211926628730        2.17372058851435       -0.34772680311628
C           -6.26287202019559        3.39137070665750        0.32548352842673
C           -7.41496765016110        4.15456656915459        0.38618698467543
C           -8.58087672746813        3.70749727763000       -0.21384229220473
C           -8.59127889876136        2.49407335240081       -0.88222051312106
C           -7.44136636958604        1.72880089462662       -0.95650045319085
C           -3.31372528412006       -1.64381562974555        0.10502583136046
C            0.15683958532392       -2.29635440924623       -0.77688793005392
C            1.42767355979975       -1.76422297439706       -0.74730994029938
H            6.88364831501244        2.72703879532610       -0.59051806330065
H            7.76889076484316        4.95490897403090        0.01601606230736
H            6.70583973726182        6.24565093375055        1.83336692575320
H            4.78041436511799        5.29762560795236        3.05163141620335
H            3.90654031967289        3.08554257594349        2.45217932188989
H            4.93071553013689       -3.20809515202892       -0.92777146204504
H            6.65081848135439       -4.85651486340671       -1.60179414083381
H            9.03145168908778       -4.21029256590039       -1.61531929212454
H            9.69524200092644       -1.92792075619073       -0.95664195120650
H            7.96641788554653       -0.28700339491146       -0.28495648092146
H            0.97033666352903        0.60424822492205        1.63225932769070
H           -1.29382483910522       -0.32564091562194        1.56220809084014
H           -0.41987224871370       -4.58666572478006        0.41880176145259
H           -1.32079845695000       -6.76309529715700        1.13119254530844
H           -3.71042555862656       -7.05486247241595        1.59035202899491
H           -5.27564488780443       -5.15301425197084        1.37769851285617
H           -6.40059813907863       -2.74499639831143        1.09506224529982
H           -6.95184564199484       -0.36817630938841        0.65182674715495
H           -0.98260719577674        0.16462865908082       -1.50343512213812
H           -0.42821137603589        2.33805448204748       -2.47413786862902
H           -2.05220994566287        4.17572016423690       -2.47896349039583
H           -4.31639888514647        3.85662043523786       -1.54053780572035
H           -5.35431148578261        3.72777852450053        0.80295429414883
H           -7.40283008720525        5.09918963260781        0.90975179693438
H           -9.47924645521728        4.30413673937508       -0.16208106061850
H           -9.49670185906304        2.14449827477784       -1.35617785834614
H           -7.43876076629615        0.79187620576388       -1.49353045428596
H           -0.08267170848973       -3.10072377852296       -1.45550188863114
H            2.19963497454586       -2.15198768675970       -1.39360786423238

          :  Hamiltonian                  GFN2-xTB          :
         :: gradient norm              0.000092673043 Eh/a0 ::
         :: HOMO-LUMO gap              1.420146391484 eV    ::
         :: SCC energy              -132.598356116401 Eh    ::
         :: -> dispersion             -0.118635967328 Eh    ::
         :: -> Gsolv                  -0.057865730623 Eh    ::
         :: repulsion energy           2.456237673060 Eh    ::

    * Orbital Energies and Occupations

         #    Occupation            Energy/Eh            Energy/eV
      -------------------------------------------------------------
         1        2.0000           -0.6963784             -18.9494
       ...           ...                  ...                  ...
       109        2.0000           -0.4178576             -11.3705
       110        2.0000           -0.4157622             -11.3135
       111        2.0000           -0.4144648             -11.2782
       112        2.0000           -0.4134480             -11.2505
       113        2.0000           -0.4125043             -11.2248
       114        2.0000           -0.4107856             -11.1780
       115        2.0000           -0.4090092             -11.1297
       116        2.0000           -0.4067702             -11.0688
       117        2.0000           -0.3935743             -10.7097
       118        2.0000           -0.3851768             -10.4812
       119        2.0000           -0.3808017             -10.3621
       120        2.0000           -0.3628751              -9.8743
       121        2.0000           -0.3568879              -9.7114 (HOMO)
       122                         -0.3046985              -8.2913 (LUMO)
       123                         -0.2937037              -7.9921
       124                         -0.2549883              -6.9386
       125                         -0.2477883              -6.7427
       126                         -0.2435883              -6.6284
       127                         -0.2373643              -6.4590
       128                         -0.2367900              -6.4434
       129                         -0.2328341              -6.3357
       130                         -0.2320095              -6.3133
       131                         -0.2309674              -6.2849
       132                         -0.2245817              -6.1112
       ...                                ...                  ...
       237                          1.1491327              31.2695
      -------------------------------------------------------------
                  HL-Gap            0.0521894 Eh            1.4201 eV

     #   Z          covCN         q      C6AA      α(0)
     1   7 N        0.911    -0.283    27.293     7.556
     2   6 C        1.905     0.115    28.264     8.586
     3   6 C        2.962    -0.028    28.709     8.789
     4   6 C        2.970     0.122    25.316     8.253
     5   6 C        2.982    -0.002    28.061     8.689
     6   6 C        2.925    -0.023    28.587     8.768
     7   6 C        2.918    -0.026    28.640     8.776
     8   6 C        2.920    -0.023    28.569     8.765
     9   6 C        2.919    -0.025    28.635     8.775
    10   6 C        2.922    -0.027    28.672     8.781
    11   7 N        1.849    -0.283    28.189     7.869
    12   6 C        2.937     0.193    23.893     8.017
    13   6 C        2.984    -0.004    28.118     8.698
    14   6 C        2.923    -0.026    28.644     8.777
    15   6 C        2.918    -0.026    28.659     8.779
    16   6 C        2.920    -0.021    28.535     8.760
    17   6 C        2.918    -0.026    28.657     8.778
    18   6 C        2.923    -0.026    28.641     8.776
    19   7 N        1.851    -0.283    28.180     7.868
    20   6 C        2.963     0.120    25.361     8.260
    21   6 C        2.981    -0.005    28.137     8.701
    22   6 C        2.921    -0.026    28.640     8.776
    23   6 C        2.921    -0.035    28.873     8.812
    24   6 C        2.915     0.077    26.290     8.408
    25   7 N        2.801    -0.045    22.111     6.984
    26   6 C        3.072     0.045    26.928     8.508
    27   6 C        2.910    -0.052    29.295     8.875
    28   6 C        2.924    -0.036    28.900     8.816
    29   6 C        2.920    -0.041    29.028     8.835
    30   6 C        2.913    -0.036    28.898     8.815
    31   6 C        3.066    -0.015    28.320     8.726
    32   6 C        3.066    -0.028    28.639     8.775
    33   6 C        2.916    -0.038    28.934     8.821
    34   6 C        2.911    -0.061    29.517     8.909
    35   6 C        3.079     0.045    26.918     8.506
    36   6 C        3.054    -0.038    28.888     8.815
    37   6 C        3.061    -0.018    28.400     8.739
    38   6 C        2.913    -0.039    28.974     8.827
    39   6 C        2.919    -0.041    29.014     8.833
    40   6 C        2.923    -0.034    28.845     8.808
    41   6 C        2.910    -0.052    29.282     8.873
    42   6 C        3.080     0.047    26.871     8.498
    43   7 N        2.803    -0.043    22.071     6.978
    44   6 C        2.913     0.064    26.567     8.452
    45   6 C        2.922    -0.041    29.017     8.834
    46   6 C        2.920    -0.028    28.691     8.784
    47   6 C        2.919    -0.032    28.800     8.800
    48   6 C        2.920    -0.028    28.694     8.784
    49   6 C        2.922    -0.041    29.020     8.834
    50   6 C        3.058     0.043    26.989     8.520
    51   6 C        2.919    -0.040    28.999     8.831
    52   6 C        2.926    -0.023    28.570     8.766
    53   1 H        0.926     0.048     2.347     2.396
    54   1 H        0.926     0.050     2.324     2.384
    55   1 H        0.926     0.050     2.320     2.382
    56   1 H        0.926     0.046     2.367     2.406
    57   1 H        0.926     0.029     2.602     2.522
    58   1 H        0.926     0.054     2.271     2.357
    59   1 H        0.926     0.047     2.352     2.399
    60   1 H        0.926     0.049     2.334     2.389
    61   1 H        0.926     0.047     2.355     2.400
    62   1 H        0.926     0.054     2.265     2.353
    63   1 H        0.926     0.037     2.484     2.465
    64   1 H        0.926     0.050     2.325     2.384
    65   1 H        0.926     0.030     2.580     2.512
    66   1 H        0.926     0.031     2.570     2.507
    67   1 H        0.926     0.029     2.596     2.520
    68   1 H        0.926     0.032     2.564     2.504
    69   1 H        0.926     0.035     2.516     2.480
    70   1 H        0.926     0.033     2.547     2.496
    71   1 H        0.926     0.020     2.727     2.582
    72   1 H        0.926     0.020     2.734     2.586
    73   1 H        0.926     0.030     2.587     2.515
    74   1 H        0.926     0.032     2.565     2.504
    75   1 H        0.926     0.041     2.429     2.437
    76   1 H        0.926     0.041     2.433     2.439
    77   1 H        0.926     0.041     2.441     2.443
    78   1 H        0.926     0.042     2.429     2.437
    79   1 H        0.926     0.043     2.415     2.430
    80   1 H        0.926     0.058     2.225     2.333
    81   1 H        0.926     0.059     2.215     2.327

molecular dipole:
                 x           y           z       tot (Debye)
 q only:        0.370      -0.387      -0.192
   full:        0.396      -0.309      -0.085       1.295

 projected vibrational frequencies (cm⁻¹)
eigval :       -0.00    -0.00     0.00     0.00     0.00     0.00
eigval :        7.47    10.24    18.14    31.83    35.91    37.58
eigval :       38.33    41.25    47.39    54.86    57.74    63.09
eigval :       71.74    85.26    87.52    95.00   113.30   124.04
eigval :      127.99   134.81   150.89   157.24   171.45   184.76
eigval :      210.96   220.71   224.22   229.06   230.83   242.14
eigval :      258.22   262.87   269.90   294.94   306.51   319.59
eigval :      331.17   357.40   364.49   371.13   377.30   380.77
eigval :      384.80   391.07   396.24   410.29   414.16   424.28
eigval :      434.47   444.45   454.27   471.41   482.78   491.77
eigval :      501.92   518.97   524.24   536.28   554.44   556.30
eigval :      567.80   580.71   584.31   586.49   589.97   595.29
eigval :      601.32   606.00   614.44   620.04   626.21   635.47
eigval :      637.61   648.10   664.42   671.49   676.27   677.19
eigval :      683.93   686.59   698.39   702.47   707.33   720.83
eigval :      745.15   754.81   766.33   769.45   772.86   775.59
eigval :      780.46   815.29   819.56   832.27   841.54   863.91
eigval :      867.14   873.83   874.56   876.87   878.94   879.29
eigval :      880.12   891.99   900.15   901.94   906.21   907.76
eigval :      914.81   915.29   916.16   922.45   923.27   926.64
eigval :      929.50   930.44   931.08   931.94   933.37   933.92
eigval :      936.27   970.27   987.41   988.75  1006.33  1011.89
eigval :     1065.65  1070.71  1072.85  1074.59  1078.20  1081.18
eigval :     1084.70  1101.67  1109.60  1115.42  1118.93  1130.92
eigval :     1138.71  1145.20  1149.70  1170.65  1173.57  1176.23
eigval :     1177.35  1177.92  1178.77  1180.62  1183.48  1185.19
eigval :     1194.03  1196.09  1207.03  1224.09  1239.65  1244.61
eigval :     1252.05  1258.35  1263.19  1267.07  1273.18  1277.12
eigval :     1285.77  1307.91  1310.25  1314.92  1319.15  1320.16
eigval :     1327.45  1344.22  1358.00  1360.73  1362.33  1374.98
eigval :     1378.40  1384.51  1394.27  1403.86  1409.93  1425.24
eigval :     1427.17  1428.13  1432.63  1433.67  1463.62  1464.20
eigval :     1473.38  1475.76  1478.24  1480.75  1482.52  1491.32
eigval :     1500.15  1554.06  1567.73  1574.70  1578.62  1579.62
eigval :     1581.96  1584.62  1588.03  1591.30  1592.87  1593.05
eigval :     1596.52  1604.71  1607.79  2331.90  3071.29  3071.78
eigval :     3076.64  3076.96  3078.11  3078.20  3078.56  3079.17
eigval :     3081.64  3083.09  3086.65  3087.13  3087.15  3088.89
eigval :     3090.32  3090.83  3091.39  3092.38  3092.49  3093.75
eigval :     3094.20  3097.47  3099.50  3100.37  3102.81  3104.81
eigval :     3105.61  3106.23  3122.43

   temp. (K)  partition function   enthalpy   heat capacity  entropy
                                   cal/mol     cal/K/mol   cal/K/mol   J/K/mol
 298.15  VIB  0.510E+19            23768.377    149.403    148.693
         ROT  0.118E+09              888.752      2.981     39.913
         INT  0.601E+27            24657.129    152.384    188.606
         TR   0.165E+29             1481.254      4.968     45.339
         TOT                       26138.3832   157.3518   233.9456   978.8284

       T/K    H(0)-H(T)+PV         H(T)/Eh          T*S/Eh         G(T)/Eh
   ------------------------------------------------------------------------
    298.15    0.416542E-01    0.651633E+00    0.111155E+00    0.540478E+00
   ------------------------------------------------------------------------

         :::::::::::::::::::::::::::::::::::::::::::::::::::::
         ::                  THERMODYNAMIC                  ::
         :::::::::::::::::::::::::::::::::::::::::::::::::::::
         :: total free energy        -129.601640070253 Eh   ::
         ::.................................................::
         :: total energy             -130.142118442927 Eh   ::
         :: zero point energy           0.609979308632 Eh   ::
         :: G(RRHO) w/o ZPVE           -0.069500935959 Eh   ::
         :: G(RRHO) contrib.            0.540478372673 Eh   ::
         :::::::::::::::::::::::::::::::::::::::::::::::::::::

           -------------------------------------------------
          | TOTAL ENERGY             -130.142118442927 Eh   |
          | TOTAL ENTHALPY           -129.490484969230 Eh   |
          | TOTAL FREE ENERGY        -129.601640070253 Eh   |
          | GRADIENT NORM               0.000092583835 Eh/α |
          | HOMO-LUMO GAP               1.420145967058 eV   |
           -------------------------------------------------

 * finished run on 2025/09/08 at 12:13:06.731
