   * xtb version 6.7.1 (edcfbbe) compiled by 'albert@albert-system' on 2024-07-22

   ID    Z sym.   atoms
    1    7 N      1, 11, 19, 25, 43
    2    6 C      2-10, 12-18, 20-24, 26-42, 44-52
    3    1 H      53-81

          program call               : xtb data2507/toluene/4PyCNICz/4PyCNICz_toluene_S0_finalOpt.xtbopt.xyz --gfn 2 --uhf 2 --gbsa toluene --ohess vtight --parallel 40 --molden --ceasefiles --namespace data2507/toluene/4PyCNICz/4PyCNICz_toluene_T1_preOpt
      * Solvation model:               GBSA
        Solvent                        toluene
        Solvent mass                       9.2140E+01 g/mol
          :  Hamiltonian                  GFN2-xTB          :
 * total energy  :  -130.0649091 Eh     change       -0.1648525E-07 Eh
 * total energy  :  -130.0678697 Eh     change       -0.2960564E-02 Eh
 * total energy  :  -130.0695741 Eh     change       -0.1704388E-02 Eh
 * total energy  :  -130.0697196 Eh     change       -0.1454834E-03 Eh
 * total energy  :  -130.0698056 Eh     change       -0.8604274E-04 Eh
 * total energy  :  -130.0698311 Eh     change       -0.2551095E-04 Eh
 * total energy  :  -130.0698611 Eh     change       -0.3000970E-04 Eh
 * total energy  :  -130.0698894 Eh     change       -0.2822927E-04 Eh
 * total energy  :  -130.0699120 Eh     change       -0.2265380E-04 Eh
 * total energy  :  -130.0699339 Eh     change       -0.2185945E-04 Eh
 * total energy  :  -130.0702016 Eh     change       -0.7386903E-06 Eh
 * total energy  :  -130.0702024 Eh     change       -0.7112435E-06 Eh
 * total energy  :  -130.0702031 Eh     change       -0.7059530E-06 Eh
 * total energy  :  -130.0702038 Eh     change       -0.7018540E-06 Eh
 * total energy  :  -130.0702045 Eh     change       -0.6978290E-06 Eh
 * total energy  :  -130.0702052 Eh     change       -0.6932905E-06 Eh
 * total energy  :  -130.0702058 Eh     change       -0.6871974E-06 Eh
 * total energy  :  -130.0702065 Eh     change       -0.6809379E-06 Eh
 * total energy  :  -130.0702065 Eh     change       -0.6224241E-08 Eh
   *** GEOMETRY OPTIMIZATION CONVERGED AFTER 122 ITERATIONS ***

 final structure:
================
81
 xtb: 6.7.1 (edcfbbe)
N            1.79723793452086        3.09632120403528        0.82896281788429
C            2.54318850154999        2.21680794151166        0.69510889606275
C            3.45462408743815        1.20065712798173        0.49221465658588
C            4.84784252398868        1.44953242615655        0.51573960459263
C            5.37241563015133        2.74744641627282        0.97736287721309
C            6.41611454938422        3.34776570690992        0.27756348137954
C            6.92334996882944        4.56419687650442        0.69403707142167
C            6.40298625917955        5.18602741649000        1.81760363296837
C            5.37739166437441        4.58372017447840        2.52755418801487
C            4.86138404330734        3.36950432313616        2.11189402535412
N            5.72534959889871        0.56916794867251        0.12098133024157
C            5.32531770951515       -0.65707460667623       -0.32733238599983
C            6.31374362920296       -1.60082699380466       -0.76923226357630
C            5.93953254767458       -2.87710992114789       -1.21342202117795
C            6.89432357390584       -3.77701630796852       -1.63396190489231
C            8.23922188033538       -3.43012411054211       -1.62354816871390
C            8.62151467591033       -2.16966146354185       -1.18422667816666
C            7.67410339981109       -1.26253260826788       -0.76054164183884
N            4.04282634583163       -0.96886961299381       -0.32434933799019
C            3.09392879096492       -0.15386179929260        0.08232678154136
C            1.74658571603509       -0.66634431821154        0.10891610530572
C            0.74369862706895       -0.12942528190400        0.93207571376393
C           -0.52207774208738       -0.66730212418501        0.94228211822515
C           -0.83561701968318       -1.75439407992032        0.12419648582196
N           -2.12186126305480       -2.31614047290536        0.17292068827868
C           -2.35892012841009       -3.62150946584539        0.58828550652059
C           -1.46004606961471       -4.64847806932656        0.81928351112448
C           -1.96896542683229       -5.86810192490646        1.24058586085115
C           -3.33199309132720       -6.05478860708407        1.44139091773168
C           -4.23016310787022       -5.02037356381493        1.24021220458228
C           -3.74164081026074       -3.79301506259167        0.81393297757924
C           -4.35931532464494       -2.52591400647837        0.53862771383698
C           -5.67242208071417       -2.09242148318631        0.67346616161147
C           -5.98853680518876       -0.78094605216471        0.37821270261617
C           -4.98720075181354        0.05424342654309       -0.11983091726451
C           -3.64027713130841       -0.35132497419124       -0.29535437981637
C           -2.95590409759135        0.76578465294726       -0.88853437662758
C           -1.68888628864039        0.96718797031155       -1.42846248660912
C           -1.38119244978041        2.19804771549792       -1.97238572892981
C           -2.31862001128468        3.23153342060304       -2.01560169215414
C           -3.59641011900333        3.04986994251351       -1.53255929699042
C           -3.90982635993969        1.81526734123729       -0.97270857543277
N           -5.11953807530969        1.37013449930219       -0.50605420814849
C           -6.30152585450818        2.13103245430514       -0.44727313378207
C           -6.30858994008837        3.34386224730497        0.23540996779967
C           -7.46941513951677        4.09378604685814        0.29168363407062
C           -8.62427420958555        3.64022779759120       -0.32552379613261
C           -8.61619846673990        2.43311517199044       -1.00582347949339
C           -7.45914359495875        1.67799722588997       -1.07278549934015
C           -3.31473174216258       -1.64973234372574        0.11666113803733
C            0.15383607645596       -2.30827330927111       -0.69166839678329
C            1.42037879835130       -1.77664441731898       -0.69328709333149
H            6.81233316742399        2.85447113026251       -0.59775237258186
H            7.72697694560019        5.02692532875943        0.14037261854960
H            6.79852347862793        6.13688119567708        2.14238332138182
H            4.97502821492614        5.05898209452779        3.40985580230263
H            4.06987035233190        2.89797576781866        2.67648719550215
H            4.89185577395762       -3.13809254187629       -1.21257247189830
H            6.59507535553237       -4.75893730744963       -1.97230466553515
H            8.98467404882525       -4.13841979720862       -1.95361262874204
H            9.66763270736082       -1.89834446001379       -1.17271715952424
H            7.95912247351761       -0.28096923888617       -0.41187764837872
H            0.96890463916407        0.69903974618948        1.58471867014034
H           -1.28030192063313       -0.25407880947443        1.59045229720998
H           -0.39876918653601       -4.50829115698340        0.68498801393113
H           -1.28869072193867       -6.68716794501011        1.41999209064108
H           -3.69161580191386       -7.01950262813263        1.76645265479411
H           -5.28580826425858       -5.16244491811150        1.41273998470291
H           -6.43207229153227       -2.77279968357535        1.02360208069345
H           -6.99039427196662       -0.40828132272129        0.51886460523656
H           -0.95689303607276        0.17825975628140       -1.44361309949934
H           -0.39524789907209        2.36262068815916       -2.38093502045985
H           -2.04066262922096        4.17929312407263       -2.45120109576831
H           -4.33701580630133        3.83161374564710       -1.60129962226116
H           -5.40940583385572        3.68294175246146        0.72801552843124
H           -7.47268172041403        5.03257616100122        0.82505555047524
H           -9.52873452690848        4.22747946687507       -0.27763027414107
H           -9.51260915496003        2.08043126285588       -1.49357114742938
H           -7.44091594008202        0.74812645031182       -1.62119145705741
H           -0.09017715193287       -3.13823170045821       -1.33815708222856
H            2.18744326679671       -2.19093428429553       -1.32920232463965

          :  Hamiltonian                  GFN2-xTB          :
         :: gradient norm              0.000070586694 Eh/a0 ::
         :: HOMO-LUMO gap              0.334163338208 eV    ::
         :: SCC energy              -132.517141221559 Eh    ::
         :: -> dispersion             -0.118274963811 Eh    ::
         :: -> Gsolv                  -0.064740310551 Eh    ::
         :: repulsion energy           2.446934689746 Eh    ::

    * Orbital Energies and Occupations

         #    Occupation            Energy/Eh            Energy/eV
      -------------------------------------------------------------
         1        2.0000           -0.6934380             -18.8694
       ...           ...                  ...                  ...
       110        2.0000           -0.4161963             -11.3253
       111        2.0000           -0.4131411             -11.2421
       112        2.0000           -0.4097465             -11.1498
       113        2.0000           -0.4075860             -11.0910
       114        2.0000           -0.4045026             -11.0071
       115        2.0000           -0.4019133             -10.9366
       116        2.0000           -0.4003496             -10.8941
       117        2.0000           -0.3972723             -10.8103
       118        2.0000           -0.3860706             -10.5055
       119        1.9923           -0.3745014             -10.1907
       120        1.5603           -0.3701146             -10.0713
       121        1.4474           -0.3696834             -10.0596
       122        0.9984           -0.2900786              -7.8934 (HOMO)
       123        0.0016           -0.2777983              -7.5593 (LUMO)
       124                         -0.2607887              -7.0964
       125                         -0.2509990              -6.8300
       126                         -0.2437642              -6.6332
       127                         -0.2415897              -6.5740
       128                         -0.2384156              -6.4876
       129                         -0.2325724              -6.3286
       130                         -0.2317247              -6.3056
       131                         -0.2229597              -6.0670
       132                         -0.2194038              -5.9703
       133                         -0.2180276              -5.9328
       ...                                ...                  ...
       237                          1.1625124              31.6336
      -------------------------------------------------------------
                  HL-Gap            0.0122803 Eh            0.3342 eV

     #   Z          covCN         q      C6AA      α(0)
     1   7 N        0.911    -0.359    29.241     7.821
     2   6 C        1.904     0.100    28.623     8.640
     3   6 C        2.959    -0.056    29.388     8.892
     4   6 C        2.947     0.120    25.359     8.259
     5   6 C        2.983     0.003    27.960     8.674
     6   6 C        2.925    -0.026    28.658     8.779
     7   6 C        2.919    -0.028    28.689     8.783
     8   6 C        2.920    -0.026    28.661     8.779
     9   6 C        2.919    -0.027    28.671     8.781
    10   6 C        2.922    -0.027    28.676     8.782
    11   7 N        1.850    -0.266    27.764     7.809
    12   6 C        2.899     0.157    24.611     8.134
    13   6 C        2.979    -0.007    28.196     8.710
    14   6 C        2.923    -0.036    28.908     8.817
    15   6 C        2.916    -0.031    28.784     8.798
    16   6 C        2.919    -0.036    28.898     8.815
    17   6 C        2.916    -0.031    28.779     8.797
    18   6 C        2.924    -0.036    28.893     8.815
    19   7 N        1.853    -0.230    26.872     7.683
    20   6 C        2.939     0.086    26.088     8.377
    21   6 C        2.978    -0.005    28.131     8.700
    22   6 C        2.920    -0.036    28.898     8.815
    23   6 C        2.918    -0.036    28.904     8.816
    24   6 C        2.915     0.052    26.827     8.493
    25   7 N        2.801    -0.017    21.587     6.901
    26   6 C        3.078     0.045    26.899     8.503
    27   6 C        2.910    -0.042    29.047     8.837
    28   6 C        2.924    -0.029    28.731     8.790
    29   6 C        2.919    -0.035    28.879     8.812
    30   6 C        2.913    -0.028    28.691     8.783
    31   6 C        3.060    -0.012    28.259     8.717
    32   6 C        3.068    -0.013    28.263     8.717
    33   6 C        2.914    -0.032    28.789     8.798
    34   6 C        2.912    -0.045    29.117     8.848
    35   6 C        3.080     0.044    26.927     8.507
    36   6 C        3.051    -0.034    28.800     8.801
    37   6 C        3.062    -0.008    28.158     8.702
    38   6 C        2.912    -0.033    28.834     8.805
    39   6 C        2.919    -0.029    28.735     8.791
    40   6 C        2.922    -0.028    28.696     8.785
    41   6 C        2.909    -0.045    29.117     8.848
    42   6 C        3.082     0.049    26.814     8.489
    43   7 N        2.804    -0.014    21.514     6.889
    44   6 C        2.914     0.061    26.636     8.463
    45   6 C        2.922    -0.038    28.937     8.821
    46   6 C        2.920    -0.025    28.618     8.773
    47   6 C        2.919    -0.028    28.688     8.783
    48   6 C        2.920    -0.025    28.626     8.774
    49   6 C        2.921    -0.039    28.958     8.825
    50   6 C        3.056     0.051    26.809     8.491
    51   6 C        2.916    -0.042    29.040     8.837
    52   6 C        2.925    -0.033    28.831     8.805
    53   1 H        0.926     0.040     2.443     2.444
    54   1 H        0.926     0.046     2.376     2.410
    55   1 H        0.926     0.046     2.366     2.405
    56   1 H        0.926     0.043     2.411     2.428
    57   1 H        0.926     0.028     2.614     2.529
    58   1 H        0.926     0.036     2.506     2.475
    59   1 H        0.926     0.033     2.540     2.492
    60   1 H        0.926     0.032     2.552     2.498
    61   1 H        0.926     0.032     2.557     2.501
    62   1 H        0.926     0.037     2.488     2.467
    63   1 H        0.926     0.031     2.569     2.506
    64   1 H        0.926     0.040     2.447     2.446
    65   1 H        0.926     0.041     2.437     2.441
    66   1 H        0.926     0.042     2.427     2.436
    67   1 H        0.926     0.041     2.430     2.438
    68   1 H        0.926     0.046     2.376     2.411
    69   1 H        0.926     0.053     2.279     2.361
    70   1 H        0.926     0.053     2.286     2.364
    71   1 H        0.926     0.034     2.528     2.486
    72   1 H        0.926     0.031     2.565     2.505
    73   1 H        0.926     0.041     2.432     2.439
    74   1 H        0.926     0.045     2.384     2.414
    75   1 H        0.926     0.047     2.353     2.399
    76   1 H        0.926     0.047     2.355     2.400
    77   1 H        0.926     0.046     2.364     2.405
    78   1 H        0.926     0.048     2.340     2.392
    79   1 H        0.926     0.050     2.321     2.382
    80   1 H        0.926     0.049     2.336     2.390
    81   1 H        0.926     0.045     2.379     2.412

molecular dipole:
                 x           y           z       tot (Debye)
 q only:       -5.198      -0.884      -0.271
   full:       -4.986      -0.831      -0.193      12.858

 projected vibrational frequencies (cm⁻¹)
eigval :       -0.00     0.00     0.00     0.00     0.00     0.00
eigval :        9.82    10.77    14.64    31.62    35.98    38.60
eigval :       40.62    41.59    45.45    54.55    58.09    63.23
eigval :       72.94    84.12    93.44    93.98   113.44   123.51
eigval :      128.09   134.81   147.05   155.45   169.30   184.26
eigval :      212.05   220.18   223.52   228.24   236.92   239.31
eigval :      255.02   260.77   271.05   290.05   309.25   319.56
eigval :      322.84   352.64   369.45   370.51   376.71   379.70
eigval :      383.73   390.70   396.94   406.77   411.40   420.62
eigval :      431.03   439.68   449.36   464.56   471.39   478.70
eigval :      482.26   497.65   515.71   536.10   547.49   550.63
eigval :      557.63   566.55   580.13   582.25   586.00   587.84
eigval :      592.84   595.82   599.26   603.87   615.16   618.58
eigval :      625.94   643.78   649.04   658.25   669.38   673.64
eigval :      676.64   677.39   683.39   687.24   702.92   709.15
eigval :      712.20   745.75   751.71   761.36   769.44   772.68
eigval :      775.14   804.71   812.45   823.91   836.26   840.35
eigval :      850.69   856.97   867.67   870.07   874.27   877.35
eigval :      878.74   878.78   889.16   903.12   903.49   905.25
eigval :      907.36   910.04   913.02   913.78   917.80   920.54
eigval :      921.66   925.89   925.98   928.03   931.18   931.78
eigval :      934.15   962.98   979.27   985.80   998.46  1005.57
eigval :     1037.55  1065.19  1070.03  1071.49  1075.14  1078.49
eigval :     1081.61  1086.70  1097.48  1106.36  1111.62  1115.02
eigval :     1120.07  1132.40  1133.53  1142.06  1162.18  1165.16
eigval :     1172.08  1176.25  1177.63  1177.93  1179.37  1184.28
eigval :     1185.43  1194.61  1197.84  1207.08  1216.81  1227.89
eigval :     1248.05  1257.85  1266.04  1267.32  1269.06  1278.00
eigval :     1279.42  1285.48  1290.12  1297.01  1311.59  1314.87
eigval :     1318.74  1322.20  1330.84  1338.85  1349.90  1354.84
eigval :     1359.42  1368.65  1382.36  1385.99  1391.75  1408.11
eigval :     1415.95  1422.08  1424.56  1431.35  1431.54  1443.31
eigval :     1447.87  1463.42  1464.64  1470.30  1472.48  1476.44
eigval :     1482.16  1510.42  1535.12  1553.01  1554.23  1573.21
eigval :     1574.14  1577.70  1579.84  1579.99  1581.28  1583.63
eigval :     1586.65  1589.91  1591.49  2239.93  3067.42  3069.08
eigval :     3074.58  3076.26  3081.82  3081.85  3082.40  3082.66
eigval :     3082.90  3083.24  3083.31  3087.38  3088.07  3088.32
eigval :     3088.55  3089.42  3090.89  3091.97  3094.58  3095.66
eigval :     3095.69  3099.16  3099.52  3100.33  3101.13  3101.27
eigval :     3109.45  3110.33  3135.26

   temp. (K)  partition function   enthalpy   heat capacity  entropy
                                   cal/mol     cal/K/mol   cal/K/mol   J/K/mol
 298.15  VIB  0.514E+19            23987.406    151.151    149.652
         ROT  0.119E+09              888.752      2.981     39.926
         INT  0.609E+27            24876.158    154.132    189.577
         TR   0.165E+29             1481.254      4.968     45.339
         TOT                       26357.4121   159.1001   234.9167   982.8913

       T/K    H(0)-H(T)+PV         H(T)/Eh          T*S/Eh         G(T)/Eh
   ------------------------------------------------------------------------
    298.15    0.420032E-01    0.647974E+00    0.111616E+00    0.536357E+00
   ------------------------------------------------------------------------

         :::::::::::::::::::::::::::::::::::::::::::::::::::::
         ::                  THERMODYNAMIC                  ::
         :::::::::::::::::::::::::::::::::::::::::::::::::::::
         :: total free energy        -129.533849467604 Eh   ::
         ::.................................................::
         :: total energy             -130.070206532623 Eh   ::
         :: zero point energy           0.605970341714 Eh   ::
         :: G(RRHO) w/o ZPVE           -0.069613276695 Eh   ::
         :: G(RRHO) contrib.            0.536357065019 Eh   ::
         :::::::::::::::::::::::::::::::::::::::::::::::::::::

           -------------------------------------------------
          | TOTAL ENERGY             -130.070206532623 Eh   |
          | TOTAL ENTHALPY           -129.422232981183 Eh   |
          | TOTAL FREE ENERGY        -129.533849467604 Eh   |
          | GRADIENT NORM               0.000071724065 Eh/α |
          | HOMO-LUMO GAP               0.334163837461 eV   |
           -------------------------------------------------

 * finished run on 2025/09/08 at 12:13:22.023
