   * xtb version 6.7.1 (edcfbbe) compiled by 'albert@albert-system' on 2024-07-22

   ID    Z sym.   atoms
    1    6 C      1-7, 9-14, 16-30, 32-40, 42, 43
    2    8 O      8, 31, 41
    3    7 N      15
    4    1 H      44-74

          program call               : xtb data2507/gas/IpCm-PhBzAc/IpCm-PhBzAc_gas_S0_finalOpt.xtbopt.xyz --gfn 2 --spinpol --tblite --uhf 2 --ohess vtight --parallel 40 --molden --ceasefiles --namespace data2507/gas/IpCm-PhBzAc/IpCm-PhBzAc_gas_T1_preOpt
 * total energy  :  -114.4278897 Eh     change        0.2078067E-07 Eh
 * total energy  :  -114.4308397 Eh     change       -0.2950060E-02 Eh
 * total energy  :  -114.4315558 Eh     change       -0.7160331E-03 Eh
 * total energy  :  -114.4316656 Eh     change       -0.1098128E-03 Eh
 * total energy  :  -114.4318080 Eh     change       -0.1424223E-03 Eh
 * total energy  :  -114.4319407 Eh     change       -0.1327303E-03 Eh
 * total energy  :  -114.4320721 Eh     change       -0.1313668E-03 Eh
 * total energy  :  -114.4321753 Eh     change       -0.1032024E-03 Eh
 * total energy  :  -114.4322793 Eh     change       -0.1039675E-03 Eh
 * total energy  :  -114.4323717 Eh     change       -0.9242796E-04 Eh
 * total energy  :  -114.4340875 Eh     change       -0.1128349E-05 Eh
 * total energy  :  -114.4340885 Eh     change       -0.9687089E-06 Eh
 * total energy  :  -114.4340892 Eh     change       -0.7479790E-06 Eh
 * total energy  :  -114.4340897 Eh     change       -0.5383640E-06 Eh
 * total energy  :  -114.4340902 Eh     change       -0.4427689E-06 Eh
 * total energy  :  -114.4340906 Eh     change       -0.4553043E-06 Eh
 * total energy  :  -114.4340911 Eh     change       -0.4255172E-06 Eh
 * total energy  :  -114.4340915 Eh     change       -0.3906668E-06 Eh
 * total energy  :  -114.4340915 Eh     change       -0.9550251E-07 Eh
   *** GEOMETRY OPTIMIZATION CONVERGED AFTER 64 ITERATIONS ***

 final structure:
================
74
 xtb: 6.7.1 (edcfbbe)
C            8.34505118744063        3.19523931617028       -1.35670839942270
C            8.71863292954292        1.71124515925924       -1.34617495256039
C            8.64145452579983        1.12399363129227       -2.75714358075086
C            7.83004648570789        0.94696974971403       -0.39723144506757
C            8.35920575394755        0.29486100623087        0.70532223528159
C            7.55152928581847       -0.41823119441059        1.57890857652893
C            6.17883887352650       -0.48958627869571        1.35248780706525
O            5.42558059615241       -1.17952486638925        2.22999596112017
C            4.08461066143709       -1.27825446873620        1.99986490734371
C            3.40984717470754       -0.68835808891619        0.91386998623385
C            2.01701063340609       -0.94882825051294        0.67725592508314
C            1.22288840298532       -1.69157671294107        1.58813967568868
C           -0.11784231272648       -1.88180639305526        1.38068014658283
C           -0.75404654011534       -1.35022177847197        0.25325486294861
N           -2.13318366411741       -1.54673467227585        0.03852140506209
C           -2.60547793483148       -2.83395513170324       -0.17129680786944
C           -1.70430945052728       -3.90594285798793       -0.22037226206161
C           -2.14721721798150       -5.19823715588968       -0.39418126202702
C           -3.50113928347239       -5.44965027847732       -0.54174521313700
C           -4.38843362229066       -4.39033877122440       -0.54822960772855
C           -3.96928621800716       -3.07739809915046       -0.37722936943774
C           -4.98413274513952       -1.95815776186785       -0.45570154588540
C           -6.03861774123502       -2.16611464987691        0.64796590720158
C           -5.64728712878898       -2.00504489498803       -1.84534268280525
C           -4.34984802645043       -0.59550025541839       -0.25960702199610
C           -5.16298469660957        0.52343471652888       -0.30485214120093
C           -4.63643752017049        1.78586588701372       -0.07294814102484
C           -3.26831401565188        1.90979413391233        0.24297584690851
C           -2.43575551100698        0.81821322039452        0.29732777422436
C           -2.97245633107608       -0.44641047621884        0.00959848483634
O           -2.92217503375431        3.20199041905787        0.48014251470998
C           -4.05968604933963        3.93559656854279        0.31496053569154
C           -4.18125725601989        5.30462380334840        0.45386549460649
C           -5.43480889192114        5.85519993549077        0.24246096188523
C           -6.52935964499093        5.06366593380613       -0.09599214008539
C           -6.40817387873189        3.69526109877208       -0.23488560717190
C           -5.15962748634299        3.11999072355595       -0.02788535810742
C            0.01627582727992       -0.63841976103559       -0.67757080302489
C            1.35923865375476       -0.47226846239901       -0.47762619312073
C            4.16803702363419        0.12606331088030        0.00091752563859
O            3.69698741117795        0.77216251039991       -0.95645631004618
C            5.62446530721531        0.16217759972193        0.24375619958347
C            6.45359332733147        0.87755824370401       -0.60958468778669
H            7.32975218348944        3.33326016590807       -1.71886197370610
H            8.41006756135672        3.60898274058655       -0.35268074369191
H            9.02083063733168        3.74926549125925       -2.00487628152694
H            9.75241551112230        1.62003318751346       -0.99353201890147
H            7.63639160096943        1.21976205607100       -3.15918424342242
H            8.90646275911378        0.06895520361128       -2.74309192266473
H            9.32866180926727        1.64547799055706       -3.42009315626125
H            9.42223314395187        0.33881459777458        0.89481943365493
H            7.96202569540901       -0.91239312421158        2.44510054494596
H            3.60334149642055       -1.81138363620208        2.79747197576427
H            1.66056641332515       -2.08049145341800        2.49155715088155
H           -0.70856624468846       -2.42297667537549        2.10622630952119
H           -0.64641295609563       -3.71794565868625       -0.13411983168972
H           -1.43390785552028       -6.00760001956179       -0.42232799033285
H           -3.86098611445879       -6.45853058864644       -0.67173732692346
H           -5.43710086529995       -4.59757611839226       -0.69586494301469
H           -6.52320493998392       -3.13256282485458        0.54350272432970
H           -6.80309564187916       -1.39598579642821        0.60502123680026
H           -5.56345082351958       -2.12358646781446        1.62610395644196
H           -4.89497642522653       -1.86490215443878       -2.61905326150689
H           -6.39264739752322       -1.22169292608694       -1.94600110439796
H           -6.13515845462059       -2.96117931612235       -2.01079514019407
H           -6.21668135875352        0.42903105994405       -0.51247101829531
H           -1.40042996725091        0.94257027712342        0.56369129897004
H           -3.33028869306162        5.91217353758228        0.71593861717260
H           -5.56519943059549        6.92199011306084        0.34258698806933
H           -7.48937696867474        5.53251938905218       -0.25215942327094
H           -7.25730374564261        3.08322577431334       -0.49788440757767
H           -0.45736079742654       -0.26204325491084       -1.57237568697269
H            1.95430311706920        0.03408242733226       -1.22624949357788
H            5.99272424103883        1.37198728751402       -1.45032231864467

 projected vibrational frequencies (cm⁻¹)
eigval :       -0.00    -0.00    -0.00    -0.00     0.00     0.00
eigval :       -5.48    13.73    15.38    28.10    34.81    38.49
eigval :       40.81    61.18    69.65    74.06    85.01   104.10
eigval :      110.36   113.21   125.74   126.80   138.81   148.58
eigval :      167.76   188.44   188.92   199.45   213.40   216.15
eigval :      221.71   225.61   244.20   266.56   269.93   288.32
eigval :      294.03   298.61   314.57   321.00   332.28   337.03
eigval :      344.82   368.93   372.09   387.13   395.42   397.59
eigval :      411.39   416.06   426.37   437.35   439.68   453.39
eigval :      459.35   467.59   483.52   504.88   517.68   520.17
eigval :      525.83   530.68   540.83   542.60   552.63   560.63
eigval :      574.11   586.83   597.76   612.67   620.30   649.21
eigval :      650.49   657.97   668.82   674.03   685.33   697.25
eigval :      700.09   703.48   709.91   726.09   730.11   773.93
eigval :      775.96   777.96   788.89   794.97   811.25   827.70
eigval :      836.14   844.00   856.90   862.74   867.41   869.40
eigval :      871.80   872.92   891.97   896.82   897.80   900.75
eigval :      907.60   915.41   917.38   921.55   924.42   936.79
eigval :      946.52   953.45   957.70   978.63   985.19  1004.78
eigval :     1014.34  1019.75  1039.42  1060.84  1073.48  1075.05
eigval :     1085.62  1091.08  1114.51  1123.04  1135.52  1136.98
eigval :     1139.77  1149.39  1154.53  1159.36  1161.05  1170.95
eigval :     1180.15  1185.82  1189.00  1193.78  1210.39  1223.27
eigval :     1225.71  1230.36  1233.50  1243.77  1251.20  1252.66
eigval :     1265.30  1275.38  1281.92  1289.09  1299.54  1310.94
eigval :     1311.89  1316.14  1322.17  1326.11  1331.67  1351.98
eigval :     1355.12  1368.26  1402.55  1402.70  1407.37  1408.06
eigval :     1415.18  1418.80  1419.14  1422.94  1428.41  1438.78
eigval :     1447.99  1455.07  1458.50  1471.62  1477.46  1484.35
eigval :     1487.22  1487.87  1493.78  1494.40  1497.81  1502.11
eigval :     1502.17  1505.91  1535.35  1542.77  1549.38  1558.70
eigval :     1571.32  1585.22  1589.99  1591.17  1594.77  2925.37
eigval :     3025.11  3030.35  3030.39  3032.01  3032.84  3033.39
eigval :     3034.94  3045.34  3046.10  3047.84  3049.22  3053.79
eigval :     3057.64  3073.84  3074.10  3082.78  3083.95  3086.26
eigval :     3090.77  3091.76  3098.25  3101.68  3102.79  3103.35
eigval :     3104.43  3110.73  3114.10  3119.45  3131.61  3143.27

   temp. (K)  partition function   enthalpy   heat capacity  entropy
                                   cal/mol     cal/K/mol   cal/K/mol   J/K/mol
 298.15  VIB  0.278E+17            21438.665    135.497    132.727
         ROT  0.838E+08              888.752      2.981     39.237
         INT  0.233E+25            22327.418    138.478    171.964
         TR   0.129E+29             1481.254      4.968     44.842
         TOT                       23808.6715   143.4457   216.8053   907.1134

       T/K    H(0)-H(T)+PV         H(T)/Eh          T*S/Eh         G(T)/Eh
   ------------------------------------------------------------------------
    298.15    0.379415E-01    0.613699E+00    0.103011E+00    0.510688E+00
   ------------------------------------------------------------------------

         :::::::::::::::::::::::::::::::::::::::::::::::::::::
         ::                  THERMODYNAMIC                  ::
         :::::::::::::::::::::::::::::::::::::::::::::::::::::
         :: total free energy        -113.923404018152 Eh   ::
         ::.................................................::
         :: total energy             -114.434091546669 Eh   ::
         :: zero point energy           0.575757190689 Eh   ::
         :: G(RRHO) w/o ZPVE           -0.065069662173 Eh   ::
         :: G(RRHO) contrib.            0.510687528517 Eh   ::
         :::::::::::::::::::::::::::::::::::::::::::::::::::::

           -------------------------------------------------
          | TOTAL ENERGY             -114.434091546669 Eh   |
          | TOTAL ENTHALPY           -113.820392822939 Eh   |
          | TOTAL FREE ENERGY        -113.923404018152 Eh   |
          | GRADIENT NORM               0.000144114383 Eh/α |
           -------------------------------------------------

 * finished run on 2025/09/04 at 14:22:20.473
