   * xtb version 6.7.1 (edcfbbe) compiled by 'albert@albert-system' on 2024-07-22

   ID    Z sym.   atoms
    1    6 C      1-7, 9-14, 16-30, 32-40, 42, 43
    2    8 O      8, 31, 41
    3    7 N      15
    4    1 H      44-74

          program call               : xtb data2507/gas/IpCm-PhBzAc/IpCm-PhBzAc_gas_S0_crest.xyz --gfn 2 --ohess vtight --parallel 40 --molden --ceasefiles --namespace data2507/gas/IpCm-PhBzAc/IpCm-PhBzAc_gas_S0_finalOpt
          :  Hamiltonian                  GFN2-xTB          :
 * total energy  :  -114.5227176 Eh     change       -0.2034369E-08 Eh
 * total energy  :  -114.5227186 Eh     change       -0.1015061E-05 Eh
 * total energy  :  -114.5227196 Eh     change       -0.9819633E-06 Eh
 * total energy  :  -114.5227219 Eh     change       -0.2280783E-05 Eh
 * total energy  :  -114.5227226 Eh     change       -0.7124950E-06 Eh
 * total energy  :  -114.5227234 Eh     change       -0.7689829E-06 Eh
 * total energy  :  -114.5227246 Eh     change       -0.1224679E-05 Eh
 * total energy  :  -114.5227256 Eh     change       -0.1063904E-05 Eh
 * total energy  :  -114.5227258 Eh     change       -0.1902471E-06 Eh
 * total energy  :  -114.5227263 Eh     change       -0.4677446E-06 Eh
 * total energy  :  -114.5227558 Eh     change       -0.3664126E-06 Eh
 * total energy  :  -114.5227561 Eh     change       -0.3609880E-06 Eh
 * total energy  :  -114.5227566 Eh     change       -0.4543292E-06 Eh
 * total energy  :  -114.5227572 Eh     change       -0.5732662E-06 Eh
 * total energy  :  -114.5227579 Eh     change       -0.7317782E-06 Eh
 * total energy  :  -114.5227587 Eh     change       -0.8164122E-06 Eh
 * total energy  :  -114.5227596 Eh     change       -0.8398194E-06 Eh
 * total energy  :  -114.5227604 Eh     change       -0.8313037E-06 Eh
 * total energy  :  -114.5227604 Eh     change       -0.5661050E-08 Eh
   *** GEOMETRY OPTIMIZATION CONVERGED AFTER 44 ITERATIONS ***

 final structure:
================
74
 xtb: 6.7.1 (edcfbbe)
C            8.29938883298620        3.31286892588415       -1.15729400076063
C            8.74456909425432        1.84942556930811       -1.18975503566713
C            8.79788612326757        1.33024579561064       -2.62827671315770
C            7.82722999368388        0.99338260867955       -0.35278925078507
C            8.32533794085125        0.27964005265983        0.74039846610485
C            7.50797859020191       -0.51175340037752        1.51626689908933
C            6.15145382377126       -0.60838675645518        1.21107006368921
O            5.37574534870788       -1.40191433838059        1.99445414803715
C            4.07436157342100       -1.48959119962220        1.70621543443586
C            3.43545327429974       -0.86359990152510        0.69371038031631
C            1.98879178598962       -1.03833646977010        0.50242332466803
C            1.13016070987222       -1.08104656561684        1.60030112016787
C           -0.22869676199241       -1.25144673259710        1.42524541848441
C           -0.75364300572535       -1.37440303035016        0.14441901513750
N           -2.15358709063603       -1.55785610141824       -0.03652328246545
C           -2.63811981174476       -2.84473192159681       -0.20238191148171
C           -1.75150431408395       -3.92552782159192       -0.17824477658891
C           -2.20388683232363       -5.21718136751993       -0.34550171495853
C           -3.55285730939424       -5.45532433166685       -0.53694278789598
C           -4.43230525537490       -4.38864508133223       -0.55083274172010
C           -4.00448847233443       -3.07873615973694       -0.38402398891444
C           -5.01892381017761       -1.95208019378637       -0.39779656968417
C           -6.03150230347757       -2.19234540388933        0.73710271051876
C           -5.73473507739403       -1.95393625165015       -1.76112734515419
C           -4.37134707611362       -0.59332227207925       -0.19380879645821
C           -5.17811958460043        0.53091572167447       -0.17762964589112
C           -4.62549134713334        1.79074525046416       -0.00547790997692
C           -3.23295562870011        1.91329529366785        0.14274288582488
C           -2.40326746776267        0.81504583151502        0.12899359879198
C           -2.97920407675798       -0.44936431833370       -0.03199897580639
O           -2.85315993152213        3.21210050784281        0.29466231792807
C           -3.99995709017269        3.94842472350742        0.24691131387872
C           -4.09852198207186        5.32200544255846        0.35987051940843
C           -5.36513510705245        5.87677881121484        0.28546552144358
C           -6.49459564965092        5.08440773811583        0.10406100449827
C           -6.39529584356422        3.71089216140094       -0.00892547638886
C           -5.13548714830281        3.13218653452709        0.06295450638414
C            0.09210199730891       -1.31979961164596       -0.95555646446914
C            1.45223852606130       -1.15432375364793       -0.77800894750418
C            4.19709609885722        0.00594855742629       -0.21743024543794
O            3.71067429773884        0.60675105154362       -1.15966649641475
C            5.62737712646813        0.09599669604728        0.12360212080345
C            6.48130805004274        0.88914595160011       -0.64413682316829
H            7.31441742904237        3.42662263922621       -1.60180948945687
H            8.25776885603682        3.67468364751789       -0.13225219671896
H            9.00107156863316        3.92984295761535       -1.71384594546004
H            9.75276374043879        1.78790029872668       -0.76513754736046
H            7.82054497162079        1.39834407365988       -3.09844617779041
H            9.11594867754271        0.29002792163675       -2.64527228033752
H            9.50268928727269        1.91725551088743       -3.21255926791632
H            9.37572500423022        0.34903352573352        0.98355757453813
H            7.89326026225130       -1.06315897214550        2.35945207143886
H            3.56608044883713       -2.16002727331624        2.38695637318967
H            1.52833577496536       -0.96176178324657        2.59708388171614
H           -0.89326711534516       -1.28304542628944        2.27599450491734
H           -0.69824925721930       -3.74668862187854       -0.02562172334369
H           -1.50032274228166       -6.03618634044691       -0.32518910215049
H           -3.91927242378154       -6.46165349587929       -0.67112549343809
H           -5.48293287608167       -4.59000297840379       -0.69611077518679
H           -6.52716678652581       -3.15178454028185        0.61858602319693
H           -6.79193056681328       -1.41675182713214        0.75133362386719
H           -5.51832830871191       -2.18747993286853        1.69689025561096
H           -5.01281751917553       -1.78087159017299       -2.55695414604313
H           -6.48799791729152       -1.17246963198359       -1.80631564350672
H           -6.22227734126738       -2.90785769446482       -1.94207365571019
H           -6.24607655269170        0.44280206703311       -0.29959290323647
H           -1.33853306433991        0.93709976671841        0.23574083975906
H           -3.21927487493473        5.93030906551547        0.49983641043549
H           -5.47783762990881        6.94723956280281        0.37004483572109
H           -7.46519807290494        5.55513129583074        0.05101500053845
H           -7.27311249634760        3.09856638766941       -0.14964859964415
H           -0.32329486986439       -1.41205105269644       -1.94791600574504
H            2.10289797717833       -1.11176266236829       -1.63602093787424
H            6.03913260991473        1.41683662853607       -1.47546805517042

          :  Hamiltonian                  GFN2-xTB          :
         :: gradient norm              0.000053833962 Eh/a0 ::
         :: HOMO-LUMO gap              1.600159715108 eV    ::
         :: SCC energy              -116.439300013820 Eh    ::
         :: -> dispersion             -0.096798752780 Eh    ::
         :: repulsion energy           1.916539615201 Eh    ::

    * Orbital Energies and Occupations

         #    Occupation            Energy/Eh            Energy/eV
      -------------------------------------------------------------
         1        2.0000           -0.7615887             -20.7239
       ...           ...                  ...                  ...
        93        2.0000           -0.4194976             -11.4151
        94        2.0000           -0.4161580             -11.3242
        95        2.0000           -0.4139851             -11.2651
        96        2.0000           -0.4123397             -11.2203
        97        2.0000           -0.4089444             -11.1279
        98        2.0000           -0.4047203             -11.0130
        99        2.0000           -0.4020683             -10.9408
       100        2.0000           -0.3922237             -10.6729
       101        2.0000           -0.3897363             -10.6053
       102        2.0000           -0.3861000             -10.5063
       103        2.0000           -0.3851830             -10.4814
       104        2.0000           -0.3748348             -10.1998
       105        2.0000           -0.3414601              -9.2916 (HOMO)
       106                         -0.2826553              -7.6914 (LUMO)
       107                         -0.2614983              -7.1157
       108                         -0.2414310              -6.5697
       109                         -0.2331177              -6.3435
       110                         -0.2325238              -6.3273
       111                         -0.2218275              -6.0362
       112                         -0.2196950              -5.9782
       113                         -0.2152249              -5.8566
       114                         -0.2080721              -5.6619
       115                         -0.1965128              -5.3474
       116                         -0.1721732              -4.6851
       ...                                ...                  ...
       203                          0.7572297              20.6053
      -------------------------------------------------------------
                  HL-Gap            0.0588048 Eh            1.6002 eV

     #   Z          covCN         q      C6AA      α(0)
     1   6 C        3.756    -0.106    22.581     6.775
     2   6 C        3.855    -0.014    20.783     6.484
     3   6 C        3.756    -0.106    22.577     6.775
     4   6 C        2.970     0.012    27.750     8.641
     5   6 C        2.927    -0.032    28.795     8.800
     6   6 C        2.913    -0.052    29.283     8.874
     7   6 C        2.900     0.133    25.096     8.214
     8   8 O        1.710    -0.188    17.151     5.592
     9   6 C        2.827     0.099    25.802     8.323
    10   6 C        2.956    -0.047    29.164     8.858
    11   6 C        2.978     0.017    27.632     8.623
    12   6 C        2.924    -0.038    28.940     8.822
    13   6 C        2.920    -0.037    28.929     8.820
    14   6 C        2.929     0.068    26.476     8.438
    15   7 N        2.756    -0.064    22.483     7.042
    16   6 C        2.929     0.058    26.700     8.474
    17   6 C        2.924    -0.059    29.459     8.901
    18   6 C        2.920    -0.033    28.825     8.804
    19   6 C        2.917    -0.045    29.114     8.848
    20   6 C        2.928    -0.036    28.900     8.816
    21   6 C        2.980    -0.014    28.346     8.733
    22   6 C        3.909     0.023    20.138     6.378
    23   6 C        3.761    -0.104    22.532     6.767
    24   6 C        3.761    -0.104    22.531     6.767
    25   6 C        2.978    -0.021    28.522     8.760
    26   6 C        2.920    -0.041    29.028     8.835
    27   6 C        3.053    -0.034    28.805     8.802
    28   6 C        3.101     0.127    25.093     8.209
    29   6 C        2.914    -0.085    30.136     9.002
    30   6 C        2.931     0.058    26.698     8.474
    31   8 O        1.714    -0.229    17.802     5.697
    32   6 C        3.105     0.127    25.085     8.207
    33   6 C        2.909    -0.053    29.322     8.879
    34   6 C        2.926    -0.035    28.880     8.813
    35   6 C        2.920    -0.040    28.993     8.830
    36   6 C        2.913    -0.036    28.907     8.816
    37   6 C        3.057    -0.019    28.414     8.742
    38   6 C        2.920    -0.036    28.900     8.816
    39   6 C        2.924    -0.023    28.585     8.768
    40   6 C        2.833     0.226    23.263     7.904
    41   8 O        0.857    -0.403    21.731     6.250
    42   6 C        2.973    -0.039    28.973     8.829
    43   6 C        2.929    -0.026    28.647     8.778
    44   1 H        0.925     0.045     2.382     2.413
    45   1 H        0.925     0.035     2.517     2.481
    46   1 H        0.925     0.041     2.431     2.438
    47   1 H        0.924     0.035     2.518     2.481
    48   1 H        0.925     0.045     2.387     2.416
    49   1 H        0.925     0.035     2.523     2.484
    50   1 H        0.925     0.042     2.429     2.437
    51   1 H        0.926     0.047     2.360     2.403
    52   1 H        0.926     0.055     2.255     2.348
    53   1 H        0.925     0.063     2.161     2.299
    54   1 H        0.926     0.034     2.525     2.485
    55   1 H        0.926     0.043     2.411     2.428
    56   1 H        0.926     0.024     2.676     2.558
    57   1 H        0.926     0.027     2.636     2.539
    58   1 H        0.926     0.026     2.646     2.544
    59   1 H        0.926     0.030     2.587     2.515
    60   1 H        0.925     0.040     2.451     2.448
    61   1 H        0.925     0.040     2.455     2.450
    62   1 H        0.925     0.032     2.563     2.504
    63   1 H        0.925     0.032     2.552     2.498
    64   1 H        0.925     0.040     2.455     2.450
    65   1 H        0.925     0.040     2.451     2.448
    66   1 H        0.926     0.037     2.482     2.464
    67   1 H        0.926     0.043     2.413     2.429
    68   1 H        0.926     0.043     2.414     2.430
    69   1 H        0.926     0.035     2.521     2.483
    70   1 H        0.926     0.032     2.559     2.502
    71   1 H        0.926     0.033     2.548     2.496
    72   1 H        0.926     0.047     2.361     2.403
    73   1 H        0.926     0.063     2.158     2.297
    74   1 H        0.926     0.072     2.061     2.245

molecular dipole:
                 x           y           z       tot (Debye)
 q only:        1.268      -0.644       0.488
   full:        1.388      -0.741       0.743       4.423

 projected vibrational frequencies (cm⁻¹)
eigval :       -0.00    -0.00     0.00     0.00     0.00     0.00
eigval :        6.28    12.40    16.75    27.27    31.20    35.05
eigval :       47.70    59.14    63.36    73.32    83.98    99.51
eigval :      103.95   117.51   128.21   132.48   139.41   148.96
eigval :      163.14   189.30   191.18   200.68   207.74   217.31
eigval :      221.44   227.80   231.16   260.87   275.12   289.42
eigval :      292.50   305.39   322.65   324.16   337.05   344.90
eigval :      359.77   376.13   382.43   385.78   396.18   409.91
eigval :      415.00   426.64   434.59   439.88   451.82   474.36
eigval :      479.64   488.92   496.28   513.26   523.64   534.04
eigval :      534.19   542.98   544.29   553.93   571.65   586.22
eigval :      592.31   601.15   612.61   625.99   647.81   663.35
eigval :      678.74   682.47   683.61   692.60   701.63   704.07
eigval :      708.93   730.19   741.83   748.87   776.98   777.20
eigval :      778.60   811.26   829.56   831.76   832.80   845.80
eigval :      854.94   865.40   868.22   869.83   870.09   876.16
eigval :      879.66   895.99   900.05   902.95   913.10   913.32
eigval :      920.82   920.84   921.24   924.67   930.05   938.52
eigval :      947.91   956.72   958.64   986.31  1002.78  1012.96
eigval :     1014.71  1059.85  1063.07  1077.76  1087.37  1088.52
eigval :     1115.56  1116.41  1125.36  1134.69  1136.89  1144.52
eigval :     1152.69  1160.27  1162.73  1173.25  1178.18  1185.33
eigval :     1187.30  1187.60  1194.84  1209.93  1226.87  1229.37
eigval :     1236.73  1239.93  1247.11  1254.93  1260.79  1265.69
eigval :     1276.95  1283.24  1287.61  1306.75  1310.49  1313.87
eigval :     1329.77  1333.83  1338.74  1343.88  1353.05  1357.94
eigval :     1378.98  1401.34  1402.77  1404.57  1414.61  1415.83
eigval :     1420.58  1425.13  1438.07  1451.33  1458.01  1463.43
eigval :     1481.65  1482.66  1489.85  1490.63  1492.61  1492.88
eigval :     1493.67  1500.26  1501.83  1505.13  1505.16  1560.97
eigval :     1564.49  1565.01  1584.62  1593.42  1595.76  1597.40
eigval :     1598.72  1604.91  1607.72  1619.29  1682.78  2931.16
eigval :     3027.85  3030.11  3031.27  3035.51  3036.60  3038.73
eigval :     3040.44  3043.25  3047.83  3049.27  3051.43  3053.10
eigval :     3064.01  3077.39  3078.17  3079.89  3080.71  3082.34
eigval :     3086.34  3091.72  3092.61  3093.65  3094.12  3097.60
eigval :     3099.75  3100.17  3105.38  3105.97  3119.30  3122.74

   temp. (K)  partition function   enthalpy   heat capacity  entropy
                                   cal/mol     cal/K/mol   cal/K/mol   J/K/mol
 298.15  VIB  0.235E+17            21125.813    132.954    131.201
         ROT  0.838E+08              888.752      2.981     39.236
         INT  0.197E+25            22014.566    135.935    170.437
         TR   0.129E+29             1481.254      4.968     44.842
         TOT                       23495.8196   140.9029   215.2788   900.7266

       T/K    H(0)-H(T)+PV         H(T)/Eh          T*S/Eh         G(T)/Eh
   ------------------------------------------------------------------------
    298.15    0.374430E-01    0.618626E+00    0.102286E+00    0.516340E+00
   ------------------------------------------------------------------------

         :::::::::::::::::::::::::::::::::::::::::::::::::::::
         ::                  THERMODYNAMIC                  ::
         :::::::::::::::::::::::::::::::::::::::::::::::::::::
         :: total free energy        -114.006420150226 Eh   ::
         ::.................................................::
         :: total energy             -114.522760398618 Eh   ::
         :: zero point energy           0.581183187097 Eh   ::
         :: G(RRHO) w/o ZPVE           -0.064842938705 Eh   ::
         :: G(RRHO) contrib.            0.516340248392 Eh   ::
         :::::::::::::::::::::::::::::::::::::::::::::::::::::

           -------------------------------------------------
          | TOTAL ENERGY             -114.522760398618 Eh   |
          | TOTAL ENTHALPY           -113.904134239566 Eh   |
          | TOTAL FREE ENERGY        -114.006420150226 Eh   |
          | GRADIENT NORM               0.000053836802 Eh/α |
          | HOMO-LUMO GAP               1.600160010671 eV   |
           -------------------------------------------------

 * finished run on 2025/09/04 at 14:22:07.286
