   * xtb version 6.7.1 (edcfbbe) compiled by 'albert@albert-system' on 2024-07-22

   ID    Z sym.   atoms
    1    6 C      1-7, 9-14, 16-30, 32-40, 42, 43
    2    8 O      8, 31, 41
    3    7 N      15
    4    1 H      44-74

          program call               : xtb data2507/gas/IpCm-PhBzAc/IpCm-PhBzAc.xyz --gfn 2 --ohess vtight --parallel 40 --molden --ceasefiles --namespace data2507/gas/IpCm-PhBzAc/IpCm-PhBzAc_gas_S0_preOpt
          :  Hamiltonian                  GFN2-xTB          :
 * total energy  :  -114.5005910 Eh     change       -0.2396874E-08 Eh
 * total energy  :  -114.5150920 Eh     change       -0.1450105E-01 Eh
 * total energy  :  -114.5198478 Eh     change       -0.4755795E-02 Eh
 * total energy  :  -114.5210746 Eh     change       -0.1226741E-02 Eh
 * total energy  :  -114.5219676 Eh     change       -0.8930954E-03 Eh
 * total energy  :  -114.5222641 Eh     change       -0.2964373E-03 Eh
 * total energy  :  -114.5223586 Eh     change       -0.9448143E-04 Eh
 * total energy  :  -114.5224048 Eh     change       -0.4626460E-04 Eh
 * total energy  :  -114.5224404 Eh     change       -0.3558486E-04 Eh
 * total energy  :  -114.5224623 Eh     change       -0.2183811E-04 Eh
 * total energy  :  -114.5225636 Eh     change       -0.9406935E-06 Eh
 * total energy  :  -114.5225644 Eh     change       -0.8395063E-06 Eh
 * total energy  :  -114.5225651 Eh     change       -0.6925586E-06 Eh
 * total energy  :  -114.5225656 Eh     change       -0.4715395E-06 Eh
 * total energy  :  -114.5225659 Eh     change       -0.3047873E-06 Eh
 * total energy  :  -114.5225661 Eh     change       -0.2084474E-06 Eh
 * total energy  :  -114.5225663 Eh     change       -0.2165220E-06 Eh
 * total energy  :  -114.5225666 Eh     change       -0.2330597E-06 Eh
 * total energy  :  -114.5225666 Eh     change       -0.7398526E-08 Eh
   *** GEOMETRY OPTIMIZATION CONVERGED AFTER 44 ITERATIONS ***

 final structure:
================
74
 xtb: 6.7.1 (edcfbbe)
C            9.59792046845214        0.64285749228515       -1.71217914145267
C            8.57067726291248        1.41013896866785       -0.87708169763812
C            9.26405025451647        2.31425219048014        0.14439566327331
C            7.62099633311459        0.46072546751936       -0.19063994459989
C            8.08621267572673       -0.48144437563784        0.73263691686653
C            7.22642133048224       -1.34874390548272        1.36598354151624
C            5.86047055907603       -1.29467391196651        1.08899794107905
O            5.04450210829837       -2.16748467937168        1.73479942324710
C            3.73396770504974       -2.10624086950795        1.48216197248369
C            3.12488316866674       -1.25909815137262        0.62444810864560
C            1.66486760677722       -1.28390397684087        0.45864111511254
C            0.83141315196393       -1.44102247236215        1.56526347070098
C           -0.54099759363105       -1.45940910781331        1.41556250027246
C           -1.10315083885720       -1.31766082531574        0.15273267632884
N           -2.51837054554328       -1.34023923473977       -0.00147639436209
C           -3.14940388540574       -2.56246544267122       -0.15934123488983
C           -2.38780472990376       -3.73470102023653       -0.18276694324941
C           -2.98809555413303       -4.96652551956934       -0.33525970693509
C           -4.36218088516923       -5.05135630844707       -0.46878566102503
C           -5.11625226672512       -3.89260930084877       -0.45126834063495
C           -4.53828613474872       -2.63975639867253       -0.29996132129590
C           -5.41725681091813       -1.40435251953547       -0.29412564042854
C           -6.41388414741073       -1.51797277994943        0.87420406970231
C           -6.17200891417222       -1.33497128739456       -1.63443405581679
C           -4.61272239123548       -0.12733522797812       -0.12248710472656
C           -5.28369119220716        1.08280386289962       -0.10132906126146
C           -4.58670647593356        2.27064789042670        0.05850608109380
C           -3.18883687231859        2.23079998892162        0.20226818737776
C           -2.49222871356129        1.04367961382794        0.18558137473518
C           -3.21103119151981       -0.14438712419271        0.01834459834870
O           -2.66045117361861        3.47659379164725        0.35245724949118
C           -3.71362603111304        4.34130670230814        0.30471535055864
C           -3.65103189154078        5.71743560458904        0.41253894393896
C           -4.84433201654832        6.41594382308668        0.33732147083014
C           -6.05887031582796        5.76011471030053        0.16058134221728
C           -6.12076466952312        4.38397298782760        0.05292917748121
C           -4.93695261241385        3.66246697045836        0.12514457441485
C           -0.28119847170859       -1.15346378476558       -0.95431956639251
C            1.09197308382453       -1.13536917971710       -0.80243377271946
C            3.93156027940811       -0.29365615806081       -0.14001973426524
O            3.47235232701788        0.49807503329916       -0.94435750724123
C            5.36979037373983       -0.36447731663975        0.16971686808572
C            6.26800386274221        0.50231679257515       -0.45777391775283
H           10.23031995393940        0.02449043309184       -1.08005125187874
H            9.09641072933139       -0.00053423939642       -2.43157160628903
H           10.23316001650782        1.33896696979847       -2.25486344501386
H            7.98579354832945        2.04329103732437       -1.55219188160401
H            9.88602220528460        1.73250444237053        0.82017118531463
H            8.52649180843830        2.85374533138161        0.73422087053494
H            9.89598920866558        3.03797957969825       -0.36497110631285
H            9.14016148725329       -0.53481376855462        0.95844355042051
H            7.58380884681784       -2.07579496162901        2.07826850138283
H            3.18975308013450       -2.85241209825585        2.04636345447619
H            1.26203805018225       -1.52786582774016        2.55190225016254
H           -1.18666605459731       -1.57855150732767        2.27304677097045
H           -1.31495800288478       -3.67400718163083       -0.08221813386941
H           -2.38003047881770       -5.85885442748662       -0.35031530572679
H           -4.84413964582461       -6.00977136703754       -0.58772729721515
H           -6.18728666250459       -3.97421404739621       -0.55952366932686
H           -7.01936728769975       -2.41532736358126        0.78184407146510
H           -7.07940306498508       -0.65985870235998        0.90293149832095
H           -5.87309656431314       -1.56435302355476        1.81759570290172
H           -5.46110903391825       -1.25169557681421       -2.45426113753787
H           -6.83268349535205       -0.47322542013743       -1.66511754943735
H           -6.77080749590363       -2.22812371101119       -1.78947814516679
H           -6.35630619139762        1.11861452173907       -0.20817662188588
H           -1.42097166199874        1.04055837292450        0.29673100829758
H           -2.70653114450207        6.21944520975502        0.54883072165819
H           -4.83117913731297        7.49260108202561        0.41730668897166
H           -6.96795476431810        6.34074586349747        0.10659390977385
H           -7.06426306647165        3.87780168782813       -0.08462009717463
H           -0.72577041577167       -1.03899933388884       -1.93157079478072
H            1.72483050958940       -1.00388690373545       -1.66475951683423
H            5.85782249802626        1.21073791807767       -1.16272649570976

          :  Hamiltonian                  GFN2-xTB          :
         :: gradient norm              0.000059644672 Eh/a0 ::
         :: HOMO-LUMO gap              1.603453521792 eV    ::
         :: SCC energy              -116.439391525591 Eh    ::
         :: -> dispersion             -0.096749380805 Eh    ::
         :: repulsion energy           1.916824946359 Eh    ::

    * Orbital Energies and Occupations

         #    Occupation            Energy/Eh            Energy/eV
      -------------------------------------------------------------
         1        2.0000           -0.7615362             -20.7225
       ...           ...                  ...                  ...
        93        2.0000           -0.4191864             -11.4066
        94        2.0000           -0.4160570             -11.3215
        95        2.0000           -0.4134635             -11.2509
        96        2.0000           -0.4123747             -11.2213
        97        2.0000           -0.4088043             -11.1241
        98        2.0000           -0.4045193             -11.0075
        99        2.0000           -0.4016492             -10.9294
       100        2.0000           -0.3920860             -10.6692
       101        2.0000           -0.3899509             -10.6111
       102        2.0000           -0.3854481             -10.4886
       103        2.0000           -0.3849235             -10.4743
       104        2.0000           -0.3743705             -10.1871
       105        2.0000           -0.3411547              -9.2833 (HOMO)
       106                         -0.2822289              -7.6798 (LUMO)
       107                         -0.2615462              -7.1170
       108                         -0.2409957              -6.5578
       109                         -0.2330249              -6.3409
       110                         -0.2322802              -6.3207
       111                         -0.2218799              -6.0377
       112                         -0.2192784              -5.9669
       113                         -0.2150704              -5.8524
       114                         -0.2077966              -5.6544
       115                         -0.1960564              -5.3350
       116                         -0.1717585              -4.6738
       ...                                ...                  ...
       203                          0.7576505              20.6167
      -------------------------------------------------------------
                  HL-Gap            0.0589258 Eh            1.6035 eV

     #   Z          covCN         q      C6AA      α(0)
     1   6 C        3.756    -0.105    22.560     6.772
     2   6 C        3.855    -0.015    20.805     6.487
     3   6 C        3.756    -0.105    22.560     6.772
     4   6 C        2.970     0.012    27.750     8.641
     5   6 C        2.926    -0.027    28.684     8.783
     6   6 C        2.913    -0.052    29.300     8.876
     7   6 C        2.900     0.133    25.093     8.213
     8   8 O        1.710    -0.188    17.152     5.592
     9   6 C        2.827     0.098    25.807     8.324
    10   6 C        2.956    -0.047    29.161     8.857
    11   6 C        2.978     0.017    27.628     8.622
    12   6 C        2.924    -0.038    28.937     8.822
    13   6 C        2.920    -0.037    28.925     8.819
    14   6 C        2.929     0.068    26.473     8.438
    15   7 N        2.756    -0.065    22.489     7.043
    16   6 C        2.929     0.058    26.699     8.474
    17   6 C        2.924    -0.059    29.461     8.901
    18   6 C        2.920    -0.033    28.826     8.804
    19   6 C        2.917    -0.045    29.117     8.849
    20   6 C        2.928    -0.036    28.900     8.816
    21   6 C        2.980    -0.014    28.348     8.734
    22   6 C        3.909     0.022    20.138     6.379
    23   6 C        3.761    -0.104    22.529     6.766
    24   6 C        3.761    -0.104    22.532     6.767
    25   6 C        2.978    -0.021    28.524     8.761
    26   6 C        2.920    -0.041    29.028     8.835
    27   6 C        3.053    -0.035    28.806     8.802
    28   6 C        3.101     0.128    25.090     8.208
    29   6 C        2.914    -0.085    30.136     9.002
    30   6 C        2.932     0.058    26.699     8.474
    31   8 O        1.714    -0.229    17.793     5.695
    32   6 C        3.105     0.127    25.083     8.206
    33   6 C        2.909    -0.053    29.321     8.879
    34   6 C        2.926    -0.035    28.880     8.813
    35   6 C        2.920    -0.040    28.995     8.830
    36   6 C        2.913    -0.036    28.908     8.816
    37   6 C        3.057    -0.019    28.415     8.742
    38   6 C        2.920    -0.036    28.898     8.815
    39   6 C        2.924    -0.023    28.576     8.766
    40   6 C        2.832     0.226    23.264     7.904
    41   8 O        0.857    -0.401    21.707     6.247
    42   6 C        2.973    -0.039    28.957     8.827
    43   6 C        2.930    -0.030    28.760     8.795
    44   1 H        0.925     0.039     2.464     2.455
    45   1 H        0.925     0.036     2.497     2.471
    46   1 H        0.925     0.042     2.425     2.435
    47   1 H        0.924     0.041     2.437     2.441
    48   1 H        0.925     0.039     2.465     2.455
    49   1 H        0.925     0.037     2.493     2.469
    50   1 H        0.925     0.042     2.424     2.435
    51   1 H        0.926     0.051     2.310     2.377
    52   1 H        0.926     0.055     2.259     2.351
    53   1 H        0.925     0.063     2.162     2.299
    54   1 H        0.926     0.034     2.525     2.485
    55   1 H        0.926     0.043     2.411     2.428
    56   1 H        0.926     0.023     2.682     2.561
    57   1 H        0.926     0.026     2.639     2.540
    58   1 H        0.926     0.026     2.648     2.545
    59   1 H        0.926     0.030     2.588     2.516
    60   1 H        0.925     0.040     2.452     2.449
    61   1 H        0.925     0.039     2.456     2.451
    62   1 H        0.925     0.032     2.564     2.504
    63   1 H        0.925     0.032     2.553     2.499
    64   1 H        0.925     0.040     2.455     2.450
    65   1 H        0.925     0.040     2.452     2.449
    66   1 H        0.926     0.037     2.484     2.464
    67   1 H        0.926     0.043     2.408     2.427
    68   1 H        0.926     0.043     2.411     2.428
    69   1 H        0.926     0.035     2.521     2.483
    70   1 H        0.926     0.032     2.561     2.502
    71   1 H        0.926     0.033     2.549     2.497
    72   1 H        0.926     0.047     2.359     2.402
    73   1 H        0.926     0.063     2.161     2.299
    74   1 H        0.926     0.068     2.102     2.267

molecular dipole:
                 x           y           z       tot (Debye)
 q only:        1.326      -0.859       0.480
   full:        1.429      -0.998       0.689       4.764

 projected vibrational frequencies (cm⁻¹)
eigval :       -0.00    -0.00     0.00     0.00     0.00     0.00
eigval :        5.33    11.37    16.45    24.35    32.19    37.72
eigval :       46.28    57.80    61.13    72.13    82.51   100.58
eigval :      104.89   124.93   128.58   133.53   141.89   152.14
eigval :      165.11   189.43   192.89   200.73   209.14   213.74
eigval :      216.89   222.82   229.82   248.26   272.02   289.49
eigval :      294.57   303.32   319.28   323.86   337.19   345.45
eigval :      358.18   376.63   382.50   386.95   396.64   409.17
eigval :      415.53   423.48   426.71   435.94   451.68   473.97
eigval :      487.87   496.05   504.24   511.34   520.74   533.15
eigval :      534.20   544.00   544.30   554.84   571.99   586.42
eigval :      591.84   601.41   613.50   627.13   647.79   663.77
eigval :      680.48   683.57   685.82   692.54   701.80   703.63
eigval :      708.98   725.97   741.54   749.27   776.99   777.12
eigval :      778.23   810.98   829.83   831.46   834.16   845.86
eigval :      854.59   865.05   868.05   870.10   871.18   876.12
eigval :      879.25   894.19   897.74   900.04   912.62   913.14
eigval :      920.71   921.23   921.63   924.30   927.84   938.45
eigval :      948.15   956.66   964.17   985.89  1002.99  1013.79
eigval :     1014.72  1059.86  1063.04  1074.70  1077.74  1087.24
eigval :     1110.98  1116.20  1125.38  1134.31  1136.64  1152.54
eigval :     1153.79  1160.25  1162.80  1170.90  1173.29  1185.53
eigval :     1187.16  1187.75  1194.70  1209.59  1226.44  1229.63
eigval :     1237.37  1246.30  1254.89  1258.00  1264.15  1266.62
eigval :     1277.83  1284.49  1289.22  1305.93  1310.43  1310.79
eigval :     1318.27  1329.83  1334.60  1343.91  1353.07  1363.24
eigval :     1379.07  1401.25  1402.70  1404.46  1414.65  1416.59
eigval :     1420.51  1424.97  1438.14  1451.55  1458.03  1463.86
eigval :     1481.65  1482.71  1489.90  1490.69  1493.07  1493.35
eigval :     1495.37  1500.38  1503.14  1505.25  1505.63  1561.16
eigval :     1564.47  1564.68  1584.63  1593.52  1595.74  1597.44
eigval :     1599.64  1605.02  1608.81  1619.26  1683.85  2942.94
eigval :     3027.77  3030.12  3033.22  3034.99  3037.67  3038.91
eigval :     3040.30  3043.13  3043.57  3045.57  3049.22  3053.17
eigval :     3063.74  3077.14  3078.04  3079.64  3082.11  3086.26
eigval :     3090.43  3092.00  3092.23  3092.66  3093.33  3094.04
eigval :     3097.43  3099.51  3105.64  3106.14  3118.96  3122.94

   temp. (K)  partition function   enthalpy   heat capacity  entropy
                                   cal/mol     cal/K/mol   cal/K/mol   J/K/mol
 298.15  VIB  0.330E+17            21142.076    132.935    131.545
         ROT  0.850E+08              888.752      2.981     39.265
         INT  0.280E+25            22030.828    135.916    170.811
         TR   0.129E+29             1481.254      4.968     44.842
         TOT                       23512.0823   140.8839   215.6522   902.2890

       T/K    H(0)-H(T)+PV         H(T)/Eh          T*S/Eh         G(T)/Eh
   ------------------------------------------------------------------------
    298.15    0.374689E-01    0.618625E+00    0.102463E+00    0.516161E+00
   ------------------------------------------------------------------------

         :::::::::::::::::::::::::::::::::::::::::::::::::::::
         ::                  THERMODYNAMIC                  ::
         :::::::::::::::::::::::::::::::::::::::::::::::::::::
         :: total free energy        -114.006405225340 Eh   ::
         ::.................................................::
         :: total energy             -114.522566579231 Eh   ::
         :: zero point energy           0.581155801446 Eh   ::
         :: G(RRHO) w/o ZPVE           -0.064994447556 Eh   ::
         :: G(RRHO) contrib.            0.516161353890 Eh   ::
         :::::::::::::::::::::::::::::::::::::::::::::::::::::

           -------------------------------------------------
          | TOTAL ENERGY             -114.522566579231 Eh   |
          | TOTAL ENTHALPY           -113.903941889599 Eh   |
          | TOTAL FREE ENERGY        -114.006405225340 Eh   |
          | GRADIENT NORM               0.000059587084 Eh/α |
          | HOMO-LUMO GAP               1.603453003445 eV   |
           -------------------------------------------------

 * finished run on 2025/09/04 at 14:17:22.261
