   * xtb version 6.7.1 (edcfbbe) compiled by 'albert@albert-system' on 2024-07-22

   ID    Z sym.   atoms
    1    6 C      1-7, 9-14, 16-30, 32-40, 42, 43
    2    8 O      8, 31, 41
    3    7 N      15
    4    1 H      44-74

          program call               : xtb data2507/gas/IpCm-PhBzAc/IpCm-PhBzAc_gas_T1_crest.xyz --gfn 2 --spinpol --tblite --uhf 2 --ohess vtight --parallel 40 --molden --ceasefiles --namespace data2507/gas/IpCm-PhBzAc/IpCm-PhBzAc_gas_T1_finalOpt
 * total energy  :  -114.4338497 Eh     change       -0.1537444E-07 Eh
 * total energy  :  -114.4340113 Eh     change       -0.1616161E-03 Eh
 * total energy  :  -114.4341377 Eh     change       -0.1264001E-03 Eh
 * total energy  :  -114.4341459 Eh     change       -0.8257110E-05 Eh
 * total energy  :  -114.4341558 Eh     change       -0.9842175E-05 Eh
 * total energy  :  -114.4341613 Eh     change       -0.5563478E-05 Eh
 * total energy  :  -114.4341714 Eh     change       -0.1009711E-04 Eh
 * total energy  :  -114.4341741 Eh     change       -0.2688014E-05 Eh
 * total energy  :  -114.4341774 Eh     change       -0.3277185E-05 Eh
 * total energy  :  -114.4341809 Eh     change       -0.3531131E-05 Eh
 * total energy  :  -114.4342841 Eh     change       -0.4590407E-06 Eh
 * total energy  :  -114.4342845 Eh     change       -0.4400687E-06 Eh
 * total energy  :  -114.4342848 Eh     change       -0.3039353E-06 Eh
 * total energy  :  -114.4342853 Eh     change       -0.4280789E-06 Eh
 * total energy  :  -114.4342856 Eh     change       -0.3049832E-06 Eh
 * total energy  :  -114.4342858 Eh     change       -0.2356624E-06 Eh
 * total energy  :  -114.4342861 Eh     change       -0.3439589E-06 Eh
 * total energy  :  -114.4342861 Eh     change        0.3751282E-08 Eh
 * total energy  :  -114.4342861 Eh     change       -0.2180428E-08 Eh
   *** GEOMETRY OPTIMIZATION CONVERGED AFTER 69 ITERATIONS ***

 final structure:
================
74
 xtb: 6.7.1 (edcfbbe)
C            9.04251709238387        0.42606054211143       -2.64617651258060
C            9.27858516298923        0.21012585138633       -1.14975536143780
C            9.55042812209102       -1.26631565924940       -0.85249254734278
C            8.10420343799607        0.70563893710727       -0.34419979133375
C            8.25723691448205        1.71854997638635        0.58920973492984
C            7.18139040013908        2.18724593575881        1.32926699210341
C            5.91584466327290        1.63720821909769        1.13783515045522
O            4.89903279820086        2.11289353255038        1.88309742990569
C            3.65667761512815        1.58251016546670        1.70483334159622
C            3.34904441252492        0.55868582360088        0.79069265463804
C            1.99697157375738        0.10816103683928        0.61198937241472
C            0.97849381846866        0.40380211146318        1.55179201705493
C           -0.28996351205135       -0.09391555855974        1.41166127303447
C           -0.62592056085236       -0.90791693638657        0.32315635174257
N           -1.92782340831779       -1.42947751139247        0.18489877848957
C           -2.10541873948094       -2.80579203815550        0.21424172160514
C           -1.00780169757731       -3.64475423824731        0.45034415142048
C           -1.15076020085089       -5.01417655476708        0.46091296601825
C           -2.39819286295986       -5.57970217742023        0.25404287997036
C           -3.49252789806184       -4.75543154752265        0.07511728228362
C           -3.37771609560828       -3.37125240164091        0.06143630128452
C           -4.62482201966127       -2.52553959544192       -0.07311843618689
C           -5.55789080062346       -2.85056234186311        1.10879367997485
C           -5.31388883453239       -2.86607166665831       -1.40827054651439
C           -4.31467668279623       -1.04209216385207       -0.06141605252422
C           -5.36325323939525       -0.14720465900330       -0.17925659320472
C           -5.12106943700446        1.21874098231629       -0.23087680862565
C           -3.78891091398116        1.67914426928487       -0.19982982043436
C           -2.72666716185487        0.81605413328362       -0.08537866835736
C           -2.99090779411393       -0.55919191577239        0.02461466932702
O           -3.72248300844599        3.03294949680214       -0.30172528392595
C           -5.01177187726672        3.46955677601425       -0.39391727839661
C           -5.42780075023161        4.78122062728585       -0.51063679635458
C           -6.79234902061200        5.00976535950581       -0.59135902564110
C           -7.70843654236352        3.96163689797117       -0.55686904226346
C           -7.29287266908728        2.65015838627229       -0.44034902071149
C           -5.92807079427795        2.39606342726004       -0.35706750444748
C            0.35763630678188       -1.18602736122866       -0.63626396889478
C            1.61994106627782       -0.67444530317848       -0.50052162857056
C            4.41146433917839        0.00113809594103       -0.00290420421034
O            4.28195912411214       -0.93817258209867       -0.81390941169332
C            5.73973490343667        0.61301583088960        0.19791595615510
C            6.83459603692325        0.15598323554745       -0.52259471448038
H            8.18851695333863       -0.15240240109177       -2.98824192894941
H            8.84962673901706        1.47691204101842       -2.85117013171248
H            9.91765387301881        0.11678962220215       -3.21378197778619
H           10.16239398947681        0.78782710499770       -0.85563929053099
H            8.70292528057057       -1.87973585708895       -1.14660825470409
H            9.72648706579066       -1.41209279998322        0.21112728548494
H           10.42790178445239       -1.60523382191340       -1.39919994802741
H            9.23183712090379        2.15707534178438        0.74938524390156
H            7.30445066963954        2.96574114555177        2.06532362777080
H            2.94396559195924        2.04327525234998        2.36265719767835
H            1.21305863135219        0.97618787149531        2.43340682890298
H           -1.04049760074840        0.10935239594504        2.16224934014766
H           -0.03646085380376       -3.21610276979018        0.63537051556167
H           -0.28856191127794       -5.63864390123348        0.63696901975815
H           -2.52129843235558       -6.65164205796531        0.25211887027276
H           -4.46348613816931       -5.20850651754481       -0.05300095094374
H           -5.81796125671267       -3.90498022929926        1.11943596895286
H           -6.47659628041327       -2.27472003338287        1.04740640022932
H           -5.06324014790383       -2.60955581892485        2.04770841495936
H           -4.65012097663684       -2.63003805659364       -2.23768183927473
H           -6.22976712929492       -2.29523826675646       -1.52949628244694
H           -5.56249630722710       -3.92220733906545       -1.45744224562656
H           -6.38088200801841       -0.49766986665794       -0.24095372924703
H           -1.71931802513906        1.19491358682956       -0.09484364500413
H           -4.71405142759422        5.58861169849898       -0.53734678621535
H           -7.15201876848062        6.02328092979870       -0.68316160734254
H           -8.76325428115357        4.18276618965913       -0.62276057227260
H           -8.00423519751383        1.83903344585922       -0.41335129279320
H            0.09466984619191       -1.77701412305846       -1.50138254105284
H            2.35923185163365       -0.86512140532048       -1.26531349423203
H            6.66366414167626       -0.63646033539683       -1.23432412463606

 projected vibrational frequencies (cm⁻¹)
eigval :       -0.00    -0.00    -0.00     0.00     0.00     0.00
eigval :        7.90    13.70    16.39    32.37    32.45    39.19
eigval :       51.71    55.85    69.26    73.80    87.50   103.01
eigval :      110.60   115.31   126.13   132.08   138.70   152.30
eigval :      165.06   188.60   189.48   200.32   214.35   216.32
eigval :      222.87   226.24   241.95   268.92   271.07   284.82
eigval :      292.53   299.36   314.57   322.11   331.46   334.81
eigval :      345.94   368.06   376.06   385.93   395.32   397.04
eigval :      411.57   416.41   426.25   437.04   442.54   455.01
eigval :      467.33   480.48   485.58   507.21   519.03   520.68
eigval :      522.90   530.07   539.65   541.87   553.27   562.37
eigval :      570.61   587.94   596.84   609.71   620.91   649.03
eigval :      650.18   657.57   667.75   675.21   684.50   697.11
eigval :      701.37   703.52   708.75   723.71   727.91   771.55
eigval :      774.83   777.11   780.20   797.59   810.48   825.95
eigval :      835.08   842.81   855.98   862.00   867.80   869.09
eigval :      870.19   874.16   889.93   896.17   898.10   899.27
eigval :      907.17   914.93   917.81   920.59   924.85   936.55
eigval :      946.50   953.39   957.69   984.05   985.24  1004.10
eigval :     1014.23  1023.93  1037.32  1060.32  1072.19  1074.52
eigval :     1085.63  1089.30  1114.11  1121.93  1135.10  1136.25
eigval :     1138.84  1148.29  1154.14  1158.86  1161.01  1170.43
eigval :     1180.49  1185.54  1187.77  1192.90  1211.10  1221.93
eigval :     1225.09  1229.91  1232.80  1242.67  1248.82  1252.84
eigval :     1264.73  1268.39  1282.65  1287.51  1299.07  1307.42
eigval :     1311.62  1316.36  1320.57  1327.44  1331.80  1352.52
eigval :     1354.95  1368.54  1402.32  1402.52  1406.74  1407.66
eigval :     1416.30  1418.70  1418.87  1422.06  1426.61  1438.22
eigval :     1447.18  1453.28  1458.60  1468.80  1475.84  1478.89
eigval :     1486.85  1487.72  1493.77  1494.08  1497.63  1501.82
eigval :     1502.06  1505.47  1533.00  1537.57  1541.69  1555.92
eigval :     1569.64  1584.01  1587.86  1589.23  1592.30  2925.33
eigval :     3025.44  3030.51  3030.64  3032.13  3033.47  3034.93
eigval :     3045.65  3045.90  3048.06  3049.11  3054.34  3057.61
eigval :     3058.01  3074.23  3074.87  3082.70  3083.68  3086.68
eigval :     3090.85  3093.05  3098.19  3102.31  3102.80  3103.17
eigval :     3104.43  3109.93  3115.48  3117.02  3130.18  3138.53

   temp. (K)  partition function   enthalpy   heat capacity  entropy
                                   cal/mol     cal/K/mol   cal/K/mol   J/K/mol
 298.15  VIB  0.136E+17            21403.447    135.692    132.086
         ROT  0.831E+08              888.752      2.981     39.219
         INT  0.113E+25            22292.199    138.673    171.304
         TR   0.129E+29             1481.254      4.968     44.842
         TOT                       23773.4531   143.6410   216.1460   904.3549

       T/K    H(0)-H(T)+PV         H(T)/Eh          T*S/Eh         G(T)/Eh
   ------------------------------------------------------------------------
    298.15    0.378854E-01    0.613575E+00    0.102698E+00    0.510878E+00
   ------------------------------------------------------------------------

         :::::::::::::::::::::::::::::::::::::::::::::::::::::
         ::                  THERMODYNAMIC                  ::
         :::::::::::::::::::::::::::::::::::::::::::::::::::::
         :: total free energy        -113.923408600927 Eh   ::
         ::.................................................::
         :: total energy             -114.434286131270 Eh   ::
         :: zero point energy           0.575690066778 Eh   ::
         :: G(RRHO) w/o ZPVE           -0.064812536436 Eh   ::
         :: G(RRHO) contrib.            0.510877530342 Eh   ::
         :::::::::::::::::::::::::::::::::::::::::::::::::::::

           -------------------------------------------------
          | TOTAL ENERGY             -114.434286131270 Eh   |
          | TOTAL ENTHALPY           -113.820710655448 Eh   |
          | TOTAL FREE ENERGY        -113.923408600927 Eh   |
          | GRADIENT NORM               0.000123178347 Eh/α |
           -------------------------------------------------

 * finished run on 2025/09/04 at 14:29:39.129
