   * xtb version 6.7.1 (edcfbbe) compiled by 'albert@albert-system' on 2024-07-22

   ID    Z sym.   atoms
    1    6 C      1-6, 8-47, 49-54
    2    7 N      7
    3   16 S      48
    4    1 H      55-97

          program call               : xtb data2507/gas/DNFPh/DNFPh_gas_T1_crest.xyz --gfn 2 --spinpol --tblite --uhf 2 --ohess vtight --parallel 40 --molden --ceasefiles --namespace data2507/gas/DNFPh/DNFPh_gas_T1_finalOpt
 * total energy  :  -139.4066789 Eh     change       -0.3579544E-07 Eh
 * total energy  :  -139.4067343 Eh     change       -0.5542540E-04 Eh
 * total energy  :  -139.4067512 Eh     change       -0.1687071E-04 Eh
 * total energy  :  -139.4067537 Eh     change       -0.2465241E-05 Eh
 * total energy  :  -139.4067566 Eh     change       -0.2917815E-05 Eh
 * total energy  :  -139.4067584 Eh     change       -0.1842060E-05 Eh
 * total energy  :  -139.4067614 Eh     change       -0.2911883E-05 Eh
 * total energy  :  -139.4067642 Eh     change       -0.2856806E-05 Eh
 * total energy  :  -139.4067676 Eh     change       -0.3387680E-05 Eh
 * total energy  :  -139.4067711 Eh     change       -0.3501695E-05 Eh
 * total energy  :  -139.4068215 Eh     change        0.9531860E-07 Eh
 * total energy  :  -139.4068218 Eh     change       -0.3110789E-06 Eh
 * total energy  :  -139.4068219 Eh     change       -0.1547893E-06 Eh
 * total energy  :  -139.4068221 Eh     change       -0.1886698E-06 Eh
 * total energy  :  -139.4068222 Eh     change       -0.1269842E-06 Eh
 * total energy  :  -139.4068225 Eh     change       -0.2187325E-06 Eh
 * total energy  :  -139.4068228 Eh     change       -0.3336634E-06 Eh
 * total energy  :  -139.4068230 Eh     change       -0.1986761E-06 Eh
 * total energy  :  -139.4068230 Eh     change       -0.1155547E-07 Eh
   *** GEOMETRY OPTIMIZATION CONVERGED AFTER 56 ITERATIONS ***

 final structure:
================
97
 xtb: 6.7.1 (edcfbbe)
C            7.01384645264980       -4.35526579436496        3.09625509206626
C            6.11608168937376       -3.86095964500911        1.96928397168651
C            5.63703167460777       -5.00923519520793        1.08181358560797
C            4.73110893094061       -4.53151958394909       -0.05348289274232
C            5.51073515170785       -3.87098724762364       -1.19277291238524
C            4.62405051933762       -2.91966790657601       -2.00500881635469
N            4.11003717089564       -1.86115846824166       -1.16289435172323
C            2.73104397202085       -1.64415935206027       -1.08110817049487
C            1.93539331102245       -1.76945839011765       -2.21345236964601
C            0.46251020287556       -1.58097817266701       -2.20242169402570
C           -0.09065502546894       -1.06288804345512       -0.90081138552072
C           -1.42304704273415       -0.63391808472788       -0.90516983702327
C           -2.04725558345953        0.16905067668126        0.19105763870042
C           -1.50327937484373        1.58638618456302        0.17444435076443
C           -0.20936473288756        2.01580579071889        0.34181562997911
C            0.08796604924872        3.37359984820611        0.21222092718837
C            1.48291145692603        3.80924354081893        0.38441608407786
C            1.77830251362937        4.80763425190917        1.28263337943329
C            3.10187092508875        5.18341205550025        1.54247786753825
C            4.13280591903502        4.55730156420255        0.90080827583261
C            3.87812990580992        3.55419054403471       -0.05731783740272
C            4.92871775205619        2.93513441297927       -0.76630997738539
C            4.67179810511707        1.99967218594990       -1.72707439486854
C            3.34861691142482        1.64106607453173       -2.01899967891147
C            2.30843097474448        2.21512991613144       -1.34320676499444
C            2.53708944224288        3.17517980797488       -0.33365891719247
C           -0.93810967458528        4.28046132593730       -0.04565241485659
C           -2.24703317082320        3.85518468133042       -0.19645661606505
C           -2.53196335209509        2.50180577678131       -0.09609942264379
C           -3.78047802036945        1.77033421102687       -0.21505109795202
C           -5.07336662898586        2.20319082115904       -0.46335838222716
C           -6.09035359127974        1.26727223830783       -0.52228708065370
C           -5.83564925410067       -0.09232962013421       -0.34149771999668
C           -6.92566935839119       -1.07781728691324       -0.44625261177994
C           -6.81191961395214       -2.10507436371680       -1.35357122753864
C           -7.84294937802567       -3.03520462282532       -1.53232983875092
C           -8.99202446382766       -2.93700334893524       -0.79974342629855
C           -9.14217122193297       -1.91833867507226        0.16374485904931
C          -10.30949302346589       -1.81644366214451        0.94970073479591
C          -10.43139856714579       -0.84602169700352        1.90309116643231
C           -9.38079806662057        0.05702732920887        2.12340385201940
C           -8.24028839135947       -0.00914843823416        1.37272488048427
C           -8.09375899561972       -0.97953167747690        0.35838304287834
C           -4.52955780818882       -0.52526040820969       -0.10672112819483
C           -3.51646046457519        0.40316083264426       -0.03500724169610
C            0.72751263829865       -1.01817345420093        0.19975383962625
C            2.13734521838466       -1.26127858301078        0.11470484074158
S            3.08384106127117       -0.96897297597571        1.55799102930536
C            4.63381183676598       -0.53841124693281        0.80866581770172
C            5.49391645553306        0.27589128451226        1.52088276459205
C            6.75637348825736        0.55502498262460        1.02595584077846
C            7.13655867002039        0.02282406399095       -0.19174153727740
C            6.26171872697101       -0.76496251997578       -0.91926082005504
C            4.98831057105729       -1.06774478103181       -0.43537972389829
H            7.33676247396260       -3.52414173792926        3.71874581071480
H            6.48251519805468       -5.06813709769041        3.72327649643638
H            7.89740720403362       -4.84672360099697        2.69388327363791
H            5.24773296988653       -3.35244391149678        2.39450886274460
H            6.66284448943990       -3.12660844515695        1.37372696018356
H            6.49872095000470       -5.53636233404444        0.66499206550719
H            5.08504528827162       -5.71886736692597        1.70239941686505
H            4.01346732442135       -3.81908084356416        0.35829789294251
H            4.16191827000810       -5.37505801022722       -0.45072878837841
H            5.91447645188818       -4.63300824272395       -1.86193315663748
H            6.35080972312772       -3.31084157931240       -0.78234533643430
H            3.76901702034983       -3.47906627145793       -2.38782684131832
H            5.18079405266818       -2.52078408608367       -2.86254716661317
H            2.38754049985697       -1.97916533586391       -3.16991381215221
H            0.17342224572354       -0.90753448996469       -3.02195898595886
H           -0.04005244772782       -2.53784697264031       -2.42608666427367
H           -2.00012576345579       -0.74293028617771       -1.81089901262619
H           -1.86018288202214       -0.30183502316556        1.16342173985203
H            0.58519101974025        1.32605168737779        0.57557053016370
H            0.97493168784157        5.28911082971195        1.82202098774177
H            3.29795347212513        5.96210584870237        2.26534717354398
H            5.15852705975154        4.82699028284359        1.10848297233971
H            5.94496100040637        3.22755491347379       -0.54356560800599
H            5.48232352814314        1.54230246584932       -2.27427553895803
H            3.15241781794136        0.91023403768673       -2.79013372891550
H            1.29406711119292        1.94643439854471       -1.59712858255073
H           -0.69899303081688        5.32949304623956       -0.14650369577813
H           -3.03255584734243        4.56856046435112       -0.39828344233157
H           -5.28626854370801        3.25149147518683       -0.61209215185984
H           -7.10147333017502        1.58593848787792       -0.73243104541097
H           -5.91967132343135       -2.17986972520210       -1.95907673365086
H           -7.72398883319792       -3.82254362706269       -2.26257630959533
H           -9.79958584205223       -3.64104879410632       -0.94158169452148
H          -11.10499630006019       -2.52983723750173        0.78576620913000
H          -11.32842661144344       -0.77513627585052        2.50094172052603
H           -9.47773721925986        0.80459748352264        2.89735079978361
H           -7.42861004686529        0.67785221620773        1.56084745279840
H           -4.32771385405043       -1.57780949904550        0.03317140396268
H            0.33467089590020       -0.78272652842166        1.17644516730900
H            5.17558124240957        0.66373840474065        2.47649530420795
H            7.43483786507018        1.17254437003606        1.59352815913618
H            8.12072597423126        0.22387768175704       -0.58886091537300
H            6.57373909341033       -1.14911320422368       -1.87773802699679

 projected vibrational frequencies (cm⁻¹)
eigval :       -0.00    -0.00    -0.00     0.00     0.00     0.00
eigval :        8.55    13.39    14.33    17.84    18.28    25.70
eigval :       32.53    38.75    41.45    43.18    50.58    58.52
eigval :       66.77    67.11    75.84    78.83    86.53    94.46
eigval :      117.50   131.49   137.56   147.39   154.41   157.05
eigval :      161.71   167.60   177.55   180.85   196.36   199.92
eigval :      210.59   220.44   232.69   235.77   265.12   266.29
eigval :      268.80   272.89   282.33   293.19   304.38   314.42
eigval :      321.61   327.52   353.06   355.38   369.43   385.35
eigval :      388.96   398.22   403.61   413.42   413.99   417.20
eigval :      430.49   434.31   437.64   441.22   451.76   458.17
eigval :      466.96   474.73   493.01   495.72   499.99   504.90
eigval :      508.75   516.62   524.23   527.63   539.79   547.17
eigval :      558.00   572.23   578.20   589.93   595.40   604.50
eigval :      609.01   622.26   626.54   642.23   645.27   652.61
eigval :      655.67   665.34   675.44   690.76   706.02   719.73
eigval :      724.64   726.28   727.71   763.06   763.66   768.55
eigval :      771.78   772.57   778.54   779.82   785.79   793.37
eigval :      812.72   814.22   824.20   828.71   833.48   841.61
eigval :      844.69   863.13   869.54   869.78   874.23   878.13
eigval :      880.82   888.36   891.64   897.43   898.20   898.57
eigval :      901.08   903.91   912.56   913.75   916.01   916.49
eigval :      920.35   922.29   926.04   926.84   929.53   935.04
eigval :      935.93   973.39   985.44   994.61   998.95  1008.66
eigval :     1021.62  1043.14  1048.39  1062.97  1082.87  1085.73
eigval :     1086.98  1092.73  1098.72  1103.29  1109.01  1113.38
eigval :     1121.18  1123.16  1126.25  1130.36  1133.12  1135.02
eigval :     1135.38  1141.76  1154.93  1159.96  1162.94  1166.84
eigval :     1171.26  1176.41  1180.89  1181.33  1182.63  1185.72
eigval :     1189.11  1190.02  1201.28  1202.57  1209.98  1220.29
eigval :     1221.59  1224.44  1227.76  1241.23  1243.15  1247.60
eigval :     1249.82  1253.75  1271.20  1273.78  1275.11  1281.64
eigval :     1287.44  1288.57  1299.50  1307.41  1309.53  1318.69
eigval :     1319.41  1323.03  1325.89  1334.76  1336.73  1339.36
eigval :     1349.70  1358.03  1369.15  1370.64  1376.04  1380.66
eigval :     1392.13  1392.81  1412.40  1414.99  1416.59  1419.83
eigval :     1420.98  1422.87  1437.86  1439.79  1448.86  1452.22
eigval :     1456.21  1465.16  1476.15  1477.32  1481.77  1484.64
eigval :     1491.03  1495.62  1499.36  1504.68  1507.11  1508.99
eigval :     1509.84  1534.95  1559.76  1564.67  1565.18  1568.14
eigval :     1582.17  1584.60  1595.80  1596.39  1597.10  1605.84
eigval :     1610.43  1611.31  2793.70  2878.19  2890.99  2891.52
eigval :     2958.99  2964.13  2971.44  2977.49  2981.01  2985.29
eigval :     2990.42  2992.12  3010.03  3027.30  3031.76  3037.98
eigval :     3066.40  3067.77  3068.96  3071.52  3072.50  3073.39
eigval :     3073.99  3074.65  3075.17  3076.07  3076.59  3078.48
eigval :     3081.04  3083.77  3084.03  3085.65  3086.19  3087.25
eigval :     3089.18  3089.45  3089.98  3092.20  3092.50  3095.43
eigval :     3099.03  3103.14  3113.05

   temp. (K)  partition function   enthalpy   heat capacity  entropy
                                   cal/mol     cal/K/mol   cal/K/mol   J/K/mol
 298.15  VIB  0.664E+22            27311.136    170.196    170.742
         ROT  0.130E+09              888.752      2.981     40.110
         INT  0.863E+30            28199.889    173.177    210.852
         TR   0.185E+29             1481.254      4.968     45.557
         TOT                       29681.1427   178.1447   256.4084  1072.8127

       T/K    H(0)-H(T)+PV         H(T)/Eh          T*S/Eh         G(T)/Eh
   ------------------------------------------------------------------------
    298.15    0.472999E-01    0.821415E+00    0.121828E+00    0.699587E+00
   ------------------------------------------------------------------------

         :::::::::::::::::::::::::::::::::::::::::::::::::::::
         ::                  THERMODYNAMIC                  ::
         :::::::::::::::::::::::::::::::::::::::::::::::::::::
         :: total free energy        -138.707236217604 Eh   ::
         ::.................................................::
         :: total energy             -139.406823067939 Eh   ::
         :: zero point energy           0.774114835358 Eh   ::
         :: G(RRHO) w/o ZPVE           -0.074527985023 Eh   ::
         :: G(RRHO) contrib.            0.699586850334 Eh   ::
         :::::::::::::::::::::::::::::::::::::::::::::::::::::

           -------------------------------------------------
          | TOTAL ENERGY             -139.406823067939 Eh   |
          | TOTAL ENTHALPY           -138.585408320905 Eh   |
          | TOTAL FREE ENERGY        -138.707236217604 Eh   |
          | GRADIENT NORM               0.000082352521 Eh/α |
           -------------------------------------------------

 * finished run on 2025/09/09 at 19:30:57.598
