   * xtb version 6.7.1 (edcfbbe) compiled by 'albert@albert-system' on 2024-07-22

   ID    Z sym.   atoms
    1    6 C      1-6, 8-47, 49-54
    2    7 N      7
    3   16 S      48
    4    1 H      55-97

          program call               : xtb data2507/gas/DNFPh/DNFPh_gas_S0_crest.xyz --gfn 2 --ohess vtight --parallel 40 --molden --ceasefiles --namespace data2507/gas/DNFPh/DNFPh_gas_S0_finalOpt
          :  Hamiltonian                  GFN2-xTB          :
 * total energy  :  -139.4707485 Eh     change       -0.7086669E-08 Eh
 * total energy  :  -139.4707495 Eh     change       -0.1020917E-05 Eh
 * total energy  :  -139.4707513 Eh     change       -0.1778092E-05 Eh
 * total energy  :  -139.4707525 Eh     change       -0.1210916E-05 Eh
 * total energy  :  -139.4707531 Eh     change       -0.6243196E-06 Eh
 * total energy  :  -139.4707540 Eh     change       -0.8270030E-06 Eh
 * total energy  :  -139.4707550 Eh     change       -0.9999826E-06 Eh
 * total energy  :  -139.4707557 Eh     change       -0.7234959E-06 Eh
 * total energy  :  -139.4707563 Eh     change       -0.6196948E-06 Eh
 * total energy  :  -139.4707571 Eh     change       -0.7633519E-06 Eh
 * total energy  :  -139.4707688 Eh     change       -0.1356084E-06 Eh
 * total energy  :  -139.4707690 Eh     change       -0.1300172E-06 Eh
 * total energy  :  -139.4707691 Eh     change       -0.1395150E-06 Eh
 * total energy  :  -139.4707693 Eh     change       -0.1586011E-06 Eh
 * total energy  :  -139.4707694 Eh     change       -0.1696801E-06 Eh
 * total energy  :  -139.4707696 Eh     change       -0.1500830E-06 Eh
 * total energy  :  -139.4707697 Eh     change       -0.1240759E-06 Eh
 * total energy  :  -139.4707698 Eh     change       -0.1038467E-06 Eh
 * total energy  :  -139.4707699 Eh     change       -0.9838087E-07 Eh
   *** GEOMETRY OPTIMIZATION CONVERGED AFTER 41 ITERATIONS ***

 final structure:
================
97
 xtb: 6.7.1 (edcfbbe)
C            1.59635501075558       -5.58444459003800       -2.57648117028487
C            2.65395013008726       -6.41777687224229       -1.86134377048512
C            2.87210067974713       -5.99058035732098       -0.40937276632435
C            3.52980078204862       -4.61937530392920       -0.28707419481077
C            3.71769555661957       -4.20296361778312        1.17004103667864
C            4.30822519377586       -2.79144988496625        1.27299431088029
N            3.46573038116970       -1.83853951977647        0.58657485290562
C            2.15974418612343       -1.62751932863851        1.02290521597904
C            1.73254298465385       -1.85449862593833        2.27813513056191
C            0.31802765133811       -1.58827901910165        2.71067574779415
C           -0.35198637448192       -0.57372863921778        1.82718457657806
C           -1.09108447789271        0.43614482486125        2.29843221723221
C           -1.66305667097711        1.54776122871579        1.45231659710773
C           -0.66857750140063        2.05072455258409        0.43189171728334
C            0.61139302317402        2.50734791557845        0.64499014570950
C            1.44583153666121        2.73881594438854       -0.45271234220455
C            2.84915924895926        3.14620464422994       -0.28272660949249
C            3.34367881734552        4.16398501178691       -1.06819440084429
C            4.66396948397317        4.60973055109669       -0.94927677107893
C            5.49759165711807        4.04570449761429       -0.02615414269474
C            5.04212847925086        2.99995261558908        0.80157655462467
C            5.89001630870697        2.42077278458541        1.76885158873722
C            5.45261390179534        1.40718874816956        2.57239971573812
C            4.15527899811112        0.90327150591531        2.41006979780930
C            3.31525870669071        1.43389667909471        1.47137139190675
C            3.70999518797026        2.52246333919843        0.66590363744772
C            0.93231362759799        2.58193536195786       -1.74162795888542
C           -0.37654923899854        2.19465748288978       -1.96139775016920
C           -1.17854070101941        1.91122907528531       -0.86811923390766
C           -2.52115383868409        1.36462602399163       -0.77879030847172
C           -3.44394701095323        1.04319428269269       -1.76133141648678
C           -4.65400856715336        0.48905109596538       -1.38390689938572
C           -4.95188937774523        0.24461984893167       -0.04342870493716
C           -6.22653442868444       -0.38821819030485        0.33726267862991
C           -6.19992601916804       -1.55348293589336        1.06722541732045
C           -7.38045721639645       -2.22374372635136        1.40965022931623
C           -8.59172985816280       -1.72527055139261        1.02091475520926
C           -8.67023483950560       -0.51833721610867        0.29585500992171
C           -9.91245313519625        0.02688826018930       -0.09184963695052
C           -9.97883175497492        1.21277139340553       -0.76626646266404
C           -8.80259403634714        1.91470349088808       -1.06892366973226
C           -7.58278201848158        1.40943415426232       -0.71492033568631
C           -7.47613353365820        0.17226532431237       -0.04406883604515
C           -4.01447566991022        0.55853370934933        0.94222791399357
C           -2.81529540697779        1.12169790434473        0.57269830863904
C           -0.03605759268645       -0.73089014319541        0.42029040785421
C            1.17433809381102       -1.17226790555819        0.05101604269822
S            1.59864571719686       -1.25456706936883       -1.66147697308685
C            3.23539177554302       -0.60099983193258       -1.48009555904341
C            3.73162187498323        0.26778005420123       -2.43471898245045
C            5.01896747458592        0.75751705531864       -2.31933188632308
C            5.80189217053411        0.36408176313934       -1.24718529202949
C            5.30386860142262       -0.49858871262685       -0.29043107598812
C            4.00296195199894       -0.99459880692833       -0.38063220147845
H            0.65443098893631       -5.61819703297422       -2.03303374064576
H            1.90300508318334       -4.54564974545128       -2.66402461356524
H            1.42695608024720       -5.97142243209615       -3.57880235947443
H            2.34379037930149       -7.46566985421083       -1.87342344885149
H            3.60002771977263       -6.34788015036700       -2.40313494992611
H            1.90897191370838       -5.97501718778094        0.10667769303879
H            3.50185022845551       -6.73254468931008        0.08893834720171
H            2.90730425312622       -3.87684774134987       -0.78637639344915
H            4.49991203409874       -4.63451347119007       -0.79044000018160
H            4.38956394281049       -4.89913975916000        1.67624452857033
H            2.75252307628483       -4.23637668662986        1.67779788533585
H            5.28091826660408       -2.79042371304385        0.77985102389339
H            4.45873416196999       -2.51529672025072        2.32430236248860
H            2.38362793098961       -2.26764117289792        3.03124366448971
H           -0.24803610167106       -2.53167043906909        2.67184101424289
H            0.30884787965404       -1.25451638041399        3.75037884042825
H           -1.26831296814991        0.50687507398566        3.36301396978656
H           -1.98414920196541        2.35703440761833        2.11707904133179
H            0.97102259350763        2.67810617712082        1.64908786421271
H            2.68920599500926        4.65211316812245       -1.77604879662385
H            5.01037871595915        5.41261756072675       -1.58395660163758
H            6.51411402664415        4.39460759974815        0.08794035839597
H            6.89755525167655        2.80140527725832        1.86301762434399
H            6.10423711434889        0.97901667082065        3.32078770379393
H            3.81887342370959        0.08142981660285        3.02536641920046
H            2.33512049572595        1.00455562349259        1.33832071469599
H            1.58651263916361        2.74414967615471       -2.58571813035447
H           -0.75198634346541        2.08032952911405       -2.96751129793460
H           -3.22314468829254        1.21675293845849       -2.80411647337005
H           -5.37790513662085        0.21607144106531       -2.13848055844827
H           -5.24732393854871       -1.97300322182356        1.35875907252679
H           -7.32164959655765       -3.14324974179952        1.97390008915673
H           -9.50746548718293       -2.24331142119845        1.26793805697188
H          -10.81405006641310       -0.51226842414626        0.16323063257451
H          -10.93411052620190        1.62346387213570       -1.05932096024905
H           -8.86845807492045        2.86369167036184       -1.58114546503714
H           -6.68286935104951        1.96412371609061       -0.93555931184065
H           -4.24395650440184        0.36969034910752        1.98124302759465
H           -0.75758362180740       -0.44708529302732       -0.32509949347187
H            3.10354775631861        0.54144020888035       -3.26847124830620
H            5.40642877030288        1.44145911910799       -3.05819318491534
H            6.80767732923988        0.74264030322598       -1.14461978217335
H            5.92232588553303       -0.76716043452598        0.55173478387617

          :  Hamiltonian                  GFN2-xTB          :
         :: gradient norm              0.000023651107 Eh/a0 ::
         :: HOMO-LUMO gap              2.103796999527 eV    ::
         :: SCC energy              -142.011751187314 Eh    ::
         :: -> dispersion             -0.151798739212 Eh    ::
         :: repulsion energy           2.540981278086 Eh    ::

    * Orbital Energies and Occupations

         #    Occupation            Energy/Eh            Energy/eV
      -------------------------------------------------------------
         1        2.0000           -0.7098720             -19.3166
       ...           ...                  ...                  ...
       119        2.0000           -0.4056485             -11.0383
       120        2.0000           -0.4053931             -11.0313
       121        2.0000           -0.4028694             -10.9626
       122        2.0000           -0.3992049             -10.8629
       123        2.0000           -0.3969706             -10.8021
       124        2.0000           -0.3966875             -10.7944
       125        2.0000           -0.3897693             -10.6062
       126        2.0000           -0.3847521             -10.4696
       127        2.0000           -0.3816881             -10.3863
       128        2.0000           -0.3716404             -10.1128
       129        2.0000           -0.3617659              -9.8442
       130        2.0000           -0.3495455              -9.5116
       131        2.0000           -0.3427052              -9.3255 (HOMO)
       132                         -0.2653920              -7.2217 (LUMO)
       133                         -0.2580129              -7.0209
       134                         -0.2570937              -6.9959
       135                         -0.2390847              -6.5058
       136                         -0.2279541              -6.2029
       137                         -0.2247981              -6.1171
       138                         -0.2247272              -6.1151
       139                         -0.2207999              -6.0083
       140                         -0.2190544              -5.9608
       141                         -0.2162490              -5.8844
       142                         -0.2000882              -5.4447
       ...                                ...                  ...
       264                          0.7368156              20.0498
      -------------------------------------------------------------
                  HL-Gap            0.0773132 Eh            2.1038 eV

     #   Z          covCN         q      C6AA      α(0)
     1   6 C        3.751    -0.103    22.521     6.768
     2   6 C        3.800    -0.052    21.510     6.603
     3   6 C        3.802    -0.057    21.599     6.617
     4   6 C        3.803    -0.059    21.629     6.621
     5   6 C        3.803    -0.063    21.707     6.633
     6   6 C        3.747     0.004    20.584     6.471
     7   7 N        2.745    -0.080    22.804     7.092
     8   6 C        2.938     0.056    26.738     8.481
     9   6 C        2.910    -0.074    29.858     8.960
    10   6 C        3.815    -0.055    21.549     6.607
    11   6 C        2.957     0.007    27.867     8.659
    12   6 C        2.901    -0.050    29.247     8.867
    13   6 C        3.891    -0.020    20.879     6.496
    14   6 C        3.051     0.003    27.910     8.664
    15   6 C        2.918    -0.040    28.989     8.829
    16   6 C        2.979     0.008    27.834     8.654
    17   6 C        2.972     0.004    27.921     8.667
    18   6 C        2.925    -0.036    28.903     8.817
    19   6 C        2.913    -0.031    28.780     8.797
    20   6 C        2.920    -0.038    28.944     8.822
    21   6 C        2.988     0.012    27.734     8.639
    22   6 C        2.921    -0.036    28.891     8.814
    23   6 C        2.915    -0.031    28.772     8.796
    24   6 C        2.917    -0.031    28.779     8.797
    25   6 C        2.918    -0.034    28.856     8.809
    26   6 C        2.985     0.009    27.815     8.651
    27   6 C        2.928    -0.035    28.881     8.813
    28   6 C        2.912    -0.032    28.809     8.801
    29   6 C        3.036    -0.000    28.001     8.679
    30   6 C        3.037    -0.001    28.027     8.683
    31   6 C        2.913    -0.035    28.877     8.812
    32   6 C        2.925    -0.037    28.911     8.818
    33   6 C        2.980     0.009    27.818     8.652
    34   6 C        2.975     0.005    27.916     8.667
    35   6 C        2.924    -0.036    28.894     8.815
    36   6 C        2.914    -0.031    28.779     8.797
    37   6 C        2.919    -0.038    28.952     8.824
    38   6 C        2.987     0.012    27.735     8.639
    39   6 C        2.920    -0.036    28.886     8.814
    40   6 C        2.915    -0.030    28.757     8.794
    41   6 C        2.916    -0.031    28.779     8.797
    42   6 C        2.917    -0.035    28.860     8.810
    43   6 C        2.987     0.009    27.813     8.651
    44   6 C        2.919    -0.041    29.020     8.834
    45   6 C        3.049     0.004    27.883     8.660
    46   6 C        2.972    -0.049    29.211     8.865
    47   6 C        2.967     0.037    27.160     8.548
    48  16 S        2.132    -0.157   147.669    20.453
    49   6 C        2.975     0.032    27.278     8.567
    50   6 C        2.963    -0.037    28.925     8.822
    51   6 C        2.920    -0.039    28.968     8.826
    52   6 C        2.919    -0.032    28.807     8.801
    53   6 C        2.925    -0.054    29.339     8.883
    54   6 C        2.963     0.059    26.678     8.472
    55   1 H        0.925     0.034     2.534     2.490
    56   1 H        0.925     0.040     2.442     2.444
    57   1 H        0.925     0.031     2.571     2.507
    58   1 H        0.924     0.027     2.623     2.533
    59   1 H        0.924     0.029     2.601     2.522
    60   1 H        0.924     0.030     2.580     2.512
    61   1 H        0.924     0.025     2.660     2.551
    62   1 H        0.925     0.046     2.367     2.406
    63   1 H        0.924     0.028     2.620     2.531
    64   1 H        0.924     0.033     2.540     2.492
    65   1 H        0.924     0.039     2.458     2.452
    66   1 H        0.924     0.048     2.345     2.395
    67   1 H        0.924     0.029     2.604     2.523
    68   1 H        0.926     0.028     2.621     2.532
    69   1 H        0.923     0.046     2.367     2.406
    70   1 H        0.924     0.043     2.411     2.428
    71   1 H        0.925     0.026     2.650     2.546
    72   1 H        0.924     0.049     2.331     2.388
    73   1 H        0.926     0.030     2.587     2.515
    74   1 H        0.926     0.031     2.571     2.508
    75   1 H        0.926     0.029     2.602     2.523
    76   1 H        0.926     0.029     2.599     2.521
    77   1 H        0.926     0.029     2.601     2.522
    78   1 H        0.926     0.026     2.647     2.544
    79   1 H        0.926     0.025     2.659     2.550
    80   1 H        0.926     0.032     2.553     2.499
    81   1 H        0.926     0.031     2.575     2.509
    82   1 H        0.926     0.032     2.562     2.503
    83   1 H        0.926     0.031     2.568     2.506
    84   1 H        0.926     0.031     2.567     2.506
    85   1 H        0.926     0.029     2.602     2.523
    86   1 H        0.926     0.028     2.610     2.526
    87   1 H        0.926     0.029     2.597     2.520
    88   1 H        0.926     0.029     2.595     2.519
    89   1 H        0.926     0.028     2.611     2.527
    90   1 H        0.926     0.028     2.616     2.529
    91   1 H        0.926     0.034     2.536     2.490
    92   1 H        0.926     0.028     2.609     2.526
    93   1 H        0.926     0.049     2.330     2.387
    94   1 H        0.926     0.041     2.429     2.437
    95   1 H        0.926     0.033     2.542     2.493
    96   1 H        0.926     0.032     2.557     2.501
    97   1 H        0.926     0.031     2.571     2.507

molecular dipole:
                 x           y           z       tot (Debye)
 q only:        0.386      -0.274       0.524
   full:        0.560      -0.162       0.850       2.620

 projected vibrational frequencies (cm⁻¹)
eigval :       -0.00    -0.00    -0.00     0.00     0.00     0.00
eigval :        9.85    13.73    16.23    18.45    23.57    26.78
eigval :       33.20    34.74    42.01    45.71    53.34    57.37
eigval :       62.77    78.19    85.09    91.04   103.77   105.83
eigval :      121.67   124.78   134.81   146.18   152.63   157.66
eigval :      160.21   165.48   178.32   186.18   197.93   208.27
eigval :      216.47   236.46   238.39   253.65   257.46   267.74
eigval :      272.94   284.93   292.05   304.03   309.22   320.54
eigval :      329.01   344.21   354.39   361.00   381.43   387.45
eigval :      394.70   403.19   416.39   418.28   426.41   433.80
eigval :      435.40   438.89   442.14   446.80   460.04   469.16
eigval :      476.09   488.56   494.33   497.67   503.43   508.78
eigval :      514.98   528.24   534.75   536.38   545.73   554.31
eigval :      569.58   580.66   590.56   593.89   603.35   615.74
eigval :      623.74   629.67   638.87   654.67   661.67   667.47
eigval :      676.05   687.80   710.95   718.55   724.40   726.41
eigval :      738.45   756.15   763.64   766.09   769.53   771.98
eigval :      772.88   778.40   779.93   792.36   808.18   811.55
eigval :      814.73   816.99   829.35   836.69   840.79   846.49
eigval :      849.59   855.01   863.63   866.74   876.45   878.15
eigval :      883.55   887.25   893.79   897.00   899.40   900.86
eigval :      907.77   913.29   915.01   915.74   917.76   922.04
eigval :      922.66   923.44   926.90   927.50   932.63   934.64
eigval :      958.82   977.79   983.19   993.82   997.77  1001.04
eigval :     1020.20  1025.02  1036.35  1048.50  1080.00  1083.00
eigval :     1087.84  1095.04  1099.59  1109.02  1115.71  1116.39
eigval :     1122.98  1123.71  1124.85  1132.78  1138.40  1141.41
eigval :     1148.20  1152.40  1159.74  1163.19  1169.85  1171.73
eigval :     1179.73  1181.27  1181.89  1182.97  1185.77  1188.95
eigval :     1197.56  1200.48  1205.92  1212.28  1221.25  1225.11
eigval :     1226.76  1235.52  1238.82  1240.74  1246.32  1247.56
eigval :     1253.79  1258.80  1263.32  1274.46  1276.41  1287.31
eigval :     1289.01  1295.32  1301.50  1308.23  1323.52  1324.15
eigval :     1331.37  1336.09  1338.51  1339.05  1345.42  1350.97
eigval :     1354.40  1356.65  1364.11  1370.78  1377.67  1379.53
eigval :     1392.42  1392.73  1415.02  1417.58  1419.35  1423.29
eigval :     1424.99  1437.55  1440.75  1449.65  1451.63  1465.81
eigval :     1466.80  1477.42  1477.60  1482.97  1488.71  1492.45
eigval :     1496.92  1506.45  1510.38  1510.87  1511.23  1562.85
eigval :     1563.57  1565.43  1569.39  1582.54  1585.95  1595.75
eigval :     1596.74  1597.65  1600.38  1605.17  1610.97  1612.28
eigval :     1643.56  1667.07  2854.07  2893.71  2921.01  2954.72
eigval :     2960.96  2965.02  2973.98  2975.69  2976.62  2980.51
eigval :     2993.19  3002.25  3008.10  3031.35  3035.02  3049.78
eigval :     3057.43  3063.67  3066.46  3067.92  3068.89  3073.36
eigval :     3073.40  3074.37  3075.00  3075.65  3077.47  3077.94
eigval :     3082.02  3083.18  3083.44  3084.08  3086.10  3086.17
eigval :     3086.99  3089.49  3090.97  3092.41  3097.65  3098.59
eigval :     3104.11  3111.39  3137.90

   temp. (K)  partition function   enthalpy   heat capacity  entropy
                                   cal/mol     cal/K/mol   cal/K/mol   J/K/mol
 298.15  VIB  0.144E+22            26891.153    168.668    167.252
         ROT  0.107E+09              888.752      2.981     39.716
         INT  0.153E+30            27779.905    171.649    206.968
         TR   0.185E+29             1481.254      4.968     45.557
         TOT                       29261.1594   176.6168   252.5248  1056.5638

       T/K    H(0)-H(T)+PV         H(T)/Eh          T*S/Eh         G(T)/Eh
   ------------------------------------------------------------------------
    298.15    0.466306E-01    0.824912E+00    0.119983E+00    0.704930E+00
   ------------------------------------------------------------------------

         :::::::::::::::::::::::::::::::::::::::::::::::::::::
         ::                  THERMODYNAMIC                  ::
         :::::::::::::::::::::::::::::::::::::::::::::::::::::
         :: total free energy        -138.765840273269 Eh   ::
         ::.................................................::
         :: total energy             -139.470769909230 Eh   ::
         :: zero point energy           0.778281690944 Eh   ::
         :: G(RRHO) w/o ZPVE           -0.073352054983 Eh   ::
         :: G(RRHO) contrib.            0.704929635961 Eh   ::
         :::::::::::::::::::::::::::::::::::::::::::::::::::::

           -------------------------------------------------
          | TOTAL ENERGY             -139.470769909230 Eh   |
          | TOTAL ENTHALPY           -138.645857592660 Eh   |
          | TOTAL FREE ENERGY        -138.765840273269 Eh   |
          | GRADIENT NORM               0.000023519733 Eh/α |
          | HOMO-LUMO GAP               2.103798795004 eV   |
           -------------------------------------------------

 * finished run on 2025/09/09 at 18:23:32.246
