   * xtb version 6.7.1 (edcfbbe) compiled by 'albert@albert-system' on 2024-07-22

   ID    Z sym.   atoms
    1    6 C      1-6, 8-47, 49-54
    2    7 N      7
    3   16 S      48
    4    1 H      55-97

          program call               : xtb data2507/gas/DNFPh/DNFPh_gas_S0_finalOpt.xtbopt.xyz --gfn 2 --spinpol --tblite --uhf 2 --ohess vtight --parallel 40 --molden --ceasefiles --namespace data2507/gas/DNFPh/DNFPh_gas_T1_preOpt
 * total energy  :  -139.3860624 Eh     change       -0.3978118E-07 Eh
 * total energy  :  -139.3973262 Eh     change       -0.1126382E-01 Eh
 * total energy  :  -139.4018919 Eh     change       -0.4565735E-02 Eh
 * total energy  :  -139.4025009 Eh     change       -0.6089701E-03 Eh
 * total energy  :  -139.4032348 Eh     change       -0.7339261E-03 Eh
 * total energy  :  -139.4034986 Eh     change       -0.2637937E-03 Eh
 * total energy  :  -139.4036992 Eh     change       -0.2005250E-03 Eh
 * total energy  :  -139.4038381 Eh     change       -0.1389162E-03 Eh
 * total energy  :  -139.4039608 Eh     change       -0.1227289E-03 Eh
 * total energy  :  -139.4040645 Eh     change       -0.1036585E-03 Eh
 * total energy  :  -139.4047920 Eh     change       -0.4812578E-06 Eh
 * total energy  :  -139.4047924 Eh     change       -0.3499642E-06 Eh
 * total energy  :  -139.4047928 Eh     change       -0.4272912E-06 Eh
 * total energy  :  -139.4047935 Eh     change       -0.6876384E-06 Eh
 * total energy  :  -139.4047939 Eh     change       -0.4105754E-06 Eh
 * total energy  :  -139.4047944 Eh     change       -0.5242505E-06 Eh
 * total energy  :  -139.4047951 Eh     change       -0.7065395E-06 Eh
 * total energy  :  -139.4047957 Eh     change       -0.6135674E-06 Eh
 * total energy  :  -139.4047958 Eh     change       -0.2094222E-07 Eh
   *** GEOMETRY OPTIMIZATION CONVERGED AFTER 68 ITERATIONS ***

 final structure:
================
97
 xtb: 6.7.1 (edcfbbe)
C            1.32276833072124       -5.65249550463388       -2.63809544848574
C            2.25160519081954       -6.59187622366988       -1.87729407575656
C            2.52450759457717       -6.13348693943876       -0.44434719110642
C            3.35326246320093       -4.85421834314699       -0.37673875208047
C            3.62865874682171       -4.42897869246955        1.06361661523274
C            4.39200310705911       -3.10193320703005        1.11523007062044
N            3.64176667059309       -2.06561024709263        0.44472336946906
C            2.34378531049763       -1.75216090897438        0.86759427887410
C            1.95114263379715       -1.87128956833628        2.19691687728155
C            0.60520774674686       -1.45793699470321        2.67546650451492
C           -0.14887478710160       -0.58622181448523        1.69874171175840
C           -1.12382341271071        0.27539028268278        2.20942752289401
C           -1.68538347061988        1.45110998612542        1.46770648935040
C           -0.72095237605934        2.05561123745912        0.47386251383710
C            0.55229521076640        2.52578531251590        0.70018153822234
C            1.35490640571358        2.87720304322808       -0.38949798464838
C            2.74488163374069        3.32826851409886       -0.21403772340674
C            3.16796823702298        4.44307735493378       -0.90380956815567
C            4.47049277157414        4.93658585819136       -0.77568193795062
C            5.35817042039381        4.32007158291242        0.05947661925325
C            4.97666409300874        3.17464338121858        0.78664280362147
C            5.88032862397481        2.53927133489398        1.66362553516524
C            5.51324359001231        1.42984416268647        2.36920377150792
C            4.23362652940606        0.88702985984866        2.19360873629490
C            3.33953414446082        1.47190716420972        1.34142712575297
C            3.66251168376914        2.65239989228114        0.64061242686213
C            0.82105328571184        2.80935626771607       -1.67788877699109
C           -0.47968374120762        2.40020761175502       -1.90570339992490
C           -1.25183589060324        2.00664895821191       -0.82483207792338
C           -2.58000868196353        1.42477723619203       -0.75911391891039
C           -3.51615651510257        1.16943360980369       -1.74873415765310
C           -4.71671291316480        0.58034283194085       -1.39538459874225
C           -4.99260064014477        0.23589814264865       -0.07224901404052
C           -6.26300120839737       -0.42067535440201        0.28228494870724
C           -6.23032698716240       -1.64052989741234        0.91626572638471
C           -7.40900653979335       -2.32789578436063        1.23036048785472
C           -8.62414502413093       -1.79138916985054        0.91035880511462
C           -8.70810021477386       -0.53006296195163        0.28537521842839
C           -9.95365055114014        0.05328824889607       -0.02937416182327
C          -10.02421839686979        1.28938310631719       -0.60614641399026
C           -8.84867237027233        2.00431720447759       -0.87971408841245
C           -7.62592481113487        1.46368306098261       -0.59481454787966
C           -7.51569640189262        0.17679176965775       -0.02579801931969
C           -4.03997642151737        0.47822112741000        0.91885879998131
C           -2.85140928041126        1.07711524879832        0.57285245809678
C            0.19198758594103       -0.67200196417231        0.36978824621145
C            1.43466599785751       -1.23901093951765       -0.04982959164674
S            1.90854948709998       -1.00342529437894       -1.72296687377570
C            3.58809769999248       -0.51304772846513       -1.40525187326740
C            4.16884793148488        0.46871375916407       -2.18341619568826
C            5.48892604678794        0.82635954430749       -1.96879044725162
C            6.20899423940111        0.19491766705283       -0.97145363118783
C            5.61700388211082       -0.76796557434410       -0.17361945862477
C            4.28788652483642       -1.13769927669401       -0.36984041198801
H            0.38648953310609       -5.52475004460575       -2.09898019056397
H            1.77553724294886       -4.67403737308210       -2.77345651609851
H            1.09882782894565       -6.05969241526510       -3.62155928194816
H            1.79823478972745       -7.58576096248966       -1.84461428772710
H            3.19924942685542       -6.67972706155856       -2.41379489836744
H            1.57245465566822       -5.97263071424353        0.06720353081439
H            3.05511634379550       -6.92834562384537        0.08689683973375
H            2.81995778330090       -4.04931210093076       -0.88261175925912
H            4.30143933939882       -5.00738911522130       -0.89839923150345
H            4.22079230430257       -5.19199045631995        1.57329956310314
H            2.68070548503611       -4.32636866015709        1.59479546403760
H            5.33414810937813       -3.22385610384860        0.57695420032226
H            4.62633320836389       -2.83942321717434        2.15639617165866
H            2.63677869454591       -2.23996054283683        2.94193659669469
H           -0.01554298857565       -2.35041541344761        2.86903034458415
H            0.70268876065068       -0.95104807274527        3.64347927122135
H           -1.44487427215576        0.14685217026502        3.23233706667215
H           -2.01479609948676        2.19875212495098        2.19928749243186
H            0.93149157922124        2.61683567310145        1.70762313572917
H            2.46982880958283        4.96835776484058       -1.53989308743173
H            4.76013250591694        5.81588102515217       -1.33282289702575
H            6.36188230280146        4.70223143187411        0.18006241383774
H            6.87312720123590        2.95422955017661        1.76788862331252
H            6.20690043075237        0.95722776306196        3.04973384114881
H            3.95382037475691       -0.00682504031129        2.73180035779960
H            2.37294366489171        1.01744668265883        1.19402961296280
H            1.45229965729471        3.06115866716498       -2.51771212638780
H           -0.87148148127358        2.35513490419157       -2.91101202250273
H           -3.31367221611403        1.42405814934101       -2.77848485291404
H           -5.45197749434894        0.36118324117908       -2.15651046316817
H           -5.27519036928301       -2.08809251628084        1.15241592106007
H           -7.34595925019933       -3.28991291597122        1.71806427726895
H           -9.53873247800544       -2.32088284767787        1.13650553848657
H          -10.85423439860033       -0.49778095553132        0.20279596650251
H          -10.98200578379450        1.72908898500822       -0.84367727734625
H           -8.91725764584409        2.99118735416237       -1.31406216777018
H           -6.72601448559994        2.02709253991046       -0.79222444390583
H           -4.25260357775380        0.21125599228028        1.94412289943682
H           -0.42616268182276       -0.24269444808805       -0.39745682501058
H            3.58658593222714        0.93315045367325       -2.96420151125073
H            5.94746434759452        1.58961563036548       -2.57775644259943
H            7.24003532960432        0.46297211973387       -0.79627892512310
H            6.18914101183189       -1.21912092310890        0.62189992456847

 projected vibrational frequencies (cm⁻¹)
eigval :       -0.00    -0.00    -0.00    -0.00     0.00     0.00
eigval :        6.44    11.28    14.44    15.68    20.60    25.17
eigval :       30.82    33.48    38.30    42.99    52.67    57.98
eigval :       67.03    74.72    83.15    88.51   100.30   106.11
eigval :      119.07   120.22   132.08   137.32   151.95   154.61
eigval :      158.26   164.00   171.49   177.39   190.72   206.25
eigval :      209.21   216.62   226.46   242.12   253.56   264.38
eigval :      269.88   281.50   282.38   293.83   303.33   319.04
eigval :      325.06   332.55   353.47   363.92   382.90   386.61
eigval :      393.09   401.14   411.67   415.26   423.74   432.08
eigval :      434.73   438.30   439.91   442.72   456.10   459.83
eigval :      468.18   479.12   488.57   493.77   498.82   503.92
eigval :      506.52   512.98   525.72   530.49   539.48   542.53
eigval :      554.56   561.18   586.36   590.65   595.85   602.53
eigval :      616.29   616.98   625.67   635.86   645.60   653.02
eigval :      660.01   668.66   675.47   688.88   708.37   719.14
eigval :      724.17   726.27   737.07   763.52   764.58   765.94
eigval :      769.40   771.52   773.14   778.43   780.15   807.46
eigval :      809.61   814.65   815.33   827.58   834.01   839.52
eigval :      850.07   851.66   861.78   862.94   875.10   878.00
eigval :      879.76   885.38   894.15   897.33   897.82   898.71
eigval :      904.31   909.37   913.39   914.81   916.45   918.63
eigval :      921.74   922.73   926.75   927.06   932.39   934.11
eigval :      953.58   976.82   982.34   990.36   997.00  1003.78
eigval :     1022.07  1023.88  1038.63  1039.61  1082.70  1084.37
eigval :     1088.02  1094.97  1099.15  1108.28  1114.38  1116.00
eigval :     1119.90  1123.40  1124.23  1126.96  1130.74  1139.19
eigval :     1143.09  1146.89  1156.34  1161.06  1167.82  1169.17
eigval :     1176.36  1176.81  1180.55  1181.29  1181.61  1188.61
eigval :     1195.62  1198.89  1202.00  1204.48  1211.28  1220.83
eigval :     1224.81  1226.45  1232.92  1237.42  1241.55  1247.47
eigval :     1253.32  1258.03  1265.90  1274.14  1279.18  1286.41
eigval :     1286.81  1289.37  1293.33  1300.52  1310.01  1317.50
eigval :     1321.65  1322.50  1334.44  1335.97  1338.61  1344.00
eigval :     1350.00  1354.23  1356.15  1370.24  1376.85  1378.90
eigval :     1392.18  1392.40  1411.45  1416.49  1417.87  1418.16
eigval :     1422.22  1422.35  1435.29  1439.79  1444.76  1449.03
eigval :     1453.68  1465.01  1472.42  1476.95  1481.05  1484.10
eigval :     1488.74  1491.73  1496.41  1505.83  1509.87  1510.15
eigval :     1510.98  1524.27  1562.45  1562.79  1565.06  1568.18
eigval :     1581.35  1586.08  1594.56  1595.13  1596.49  1602.76
eigval :     1610.42  1612.57  2787.31  2870.35  2901.24  2908.39
eigval :     2954.57  2960.66  2964.05  2973.24  2975.75  2979.48
eigval :     2982.62  2992.47  3007.69  3031.51  3034.52  3049.30
eigval :     3064.33  3066.41  3068.04  3069.10  3071.67  3073.47
eigval :     3073.59  3074.45  3075.01  3075.53  3077.14  3078.28
eigval :     3080.44  3082.76  3083.86  3083.87  3085.85  3086.17
eigval :     3086.68  3089.19  3091.71  3092.32  3098.21  3099.17
eigval :     3104.43  3113.51  3150.84

   temp. (K)  partition function   enthalpy   heat capacity  entropy
                                   cal/mol     cal/K/mol   cal/K/mol   J/K/mol
 298.15  VIB  0.984E+22            27275.546    170.120    170.694
         ROT  0.111E+09              888.752      2.981     39.799
         INT  0.109E+31            28164.298    173.101    210.493
         TR   0.185E+29             1481.254      4.968     45.557
         TOT                       29645.5522   178.0693   256.0497  1071.3118

       T/K    H(0)-H(T)+PV         H(T)/Eh          T*S/Eh         G(T)/Eh
   ------------------------------------------------------------------------
    298.15    0.472432E-01    0.821529E+00    0.121657E+00    0.699872E+00
   ------------------------------------------------------------------------

         :::::::::::::::::::::::::::::::::::::::::::::::::::::
         ::                  THERMODYNAMIC                  ::
         :::::::::::::::::::::::::::::::::::::::::::::::::::::
         :: total free energy        -138.704923999457 Eh   ::
         ::.................................................::
         :: total energy             -139.404795747547 Eh   ::
         :: zero point energy           0.774286008993 Eh   ::
         :: G(RRHO) w/o ZPVE           -0.074414260903 Eh   ::
         :: G(RRHO) contrib.            0.699871748090 Eh   ::
         :::::::::::::::::::::::::::::::::::::::::::::::::::::

           -------------------------------------------------
          | TOTAL ENERGY             -139.404795747547 Eh   |
          | TOTAL ENTHALPY           -138.583266544009 Eh   |
          | TOTAL FREE ENERGY        -138.704923999457 Eh   |
          | GRADIENT NORM               0.000057230343 Eh/α |
           -------------------------------------------------

 * finished run on 2025/09/09 at 18:23:49.938
