   * xtb version 6.7.1 (edcfbbe) compiled by 'albert@albert-system' on 2024-07-22

   ID    Z sym.   atoms
    1    6 C      1-6, 8-47, 49-54
    2    7 N      7
    3   16 S      48
    4    1 H      55-97

          program call               : xtb data2507/gas/DNFPh/DNFPh.xyz --gfn 2 --ohess vtight --parallel 40 --molden --ceasefiles --namespace data2507/gas/DNFPh/DNFPh_gas_S0_preOpt
          :  Hamiltonian                  GFN2-xTB          :
 * total energy  :  -139.4395449 Eh     change       -0.7805767E-08 Eh
 * total energy  :  -139.4528981 Eh     change       -0.1335322E-01 Eh
 * total energy  :  -139.4562496 Eh     change       -0.3351467E-02 Eh
 * total energy  :  -139.4570694 Eh     change       -0.8197686E-03 Eh
 * total energy  :  -139.4576113 Eh     change       -0.5419498E-03 Eh
 * total energy  :  -139.4577681 Eh     change       -0.1567588E-03 Eh
 * total energy  :  -139.4578907 Eh     change       -0.1226143E-03 Eh
 * total energy  :  -139.4579827 Eh     change       -0.9202047E-04 Eh
 * total energy  :  -139.4580571 Eh     change       -0.7433415E-04 Eh
 * total energy  :  -139.4581190 Eh     change       -0.6196991E-04 Eh
 * total energy  :  -139.4618228 Eh     change       -0.1035077E-05 Eh
 * total energy  :  -139.4618235 Eh     change       -0.6458781E-06 Eh
 * total energy  :  -139.4618239 Eh     change       -0.4256264E-06 Eh
 * total energy  :  -139.4618244 Eh     change       -0.4378129E-06 Eh
 * total energy  :  -139.4618250 Eh     change       -0.6138428E-06 Eh
 * total energy  :  -139.4618258 Eh     change       -0.8476543E-06 Eh
 * total energy  :  -139.4618269 Eh     change       -0.1054968E-05 Eh
 * total energy  :  -139.4618280 Eh     change       -0.1079117E-05 Eh
 * total energy  :  -139.4618280 Eh     change       -0.1311719E-07 Eh
   *** GEOMETRY OPTIMIZATION CONVERGED AFTER 122 ITERATIONS ***

 final structure:
================
97
 xtb: 6.7.1 (edcfbbe)
C           -7.94082000645266        2.00440839641049       -2.52534002236822
C           -6.88374408891198        1.57741337843876       -1.51498074737118
C           -6.59845127171969        2.67876142186125       -0.49457189676285
C           -5.54056161032926        2.26826600607897        0.53009252208840
C           -6.08904628451650        1.31441117420212        1.59355543249739
C           -4.96691068451663        0.51742185813925        2.26793727349955
N           -4.24318001509896       -0.27078628294425        1.29207910798928
C           -2.84770123216923       -0.25105278692936        1.28330019357872
C           -2.12039853103827       -0.06930751190765        2.39831303716346
C           -0.63115628185327        0.03974770206094        2.42105446855686
C            0.04953811304117       -0.14647868565995        1.08514777291025
C            1.39114182044513       -0.10995795247653        1.02773003201866
C            2.26285339597622       -0.26735291290767       -0.17869647913120
C            3.20920152830309        0.89767341955710       -0.33981227703802
C            2.90554978738713        2.22798400550391       -0.51611032403578
C            3.94492086782684        3.15227880803821       -0.63405115701306
C            3.63941194273141        4.57528716364708       -0.86151028770267
C            2.83201979646764        4.92290733965003       -1.91937309259047
C            2.56176365691691        6.26364719726732       -2.21846948079905
C            3.10196095107222        7.26061815798035       -1.45624134598386
C            3.91069736019126        6.95235763614843       -0.34293731174371
C            4.45540988141772        7.96670219401902        0.47265211698082
C            5.21099022009029        7.65733740231082        1.56760419180655
C            5.44017968866235        6.31519099813994        1.90500055667817
C            4.93377212312262        5.30896687652443        1.13051567497947
C            4.17646588605029        5.59306936314167       -0.02615043981531
C            5.26851497987832        2.71283864074190       -0.58699775654224
C            5.57721388859764        1.37619056991446       -0.41017386094297
C            4.54222358308694        0.46383264895354       -0.27873894092550
C            4.55039821577682       -0.97392048805205       -0.07923595795679
C            5.59508560588894       -1.87453131604876        0.05405223974424
C            5.29930524263862       -3.21224030468007        0.24555395756561
C            3.98164363889877       -3.66541922063637        0.29919430125182
C            3.70930402648897       -5.09478278641376        0.52991590962322
C            4.25742296405028       -5.71084307308840        1.63064795314718
C            3.99320745637247       -7.05514667630092        1.91914338536059
C            3.17734719774782       -7.78592131512187        1.10242029356416
C            2.61311208034541       -7.20476909173080       -0.05185774523776
C            1.78866211328457       -7.95015137066029       -0.92109985156235
C            1.27153278362980       -7.38726331677411       -2.05298874560844
C            1.57164130908245       -6.05513719987770       -2.37395626419720
C            2.36158636402248       -5.30387555745201       -1.54916896414315
C            2.88714975031016       -5.84418505281300       -0.35588336226451
C            2.93118134551175       -2.75359935659290        0.17182469530869
C            3.22210237481154       -1.42284015629388       -0.02033096703153
C           -0.79784798186172       -0.34878142757881       -0.05598483606999
C           -2.14283845413988       -0.40325455762974        0.02400360091376
S           -3.06253275588884       -0.56188425804743       -1.47127641381247
C           -4.51276142246781       -1.36415579569546       -0.85608456736497
C           -5.22864781498239       -2.18134249766607       -1.71494839438191
C           -6.39819206211104       -2.78109735923102       -1.28808327179343
C           -6.83243610592157       -2.57309599858421        0.01078602761604
C           -6.11439829650445       -1.76411243729651        0.87023562271063
C           -4.94469867640048       -1.12575330714244        0.45144583177923
H           -8.87848218329113        2.23436433337066       -2.02340038061533
H           -7.61668127960182        2.89113378853087       -3.06597126575269
H           -8.12287302905080        1.21023883329673       -3.24554847525076
H           -7.22112204467597        0.67118241954707       -1.00752223606446
H           -5.95874744468545        1.32979085476134       -2.04081298633044
H           -6.24951693968080        3.56458243436715       -1.03025765826929
H           -7.52235781553017        2.94881186634721        0.02259447888273
H           -5.13802257362364        3.15757236910465        1.02055324515040
H           -4.71668359550569        1.78743830170557       -0.00093269507881
H           -6.79668392899631        0.62544190782736        1.13367675876224
H           -6.62481188141299        1.87779207731585        2.35978475031061
H           -5.37184568517174       -0.10306720879029        3.07791028302574
H           -4.25782776952362        1.22243811969599        2.70563263239224
H           -2.60023318265515        0.02310165991416        3.36103194512702
H           -0.35933890409479        1.02258951357123        2.82845405965587
H           -0.24154989944044       -0.69752960169877        3.13320433804164
H            1.94364750979728        0.04651247338066        1.94598221251254
H            1.65956920910339       -0.39483112734293       -1.08089117510888
H            1.87803095002761        2.56161802217407       -0.54860954272826
H            2.42070487558367        4.14633847045217       -2.54854768798564
H            1.93292808055092        6.49991755481853       -3.06460845406945
H            2.91324578655670        8.29883972671774       -1.68963996994950
H            4.25537299288716        8.99750968273000        0.21559466223289
H            5.62469586592192        8.44008964780956        2.18671874010285
H            6.01770265743430        6.08169389910667        2.78778948365273
H            5.09884062213743        4.27837088265879        1.40768080473589
H            6.06319909139622        3.43472225149498       -0.71118074857319
H            6.60711158151978        1.05252362499224       -0.37872295350796
H            6.62149830564257       -1.54148576046489        0.00995929998765
H            6.10080320924036       -3.93076268146050        0.34178768997910
H            4.88475715879581       -5.13873348036366        2.29959673101635
H            4.43321589739321       -7.50360770409558        2.79811371734856
H            2.95716729747552       -8.82059386167576        1.32381105089257
H            1.57988081696106       -8.98182872164511       -0.67463787026819
H            0.64084859875751       -7.96485413863197       -2.71311567876838
H            1.17704342049694       -5.62731740189049       -3.28415227117807
H            2.60375074897241       -4.28539530259083       -1.81385839715493
H            1.90670123068290       -3.09096584324620        0.24258504806563
H           -0.34366800821127       -0.45152159935127       -1.02971599327196
H           -4.86629509063071       -2.32485732556242       -2.72150231042698
H           -6.96221531707883       -3.40742133195566       -1.96138582777152
H           -7.73743800935167       -3.04661628036705        0.36141533521963
H           -6.46250668838786       -1.62749564905985        1.88198487366762

          :  Hamiltonian                  GFN2-xTB          :
         :: gradient norm              0.000065737485 Eh/a0 ::
         :: HOMO-LUMO gap              2.214462204573 eV    ::
         :: SCC energy              -142.001682126056 Eh    ::
         :: -> dispersion             -0.129647710203 Eh    ::
         :: repulsion energy           2.539854159001 Eh    ::

    * Orbital Energies and Occupations

         #    Occupation            Energy/Eh            Energy/eV
      -------------------------------------------------------------
         1        2.0000           -0.7156327             -19.4734
       ...           ...                  ...                  ...
       119        2.0000           -0.4084176             -11.1136
       120        2.0000           -0.4055517             -11.0356
       121        2.0000           -0.4049983             -11.0206
       122        2.0000           -0.4011520             -10.9159
       123        2.0000           -0.3969350             -10.8012
       124        2.0000           -0.3964301             -10.7874
       125        2.0000           -0.3914516             -10.6519
       126        2.0000           -0.3883934             -10.5687
       127        2.0000           -0.3815021             -10.3812
       128        2.0000           -0.3717583             -10.1161
       129        2.0000           -0.3631840              -9.8827
       130        2.0000           -0.3468451              -9.4381
       131        2.0000           -0.3451117              -9.3910 (HOMO)
       132                         -0.2637318              -7.1765 (LUMO)
       133                         -0.2630389              -7.1577
       134                         -0.2563852              -6.9766
       135                         -0.2398987              -6.5280
       136                         -0.2296699              -6.2496
       137                         -0.2246819              -6.1139
       138                         -0.2241908              -6.1005
       139                         -0.2228210              -6.0633
       140                         -0.2192784              -5.9669
       141                         -0.2159949              -5.8775
       142                         -0.1985847              -5.4038
       ...                                ...                  ...
       264                          0.7372878              20.0626
      -------------------------------------------------------------
                  HL-Gap            0.0813799 Eh            2.2145 eV

     #   Z          covCN         q      C6AA      α(0)
     1   6 C        3.752    -0.102    22.507     6.765
     2   6 C        3.801    -0.051    21.485     6.599
     3   6 C        3.802    -0.059    21.629     6.621
     4   6 C        3.802    -0.058    21.625     6.621
     5   6 C        3.802    -0.065    21.737     6.638
     6   6 C        3.748     0.003    20.599     6.473
     7   7 N        2.746    -0.085    22.888     7.105
     8   6 C        2.929     0.051    26.855     8.499
     9   6 C        2.909    -0.072    29.807     8.952
    10   6 C        3.814    -0.058    21.599     6.615
    11   6 C        2.949     0.004    27.935     8.669
    12   6 C        2.908    -0.050    29.251     8.868
    13   6 C        3.892    -0.020    20.884     6.497
    14   6 C        3.053     0.004    27.894     8.662
    15   6 C        2.919    -0.041    29.011     8.833
    16   6 C        2.980     0.009    27.818     8.652
    17   6 C        2.974     0.004    27.919     8.667
    18   6 C        2.924    -0.036    28.892     8.815
    19   6 C        2.913    -0.031    28.775     8.796
    20   6 C        2.919    -0.038    28.953     8.824
    21   6 C        2.987     0.012    27.738     8.639
    22   6 C        2.920    -0.036    28.888     8.814
    23   6 C        2.915    -0.031    28.762     8.794
    24   6 C        2.916    -0.032    28.786     8.798
    25   6 C        2.917    -0.035    28.864     8.810
    26   6 C        2.987     0.009    27.815     8.651
    27   6 C        2.925    -0.037    28.918     8.819
    28   6 C        2.913    -0.036    28.888     8.814
    29   6 C        3.037    -0.002    28.031     8.684
    30   6 C        3.037    -0.002    28.032     8.684
    31   6 C        2.913    -0.035    28.873     8.811
    32   6 C        2.926    -0.038    28.952     8.824
    33   6 C        2.980     0.009    27.817     8.651
    34   6 C        2.974     0.004    27.918     8.667
    35   6 C        2.924    -0.036    28.906     8.817
    36   6 C        2.913    -0.031    28.784     8.798
    37   6 C        2.919    -0.038    28.952     8.824
    38   6 C        2.987     0.012    27.737     8.639
    39   6 C        2.920    -0.036    28.887     8.814
    40   6 C        2.915    -0.030    28.753     8.793
    41   6 C        2.916    -0.031    28.771     8.796
    42   6 C        2.917    -0.034    28.852     8.808
    43   6 C        2.987     0.009    27.809     8.650
    44   6 C        2.918    -0.039    28.975     8.827
    45   6 C        3.054     0.003    27.904     8.663
    46   6 C        2.979    -0.050    29.232     8.869
    47   6 C        2.961     0.037    27.181     8.551
    48  16 S        2.142    -0.142   147.046    20.409
    49   6 C        2.974     0.032    27.279     8.567
    50   6 C        2.971    -0.039    28.954     8.826
    51   6 C        2.920    -0.040    28.991     8.830
    52   6 C        2.919    -0.035    28.873     8.812
    53   6 C        2.925    -0.055    29.371     8.888
    54   6 C        2.955     0.063    26.593     8.458
    55   1 H        0.925     0.032     2.560     2.502
    56   1 H        0.925     0.034     2.535     2.490
    57   1 H        0.925     0.033     2.540     2.492
    58   1 H        0.924     0.026     2.647     2.544
    59   1 H        0.924     0.032     2.559     2.502
    60   1 H        0.924     0.032     2.555     2.500
    61   1 H        0.924     0.030     2.587     2.515
    62   1 H        0.924     0.027     2.623     2.533
    63   1 H        0.924     0.041     2.436     2.441
    64   1 H        0.925     0.045     2.384     2.415
    65   1 H        0.924     0.034     2.533     2.489
    66   1 H        0.924     0.028     2.609     2.526
    67   1 H        0.924     0.048     2.341     2.393
    68   1 H        0.926     0.026     2.641     2.541
    69   1 H        0.923     0.049     2.332     2.388
    70   1 H        0.924     0.050     2.319     2.382
    71   1 H        0.925     0.025     2.666     2.553
    72   1 H        0.924     0.053     2.289     2.366
    73   1 H        0.926     0.030     2.592     2.517
    74   1 H        0.926     0.030     2.588     2.516
    75   1 H        0.926     0.029     2.599     2.521
    76   1 H        0.926     0.029     2.597     2.520
    77   1 H        0.926     0.029     2.596     2.520
    78   1 H        0.926     0.028     2.615     2.529
    79   1 H        0.926     0.028     2.622     2.532
    80   1 H        0.926     0.033     2.538     2.491
    81   1 H        0.926     0.031     2.571     2.508
    82   1 H        0.926     0.030     2.587     2.515
    83   1 H        0.926     0.030     2.584     2.514
    84   1 H        0.926     0.030     2.590     2.517
    85   1 H        0.926     0.029     2.603     2.523
    86   1 H        0.926     0.028     2.611     2.527
    87   1 H        0.926     0.029     2.599     2.521
    88   1 H        0.926     0.029     2.597     2.520
    89   1 H        0.926     0.028     2.609     2.526
    90   1 H        0.926     0.029     2.606     2.525
    91   1 H        0.926     0.034     2.537     2.491
    92   1 H        0.926     0.031     2.573     2.508
    93   1 H        0.926     0.041     2.429     2.437
    94   1 H        0.926     0.041     2.431     2.438
    95   1 H        0.926     0.033     2.537     2.491
    96   1 H        0.926     0.032     2.562     2.503
    97   1 H        0.926     0.034     2.534     2.489

molecular dipole:
                 x           y           z       tot (Debye)
 q only:       -0.596       0.222       0.597
   full:       -0.677       0.130       0.941       2.964

 projected vibrational frequencies (cm⁻¹)
eigval :       -0.00    -0.00    -0.00    -0.00    -0.00     0.00
eigval :       -4.85     3.01    11.07    14.53    17.60    18.12
eigval :       20.16    27.34    32.48    41.60    47.44    53.57
eigval :       53.62    62.74    66.99    78.57    84.95    92.11
eigval :      126.44   129.12   133.88   144.69   148.15   152.13
eigval :      163.24   164.94   167.28   172.21   193.28   205.86
eigval :      209.82   223.93   235.34   245.42   264.05   266.23
eigval :      269.01   271.47   289.35   295.50   304.86   310.42
eigval :      320.99   325.63   352.12   354.33   372.69   385.85
eigval :      391.24   399.41   404.21   413.32   417.75   420.47
eigval :      423.85   435.09   435.51   448.26   458.65   470.02
eigval :      473.11   492.32   494.18   499.31   501.60   509.28
eigval :      512.32   524.38   528.06   539.35   552.84   555.80
eigval :      564.59   572.54   586.60   591.57   608.71   612.78
eigval :      627.23   630.81   633.97   648.87   658.58   664.63
eigval :      675.40   689.57   704.82   721.64   722.68   726.26
eigval :      726.29   762.45   762.97   770.32   771.48   773.87
eigval :      777.23   778.91   780.10   793.94   802.34   812.82
eigval :      814.42   825.80   834.05   838.20   841.70   848.67
eigval :      852.01   867.57   871.76   875.81   876.29   878.04
eigval :      884.06   886.89   891.49   894.46   898.11   900.02
eigval :      902.83   903.41   914.59   915.71   918.17   919.28
eigval :      920.40   922.28   925.75   926.92   929.89   932.55
eigval :      935.39   974.04   986.06   992.50   997.64  1002.93
eigval :     1024.91  1041.83  1057.40  1064.27  1083.00  1083.08
eigval :     1086.90  1096.35  1100.46  1105.40  1108.21  1113.07
eigval :     1122.20  1126.64  1128.97  1133.94  1138.80  1143.28
eigval :     1144.85  1159.31  1161.65  1169.21  1170.68  1172.98
eigval :     1173.63  1180.76  1181.25  1181.57  1185.72  1186.28
eigval :     1188.02  1201.91  1204.83  1214.83  1219.96  1224.57
eigval :     1226.38  1239.70  1241.49  1244.99  1247.47  1249.66
eigval :     1250.86  1261.20  1273.22  1274.92  1285.73  1287.19
eigval :     1290.02  1301.25  1308.02  1317.75  1319.86  1322.56
eigval :     1325.65  1334.98  1336.78  1338.89  1343.64  1356.58
eigval :     1358.58  1369.68  1370.74  1376.88  1379.95  1386.00
eigval :     1392.16  1392.48  1414.76  1415.99  1417.61  1422.22
eigval :     1423.36  1437.00  1440.50  1448.49  1449.98  1466.51
eigval :     1469.29  1478.29  1481.19  1485.42  1491.39  1496.25
eigval :     1499.96  1505.27  1507.78  1509.67  1510.24  1561.62
eigval :     1564.87  1565.29  1569.75  1574.20  1583.27  1585.41
eigval :     1596.26  1596.62  1598.39  1605.52  1610.85  1610.96
eigval :     1639.35  1652.15  2879.61  2887.93  2922.80  2950.06
eigval :     2959.65  2964.43  2972.39  2978.50  2981.34  2986.06
eigval :     2989.16  2992.00  3014.81  3028.07  3032.35  3038.57
eigval :     3052.60  3066.29  3066.45  3068.86  3069.43  3072.65
eigval :     3073.43  3073.79  3074.45  3075.23  3075.60  3076.52
eigval :     3077.39  3081.23  3082.90  3083.98  3084.26  3084.77
eigval :     3086.05  3086.78  3087.36  3088.64  3090.16  3092.25
eigval :     3093.07  3100.08  3104.49

   temp. (K)  partition function   enthalpy   heat capacity  entropy
                                   cal/mol     cal/K/mol   cal/K/mol   J/K/mol
 298.15  VIB  0.501E+24            27280.091    167.749    173.694
         ROT  0.168E+09              888.752      2.981     40.621
         INT  0.842E+32            28168.843    170.730    214.316
         TR   0.185E+29             1481.254      4.968     45.557
         TOT                       29650.0969   175.6978   259.8723  1087.3056

       T/K    H(0)-H(T)+PV         H(T)/Eh          T*S/Eh         G(T)/Eh
   ------------------------------------------------------------------------
    298.15    0.472504E-01    0.824564E+00    0.123474E+00    0.701090E+00
   ------------------------------------------------------------------------

         :::::::::::::::::::::::::::::::::::::::::::::::::::::
         ::                  THERMODYNAMIC                  ::
         :::::::::::::::::::::::::::::::::::::::::::::::::::::
         :: total free energy        -138.760738083146 Eh   ::
         ::.................................................::
         :: total energy             -139.461827967045 Eh   ::
         :: zero point energy           0.777313152332 Eh   ::
         :: G(RRHO) w/o ZPVE           -0.076223268434 Eh   ::
         :: G(RRHO) contrib.            0.701089883898 Eh   ::
         :::::::::::::::::::::::::::::::::::::::::::::::::::::

           -------------------------------------------------
          | TOTAL ENERGY             -139.461827967045 Eh   |
          | TOTAL ENTHALPY           -138.637264377717 Eh   |
          | TOTAL FREE ENERGY        -138.760738083146 Eh   |
          | GRADIENT NORM               0.000065774015 Eh/α |
          | HOMO-LUMO GAP               2.214461029782 eV   |
           -------------------------------------------------

 * finished run on 2025/09/09 at 17:46:24.844
