   * xtb version 6.7.1 (edcfbbe) compiled by 'albert@albert-system' on 2024-07-22

   ID    Z sym.   atoms
    1    7 N      1, 14
    2    6 C      2-13, 15-30
    3    1 H      31-54

          program call               : xtb data2507/toluene/TPA-L-BN/TPA-L-BN_toluene_T1_crest.xyz --gfn 2 --uhf 2 --gbsa toluene --ohess vtight --parallel 40 --molden --ceasefiles --namespace data2507/toluene/TPA-L-BN/TPA-L-BN_toluene_T1_finalOpt
      * Solvation model:               GBSA
        Solvent                        toluene
        Solvent mass                       9.2140E+01 g/mol
          :  Hamiltonian                  GFN2-xTB          :
 * total energy  :   -77.9371244 Eh     change       -0.8033254E-09 Eh
 * total energy  :   -77.9372115 Eh     change       -0.8704427E-04 Eh
 * total energy  :   -77.9372533 Eh     change       -0.4182393E-04 Eh
 * total energy  :   -77.9372694 Eh     change       -0.1610696E-04 Eh
 * total energy  :   -77.9372782 Eh     change       -0.8790427E-05 Eh
 * total energy  :   -77.9372861 Eh     change       -0.7925930E-05 Eh
 * total energy  :   -77.9372891 Eh     change       -0.2944331E-05 Eh
 * total energy  :   -77.9372920 Eh     change       -0.2974065E-05 Eh
 * total energy  :   -77.9372937 Eh     change       -0.1672161E-05 Eh
 * total energy  :   -77.9372953 Eh     change       -0.1623617E-05 Eh
 * total energy  :   -77.9372990 Eh     change       -0.9525744E-06 Eh
 * total energy  :   -77.9373001 Eh     change       -0.1078541E-05 Eh
 * total energy  :   -77.9373013 Eh     change       -0.1204160E-05 Eh
 * total energy  :   -77.9373021 Eh     change       -0.8166810E-06 Eh
 * total energy  :   -77.9373024 Eh     change       -0.3711875E-06 Eh
 * total energy  :   -77.9373026 Eh     change       -0.1061279E-06 Eh
 * total energy  :   -77.9373027 Eh     change       -0.1180952E-06 Eh
 * total energy  :   -77.9373027 Eh     change        0.8937249E-08 Eh
 * total energy  :   -77.9373028 Eh     change       -0.9869410E-07 Eh
   *** GEOMETRY OPTIMIZATION CONVERGED AFTER 21 ITERATIONS ***

 final structure:
================
54
 xtb: 6.7.1 (edcfbbe)
N           -1.15701198672635        0.85667473775110       -2.79257827414420
C           -0.05725224046500        0.76181586490952       -2.42033546397099
C            1.23367250828332        0.61823100648430       -1.95635094944928
C            1.94831645112083       -0.59655224603576       -2.18201747088278
C            3.18607411143658       -0.77674309679664       -1.64190934832522
C            3.77525581908786        0.19956425574960       -0.80815357977317
C            5.12129257237063       -0.01225690574243       -0.19339670004366
C            5.04006046695644       -0.01186712050676        1.33760182410112
C            4.01850470673822       -1.05257709753673        1.80565129502668
C            2.62958384336435       -0.74723764111321        1.34594756325806
C            1.85203996838901       -1.70524812819993        0.65340630575336
C            0.54152210520816       -1.47854757334745        0.34799632079174
C           -0.11277172563769       -0.29178268885964        0.76673495211541
N           -1.45311679263486       -0.11103258067887        0.52519720602672
C           -2.26385112652733       -1.22745035426376        0.23180356754852
C           -3.09406264884889       -1.19964604719411       -0.88808513969379
C           -3.90017133943609       -2.28480090121860       -1.17132508962073
C           -3.88958278079976       -3.40022179840781       -0.34549924407149
C           -3.06276144956630       -3.42854617284318        0.76754916599626
C           -2.25018218127156       -2.35006169637259        1.06021193146243
C           -2.08435528925808        1.13073967638332        0.57596638735564
C           -3.41288410774290        1.20924718245922        1.01569539190815
C           -4.05506459893662        2.42786589429450        1.07878438761094
C           -3.39480160702918        3.59166717296924        0.71024416369083
C           -2.08021836389540        3.52086468190585        0.27113719659812
C           -1.42692190591918        2.30806433416481        0.20555124942745
C            0.63687047636828        0.62926184991599        1.54807871166152
C            1.95337889624383        0.40317663277940        1.81940220196329
C            3.13869851445574        1.46273633145250       -0.72625772314752
C            1.91331805724879        1.67521799383398       -1.27661144159829
H            1.48733372242915       -1.35961173858694       -2.79436779103358
H            3.72177538881962       -1.69804669930620       -1.82702819982906
H            5.80505196819222        0.78442298107721       -0.50447951885241
H            5.53456361677947       -0.96446669985522       -0.53307085231021
H            6.02056126723294       -0.23778162459121        1.76205414756265
H            4.74042820631157        0.97754252327628        1.68477513939950
H            4.03044221159975       -1.07435257962839        2.90067842211278
H            4.31679051554543       -2.03860260211202        1.44468657740392
H            2.31745382782246       -2.62637402269866        0.33623406974799
H           -0.00815076882351       -2.20093220664966       -0.23577652098444
H           -3.06598085799068       -0.33700902222963       -1.53766818035115
H           -4.53337790003336       -2.26306429069215       -2.04541009680516
H           -4.52164935337898       -4.24558342704694       -0.57106681149664
H           -3.05507040229454       -4.29281577520330        1.41469052618007
H           -1.61422995573621       -2.35783542028836        1.93331806827820
H           -3.92708220847168        0.30969668758106        1.31903485064756
H           -5.07739394545004        2.47300666216486        1.42325898063459
H           -3.90074382810819        4.54356691519532        0.75865915849346
H           -1.56325861098126        4.41891757737270       -0.03358146209290
H           -0.42124409189014        2.25012432134458       -0.17397605319915
H            0.13702295710931        1.48605192267331        1.97314784107270
H            2.49103180141058        1.10599926141690        2.43862573466298
H            3.64206362313756        2.26925349833330       -0.21099850463780
H            1.44545603138887        2.64952473111615       -1.22509647357881

          :  Hamiltonian                  GFN2-xTB          :
         :: gradient norm              0.000079004037 Eh/a0 ::
         :: HOMO-LUMO gap              0.462546065219 eV    ::
         :: SCC energy               -79.390069135915 Eh    ::
         :: -> dispersion             -0.078888995754 Eh    ::
         :: -> Gsolv                  -0.035084547681 Eh    ::
         :: repulsion energy           1.452766373496 Eh    ::

    * Orbital Energies and Occupations

         #    Occupation            Energy/Eh            Energy/eV
      -------------------------------------------------------------
         1        2.0000           -0.6818950             -18.5553
       ...           ...                  ...                  ...
        62        2.0000           -0.4246742             -11.5560
        63        2.0000           -0.4241700             -11.5423
        64        2.0000           -0.4197320             -11.4215
        65        2.0000           -0.4176526             -11.3649
        66        2.0000           -0.4151429             -11.2966
        67        2.0000           -0.4129288             -11.2364
        68        2.0000           -0.4091451             -11.1334
        69        2.0000           -0.4071231             -11.0784
        70        2.0000           -0.3943131             -10.7298
        71        2.0000           -0.3900537             -10.6139
        72        2.0000           -0.3764592             -10.2440
        73        1.0000           -0.3529005              -9.6029
        74        0.9999           -0.2586737              -7.0389 (HOMO)
        75        0.0001           -0.2416756              -6.5763 (LUMO)
        76        0.0000           -0.2358317              -6.4173
        77                         -0.2347952              -6.3891
        78                         -0.2298634              -6.2549
        79                         -0.2295678              -6.2469
        80                         -0.2052179              -5.5843
        81                         -0.2028390              -5.5195
        82                         -0.1808881              -4.9222
        83                         -0.1480745              -4.0293
        84                         -0.1094675              -2.9788
        85                         -0.1070511              -2.9130
       ...                                ...                  ...
       144                          1.1630336              31.6478
      -------------------------------------------------------------
                  HL-Gap            0.0169982 Eh            0.4625 eV

     #   Z          covCN         q      C6AA      α(0)
     1   7 N        0.911    -0.387    30.004     7.922
     2   6 C        1.909     0.092    28.800     8.667
     3   6 C        2.966    -0.024    28.605     8.773
     4   6 C        2.918    -0.040    29.001     8.831
     5   6 C        2.914    -0.039    28.971     8.826
     6   6 C        2.967    -0.008    28.216     8.713
     7   6 C        3.808    -0.057    21.598     6.616
     8   6 C        3.804    -0.050    21.468     6.596
     9   6 C        3.808    -0.060    21.644     6.623
    10   6 C        2.963     0.019    27.575     8.613
    11   6 C        2.915    -0.034    28.853     8.808
    12   6 C        2.913    -0.039    28.972     8.826
    13   6 C        2.919     0.053    26.801     8.490
    14   7 N        2.751    -0.013    21.502     6.887
    15   6 C        2.936     0.062    26.613     8.461
    16   6 C        2.920    -0.035    28.879     8.812
    17   6 C        2.919    -0.025    28.625     8.774
    18   6 C        2.919    -0.029    28.725     8.789
    19   6 C        2.919    -0.027    28.670     8.781
    20   6 C        2.920    -0.039    28.958     8.825
    21   6 C        2.927     0.065    26.549     8.450
    22   6 C        2.922    -0.042    29.036     8.837
    23   6 C        2.918    -0.026    28.658     8.779
    24   6 C        2.918    -0.031    28.764     8.795
    25   6 C        2.918    -0.026    28.642     8.776
    26   6 C        2.920    -0.036    28.902     8.816
    27   6 C        2.912    -0.045    29.118     8.848
    28   6 C        2.915    -0.033    28.820     8.803
    29   6 C        2.914    -0.039    28.980     8.827
    30   6 C        2.915    -0.041    29.019     8.834
    31   1 H        0.925     0.006     2.962     2.691
    32   1 H        0.925     0.019     2.746     2.592
    33   1 H        0.924     0.040     2.456     2.451
    34   1 H        0.924     0.036     2.510     2.477
    35   1 H        0.924     0.038     2.481     2.463
    36   1 H        0.924     0.040     2.444     2.445
    37   1 H        0.924     0.056     2.244     2.342
    38   1 H        0.924     0.047     2.360     2.403
    39   1 H        0.926     0.040     2.444     2.445
    40   1 H        0.926     0.036     2.507     2.476
    41   1 H        0.926     0.055     2.256     2.349
    42   1 H        0.926     0.047     2.362     2.403
    43   1 H        0.926     0.047     2.355     2.400
    44   1 H        0.926     0.049     2.332     2.388
    45   1 H        0.926     0.046     2.365     2.405
    46   1 H        0.926     0.043     2.407     2.426
    47   1 H        0.926     0.047     2.360     2.402
    48   1 H        0.926     0.044     2.390     2.418
    49   1 H        0.926     0.041     2.442     2.444
    50   1 H        0.926     0.044     2.399     2.422
    51   1 H        0.926     0.042     2.417     2.431
    52   1 H        0.926     0.044     2.393     2.419
    53   1 H        0.925     0.021     2.722     2.580
    54   1 H        0.925     0.006     2.955     2.688

molecular dipole:
                 x           y           z       tot (Debye)
 q only:       -0.167      -0.896       2.626
   full:        0.280      -0.885       2.591       6.995

 projected vibrational frequencies (cm⁻¹)
eigval :       -0.00     0.00     0.00     0.00     0.00     0.00
eigval :       31.39    34.36    45.04    48.36    59.63    61.93
eigval :       74.32    85.05    92.47   112.63   124.92   141.74
eigval :      148.82   174.03   196.22   209.96   236.79   241.96
eigval :      263.96   280.73   302.93   314.12   338.19   352.54
eigval :      370.58   373.87   376.67   380.33   393.63   396.10
eigval :      415.19   435.34   451.37   475.07   510.38   519.34
eigval :      536.09   555.79   578.42   585.93   589.82   600.70
eigval :      604.83   605.76   635.25   654.36   662.34   679.32
eigval :      692.79   748.26   757.99   763.94   781.00   794.44
eigval :      801.12   817.05   826.67   861.11   874.04   879.20
eigval :      885.48   892.18   895.30   897.23   899.53   902.45
eigval :      906.97   908.27   911.61   915.72   926.92   928.48
eigval :      931.71   953.55   971.95   975.28   988.68   995.92
eigval :     1028.16  1063.07  1074.95  1077.09  1105.77  1115.66
eigval :     1121.47  1137.17  1148.09  1156.44  1170.48  1174.39
eigval :     1175.43  1180.43  1182.76  1190.24  1198.40  1206.20
eigval :     1221.43  1231.48  1239.53  1255.93  1266.36  1273.22
eigval :     1278.99  1283.50  1307.70  1312.67  1319.43  1325.75
eigval :     1327.56  1330.76  1340.50  1348.85  1357.29  1389.96
eigval :     1426.87  1429.28  1433.04  1439.90  1444.56  1451.15
eigval :     1458.51  1466.57  1467.62  1471.97  1479.99  1513.58
eigval :     1538.12  1553.38  1557.37  1569.79  1613.08  2209.73
eigval :     2928.48  2930.39  2967.35  2975.30  2984.21  2996.73
eigval :     3047.38  3049.95  3062.43  3066.06  3077.84  3079.51
eigval :     3079.68  3081.14  3081.68  3083.12  3087.97  3091.61
eigval :     3093.16  3093.64  3096.31  3099.50  3100.27  3137.30

   temp. (K)  partition function   enthalpy   heat capacity  entropy
                                   cal/mol     cal/K/mol   cal/K/mol   J/K/mol
 298.15  VIB  0.908E+10            14507.729     94.614     88.857
         ROT  0.138E+08              888.752      2.981     35.651
         INT  0.125E+18            15396.481     97.595    124.508
         TR   0.741E+28             1481.254      4.968     43.743
         TOT                       16877.7352   102.5635   168.2518   703.9657

       T/K    H(0)-H(T)+PV         H(T)/Eh          T*S/Eh         G(T)/Eh
   ------------------------------------------------------------------------
    298.15    0.268964E-01    0.453770E+00    0.799419E-01    0.373828E+00
   ------------------------------------------------------------------------

         :::::::::::::::::::::::::::::::::::::::::::::::::::::
         ::                  THERMODYNAMIC                  ::
         :::::::::::::::::::::::::::::::::::::::::::::::::::::
         :: total free energy         -77.563474285021 Eh   ::
         ::.................................................::
         :: total energy              -77.937302762008 Eh   ::
         :: zero point energy           0.426873972526 Eh   ::
         :: G(RRHO) w/o ZPVE           -0.053045495539 Eh   ::
         :: G(RRHO) contrib.            0.373828476986 Eh   ::
         :::::::::::::::::::::::::::::::::::::::::::::::::::::

           -------------------------------------------------
          | TOTAL ENERGY              -77.937302762008 Eh   |
          | TOTAL ENTHALPY            -77.483532406362 Eh   |
          | TOTAL FREE ENERGY         -77.563474285021 Eh   |
          | GRADIENT NORM               0.000078741563 Eh/α |
          | HOMO-LUMO GAP               0.462543586832 eV   |
           -------------------------------------------------

 * finished run on 2025/09/04 at 14:17:10.572
