   * xtb version 6.7.1 (edcfbbe) compiled by 'albert@albert-system' on 2024-07-22

   ID    Z sym.   atoms
    1    7 N      1, 14
    2    6 C      2-13, 15-30
    3    1 H      31-54

          program call               : xtb data2507/toluene/TPA-L-BN/TPA-L-BN_toluene_S0_crest.xyz --gfn 2 --gbsa toluene --ohess vtight --parallel 40 --molden --ceasefiles --namespace data2507/toluene/TPA-L-BN/TPA-L-BN_toluene_S0_finalOpt
      * Solvation model:               GBSA
        Solvent                        toluene
        Solvent mass                       9.2140E+01 g/mol
          :  Hamiltonian                  GFN2-xTB          :
 * total energy  :   -78.0376520 Eh     change       -0.3919695E-08 Eh
 * total energy  :   -78.0377265 Eh     change       -0.7449542E-04 Eh
 * total energy  :   -78.0378203 Eh     change       -0.9387694E-04 Eh
 * total energy  :   -78.0378986 Eh     change       -0.7828799E-04 Eh
 * total energy  :   -78.0380433 Eh     change       -0.1446326E-03 Eh
 * total energy  :   -78.0382197 Eh     change       -0.1764601E-03 Eh
 * total energy  :   -78.0383104 Eh     change       -0.9066179E-04 Eh
 * total energy  :   -78.0383670 Eh     change       -0.5666467E-04 Eh
 * total energy  :   -78.0384294 Eh     change       -0.6240006E-04 Eh
 * total energy  :   -78.0384680 Eh     change       -0.3854498E-04 Eh
 * total energy  :   -78.0387382 Eh     change       -0.9428937E-06 Eh
 * total energy  :   -78.0387390 Eh     change       -0.8250981E-06 Eh
 * total energy  :   -78.0387396 Eh     change       -0.6076494E-06 Eh
 * total energy  :   -78.0387400 Eh     change       -0.3742504E-06 Eh
 * total energy  :   -78.0387403 Eh     change       -0.2754362E-06 Eh
 * total energy  :   -78.0387405 Eh     change       -0.2548239E-06 Eh
 * total energy  :   -78.0387407 Eh     change       -0.2169246E-06 Eh
 * total energy  :   -78.0387409 Eh     change       -0.1767709E-06 Eh
 * total energy  :   -78.0387409 Eh     change       -0.2040480E-08 Eh
   *** GEOMETRY OPTIMIZATION CONVERGED AFTER 44 ITERATIONS ***

 final structure:
================
54
 xtb: 6.7.1 (edcfbbe)
N           -0.58642991820750        1.78784414465981       -3.48314017096275
C            0.37325504268946        1.47963861951402       -2.93219588626414
C            1.54766828414820        1.09510686860530       -2.25316921158988
C            2.16079047610283       -0.12182314420521       -2.55356106786521
C            3.29989325491981       -0.49922988431095       -1.87272962013376
C            3.84419514774136        0.30689985076556       -0.87805044223007
C            5.07509040176646       -0.11517851914261       -0.13236903802561
C            4.85318404423981       -0.28039001288495        1.37666797710000
C            3.90674724850244       -1.43387534278234        1.73408675470510
C            2.46428248917897       -1.13114558796988        1.43970536437834
C            1.76050979396039       -1.82335936388890        0.46347746211094
C            0.43920563317036       -1.53213769408531        0.18859483035583
C           -0.23297915059044       -0.54567450632623        0.90874776578782
N           -1.57707214416727       -0.26306847923715        0.64558147898353
C           -2.43710745288576       -1.28953681613130        0.22669797615862
C           -3.37007948630464       -1.05802782108872       -0.78369661027874
C           -4.22097116047834       -2.06843546578094       -1.18927992653299
C           -4.15101263152933       -3.32251947795332       -0.60373850657072
C           -3.22253511652177       -3.55865941054285        0.39741452013110
C           -2.37326155840052       -2.55204680089042        0.81567765509321
C           -2.07800159097766        1.03608100532940        0.78178774366850
C           -3.37601519721295        1.24543030894315        1.24939726108707
C           -3.87375102751116        2.52806896472885        1.37475873804063
C           -3.08872220196232        3.62191002430460        1.04806253770290
C           -1.79693926776525        3.42043557007373        0.58913951767432
C           -1.29363972867420        2.14145902086745        0.45412080585470
C            0.46188264654346        0.13629482655518        1.90830911084422
C            1.78753524521969       -0.15173782919449        2.15904913508221
C            3.23804787245084        1.53071913739440       -0.60521862647668
C            2.10448977263573        1.92907601447302       -1.28081951932721
H            1.73626524669865       -0.75834894237156       -3.31637462762193
H            3.77262559701082       -1.43953846182468       -2.11588528901486
H            5.84838034040905        0.64476405547179       -0.27902389849587
H            5.44743684512706       -1.05506082315684       -0.54399325100471
H            5.82397875761587       -0.47313517113940        1.83924970533375
H            4.46255708946925        0.64794551980424        1.79482678764451
H            4.00886378132131       -1.63603254863378        2.80435419198073
H            4.21168091508344       -2.33236119842141        1.19432436374067
H            2.25311734180449       -2.60206490296279       -0.10078538586819
H           -0.08246486971348       -2.07096551133501       -0.58917044575664
H           -3.41723486861531       -0.08378699074631       -1.24898867941242
H           -4.93667531742981       -1.87650282918118       -1.97550866340389
H           -4.81505031592181       -4.11055864426661       -0.92606844920841
H           -3.16441838934109       -4.53184420138790        0.86321369824157
H           -1.65535297076226       -2.73463687669743        1.60234314225364
H           -3.98987763016975        0.39593704581511        1.51178951106207
H           -4.88072087212779        2.67404070914275        1.73819296225540
H           -3.48055389312716        4.62292694109502        1.14858952328388
H           -1.18002330254887        4.26724107905461        0.32467744194351
H           -0.29189303042873        1.98252624280479        0.08436016523343
H           -0.04879516086896        0.88787145739813        2.49276400085175
H            2.30087364838088        0.38444985092576        2.94486166272019
H            3.66276081652768        2.18324530449609        0.14306782375477
H            1.64683977592321        2.88541978871384       -1.07161381369408

          :  Hamiltonian                  GFN2-xTB          :
         :: gradient norm              0.000059518625 Eh/a0 ::
         :: HOMO-LUMO gap              2.082333211010 eV    ::
         :: SCC energy               -79.517437899829 Eh    ::
         :: -> dispersion             -0.072650256732 Eh    ::
         :: -> Gsolv                  -0.033531397811 Eh    ::
         :: repulsion energy           1.478696984162 Eh    ::

    * Orbital Energies and Occupations

         #    Occupation            Energy/Eh            Energy/eV
      -------------------------------------------------------------
         1        2.0000           -0.6633130             -18.0497
       ...           ...                  ...                  ...
        61        2.0000           -0.4275671             -11.6347
        62        2.0000           -0.4235634             -11.5257
        63        2.0000           -0.4226195             -11.5001
        64        2.0000           -0.4208240             -11.4512
        65        2.0000           -0.4193661             -11.4115
        66        2.0000           -0.4188968             -11.3988
        67        2.0000           -0.4102965             -11.1647
        68        2.0000           -0.4067291             -11.0677
        69        2.0000           -0.4056591             -11.0385
        70        2.0000           -0.4034467             -10.9783
        71        2.0000           -0.4012825             -10.9195
        72        2.0000           -0.3948294             -10.7439
        73        2.0000           -0.3468397              -9.4380 (HOMO)
        74                         -0.2703154              -7.3557 (LUMO)
        75                         -0.2383653              -6.4863
        76                         -0.2294534              -6.2437
        77                         -0.2275203              -6.1911
        78                         -0.2256625              -6.1406
        79                         -0.2206235              -6.0035
        80                         -0.2187718              -5.9531
        81                         -0.2101363              -5.7181
        82                         -0.1928106              -5.2466
        83                         -0.1716985              -4.6722
        84                         -0.0978907              -2.6637
       ...                                ...                  ...
       144                          1.1617364              31.6125
      -------------------------------------------------------------
                  HL-Gap            0.0765243 Eh            2.0823 eV

     #   Z          covCN         q      C6AA      α(0)
     1   7 N        0.911    -0.283    27.307     7.558
     2   6 C        1.912     0.119    28.166     8.571
     3   6 C        2.974     0.009    27.802     8.649
     4   6 C        2.925    -0.020    28.496     8.754
     5   6 C        2.924    -0.032    28.786     8.799
     6   6 C        2.967     0.031    27.316     8.573
     7   6 C        3.807    -0.065    21.734     6.636
     8   6 C        3.801    -0.052    21.511     6.603
     9   6 C        3.806    -0.063    21.708     6.633
    10   6 C        2.967     0.004    27.936     8.670
    11   6 C        2.925    -0.040    28.988     8.829
    12   6 C        2.922    -0.053    29.304     8.877
    13   6 C        2.922     0.061    26.635     8.463
    14   7 N        2.751    -0.085    22.901     7.108
    15   6 C        2.925     0.067    26.508     8.443
    16   6 C        2.922    -0.046    29.151     8.854
    17   6 C        2.919    -0.030    28.749     8.793
    18   6 C        2.919    -0.039    28.967     8.826
    19   6 C        2.919    -0.031    28.768     8.795
    20   6 C        2.922    -0.047    29.174     8.858
    21   6 C        2.923     0.067    26.503     8.442
    22   6 C        2.923    -0.049    29.216     8.864
    23   6 C        2.919    -0.030    28.761     8.794
    24   6 C        2.919    -0.040    28.995     8.830
    25   6 C        2.919    -0.030    28.746     8.792
    26   6 C        2.923    -0.048    29.183     8.859
    27   6 C        2.921    -0.052    29.295     8.876
    28   6 C        2.925    -0.040    28.992     8.830
    29   6 C        2.924    -0.032    28.800     8.801
    30   6 C        2.924    -0.020    28.518     8.758
    31   1 H        0.926     0.038     2.469     2.457
    32   1 H        0.926     0.046     2.366     2.405
    33   1 H        0.924     0.052     2.294     2.368
    34   1 H        0.924     0.048     2.351     2.398
    35   1 H        0.924     0.041     2.433     2.439
    36   1 H        0.924     0.042     2.424     2.435
    37   1 H        0.924     0.043     2.414     2.430
    38   1 H        0.924     0.041     2.431     2.438
    39   1 H        0.926     0.032     2.559     2.502
    40   1 H        0.926     0.024     2.674     2.557
    41   1 H        0.926     0.030     2.586     2.515
    42   1 H        0.926     0.034     2.534     2.489
    43   1 H        0.926     0.033     2.541     2.493
    44   1 H        0.926     0.035     2.522     2.484
    45   1 H        0.926     0.032     2.556     2.500
    46   1 H        0.926     0.030     2.586     2.515
    47   1 H        0.926     0.033     2.539     2.492
    48   1 H        0.926     0.032     2.560     2.502
    49   1 H        0.926     0.030     2.585     2.514
    50   1 H        0.926     0.025     2.651     2.546
    51   1 H        0.926     0.029     2.606     2.524
    52   1 H        0.926     0.034     2.532     2.488
    53   1 H        0.926     0.047     2.356     2.400
    54   1 H        0.926     0.038     2.478     2.462

molecular dipole:
                 x           y           z       tot (Debye)
 q only:        1.834      -0.638       1.062
   full:        2.068      -0.707       1.185       6.319

 projected vibrational frequencies (cm⁻¹)
eigval :       -0.00    -0.00    -0.00     0.00     0.00     0.00
eigval :       16.82    21.86    34.57    38.33    39.78    55.10
eigval :       60.46    69.36    74.98    84.61   104.59   122.82
eigval :      134.11   171.91   197.70   222.22   232.44   249.40
eigval :      268.57   297.07   316.30   328.52   347.61   369.45
eigval :      374.42   375.06   380.46   390.61   395.04   403.49
eigval :      430.27   467.36   488.40   495.36   518.81   534.89
eigval :      550.09   560.84   584.11   588.43   593.89   613.41
eigval :      616.73   657.75   661.26   672.21   675.59   683.85
eigval :      700.57   753.86   758.63   788.46   806.96   810.93
eigval :      839.14   867.18   869.04   873.17   875.07   881.36
eigval :      889.37   894.79   908.28   910.86   914.37   920.11
eigval :      921.71   922.91   923.73   926.90   927.77   928.67
eigval :      930.10   958.94   986.65  1004.68  1014.68  1026.82
eigval :     1045.31  1081.58  1084.28  1085.20  1119.96  1121.59
eigval :     1123.28  1144.82  1155.07  1177.76  1177.96  1186.25
eigval :     1189.17  1194.96  1197.80  1199.14  1209.50  1215.51
eigval :     1222.47  1241.04  1260.03  1270.58  1276.19  1279.77
eigval :     1282.76  1310.70  1315.70  1319.14  1322.88  1326.26
eigval :     1327.37  1340.59  1341.21  1346.60  1405.04  1417.14
eigval :     1435.21  1441.39  1468.06  1470.48  1472.24  1474.27
eigval :     1479.55  1485.22  1493.72  1561.17  1569.05  1577.08
eigval :     1579.74  1591.57  1593.84  1596.82  1607.83  2358.99
eigval :     2950.35  2951.46  2969.74  2984.90  2986.49  2999.14
eigval :     3067.13  3070.12  3070.42  3071.08  3071.27  3071.91
eigval :     3076.55  3077.76  3080.67  3081.35  3082.26  3083.56
eigval :     3085.09  3087.91  3090.10  3091.28  3093.10  3097.32

   temp. (K)  partition function   enthalpy   heat capacity  entropy
                                   cal/mol     cal/K/mol   cal/K/mol   J/K/mol
 298.15  VIB  0.129E+12            14468.490     91.218     90.183
         ROT  0.154E+08              888.752      2.981     35.871
         INT  0.198E+19            15357.242     94.199    126.054
         TR   0.741E+28             1481.254      4.968     43.743
         TOT                       16838.4958    99.1668   169.7976   710.4331

       T/K    H(0)-H(T)+PV         H(T)/Eh          T*S/Eh         G(T)/Eh
   ------------------------------------------------------------------------
    298.15    0.268339E-01    0.457791E+00    0.806763E-01    0.377115E+00
   ------------------------------------------------------------------------

         :::::::::::::::::::::::::::::::::::::::::::::::::::::
         ::                  THERMODYNAMIC                  ::
         :::::::::::::::::::::::::::::::::::::::::::::::::::::
         :: total free energy         -77.661625951178 Eh   ::
         ::.................................................::
         :: total energy              -78.038740918052 Eh   ::
         :: zero point energy           0.430957423902 Eh   ::
         :: G(RRHO) w/o ZPVE           -0.053842457028 Eh   ::
         :: G(RRHO) contrib.            0.377114966874 Eh   ::
         :::::::::::::::::::::::::::::::::::::::::::::::::::::

           -------------------------------------------------
          | TOTAL ENERGY              -78.038740918052 Eh   |
          | TOTAL ENTHALPY            -77.580949643054 Eh   |
          | TOTAL FREE ENERGY         -77.661625951178 Eh   |
          | GRADIENT NORM               0.000059481403 Eh/α |
          | HOMO-LUMO GAP               2.082333215501 eV   |
           -------------------------------------------------

 * finished run on 2025/09/04 at 14:11:53.887
