   * xtb version 6.7.1 (edcfbbe) compiled by 'albert@albert-system' on 2024-07-22

   ID    Z sym.   atoms
    1    7 N      1, 14
    2    6 C      2-13, 15-30
    3    1 H      31-54

          program call               : xtb data2507/toluene/TPA-L-BN/TPA-L-BN.xyz --gfn 2 --gbsa toluene --ohess vtight --parallel 40 --molden --ceasefiles --namespace data2507/toluene/TPA-L-BN/TPA-L-BN_toluene_S0_preOpt
      * Solvation model:               GBSA
        Solvent                        toluene
        Solvent mass                       9.2140E+01 g/mol
          :  Hamiltonian                  GFN2-xTB          :
 * total energy  :   -78.0249875 Eh     change       -0.5241390E-09 Eh
 * total energy  :   -78.0335484 Eh     change       -0.8560861E-02 Eh
 * total energy  :   -78.0361092 Eh     change       -0.2560867E-02 Eh
 * total energy  :   -78.0365925 Eh     change       -0.4832909E-03 Eh
 * total energy  :   -78.0368540 Eh     change       -0.2615163E-03 Eh
 * total energy  :   -78.0369988 Eh     change       -0.1447960E-03 Eh
 * total energy  :   -78.0370942 Eh     change       -0.9542009E-04 Eh
 * total energy  :   -78.0371853 Eh     change       -0.9110432E-04 Eh
 * total energy  :   -78.0372335 Eh     change       -0.4814765E-04 Eh
 * total energy  :   -78.0372752 Eh     change       -0.4171061E-04 Eh
 * total energy  :   -78.0374332 Eh     change       -0.7665571E-06 Eh
 * total energy  :   -78.0374340 Eh     change       -0.7731762E-06 Eh
 * total energy  :   -78.0374345 Eh     change       -0.5288924E-06 Eh
 * total energy  :   -78.0374350 Eh     change       -0.4841145E-06 Eh
 * total energy  :   -78.0374356 Eh     change       -0.5719276E-06 Eh
 * total energy  :   -78.0374360 Eh     change       -0.4824149E-06 Eh
 * total energy  :   -78.0374363 Eh     change       -0.2742737E-06 Eh
 * total energy  :   -78.0374365 Eh     change       -0.2115659E-06 Eh
 * total energy  :   -78.0374365 Eh     change       -0.4027285E-08 Eh
   *** GEOMETRY OPTIMIZATION CONVERGED AFTER 44 ITERATIONS ***

 final structure:
================
54
 xtb: 6.7.1 (edcfbbe)
N            7.26438947254380       -3.54623932978955       -2.15418356507513
C            6.62012225123627       -2.65970785046018       -1.80999133911081
C            5.83084359802087       -1.57062819065872       -1.38510796528965
C            6.42073093097171       -0.50240436727042       -0.70469064870956
C            5.64180703060934        0.55948410548298       -0.29455377808766
C            4.27128363919868        0.58432242954261       -0.54452227829237
C            3.43640914377885        1.74032418237807       -0.07970291681664
C            3.34397286632248        1.81945502134829        1.44989768496105
C            2.64981040154956        0.59925792237845        2.06649207269261
C            1.24196650186998        0.41832520694873        1.57086334682171
C            0.27641939446556        1.39599959597507        1.78941211125985
C           -1.01350909591260        1.24415160579548        1.32281585819306
C           -1.37760240554640        0.09935537189065        0.61430014319666
N           -2.68376736559575       -0.05529596083210        0.12890677706723
C           -3.36448240905829        1.04600302451473       -0.40106096464179
C           -2.68025323860735        2.01306654557762       -1.13853421859741
C           -3.35380363235963        3.10302395566515       -1.65499589854774
C           -4.71759578913043        3.24506638124134       -1.45568588006162
C           -5.40358307195084        2.28593161252351       -0.72781488231765
C           -4.73680288261360        1.19770391526412       -0.19883608299011
C           -3.29965292903004       -1.31089529330442        0.17921795116869
C           -3.08031850694361       -2.16305855008671        1.26216109671618
C           -3.68319060082712       -3.40536325413272        1.30517714042912
C           -4.51937594642871       -3.81653186559191        0.27960822490495
C           -4.74355955005122       -2.97330256737750       -0.79690665910417
C           -4.13784104685840       -1.73286855349271       -0.85342654618054
C           -0.41901777313639       -0.88987251891537        0.40317421676073
C            0.86694650938791       -0.72857031929378        0.88205033874153
C            3.69673068101196       -0.48204640222951       -1.22938172001021
C            4.45989344308253       -1.55376270292792       -1.64801184620549
H            7.48325924526948       -0.51671356155619       -0.50919915528737
H            6.10486561199826        1.38657336480484        0.22330102260875
H            2.42982127750625        1.65658755177661       -0.49262950872531
H            3.88041213791352        2.66982947295010       -0.44590625631005
H            4.34645540274354        1.90235834886486        1.87381548264074
H            2.79326471394314        2.72347801366727        1.71457603067516
H            2.63469467367285        0.72652367054206        3.15300028545984
H            3.23098334646026       -0.29773601749789        1.84288484538253
H            0.53212948445072        2.28674530775530        2.34490941383862
H           -1.75221038294871        2.01076997422818        1.50752427359179
H           -1.61881966927036        1.90092877758096       -1.30537431482223
H           -2.81066876899268        3.84265965358037       -2.22547328618040
H           -5.24174303783547        4.09593137651128       -1.86446329042886
H           -6.46616954787639        2.39020261943208       -0.56170469170631
H           -5.27379776543356        0.45783051792555        0.37699506161140
H           -2.43621192616213       -1.84265891971961        2.06833081406128
H           -3.50560351722681       -4.05351183385402        2.15127026501169
H           -4.99201186290777       -4.78654945612297        0.31858710310736
H           -5.38895374011059       -3.28703702027979       -1.60468357284450
H           -4.30762523415590       -1.08262922446861       -1.69946898101249
H           -0.68840219406294       -1.78505360193041       -0.13894074823193
H            1.59463620079207       -1.50954788020812        0.71169968136113
H            2.63695854111735       -0.47051577971150       -1.43705584966447
H            4.00776339111917       -2.37938850443720       -2.17866239700763

          :  Hamiltonian                  GFN2-xTB          :
         :: gradient norm              0.000062259534 Eh/a0 ::
         :: HOMO-LUMO gap              2.098612143713 eV    ::
         :: SCC energy               -79.514259589097 Eh    ::
         :: -> dispersion             -0.065545329891 Eh    ::
         :: -> Gsolv                  -0.036071740051 Eh    ::
         :: repulsion energy           1.476823063947 Eh    ::

    * Orbital Energies and Occupations

         #    Occupation            Energy/Eh            Energy/eV
      -------------------------------------------------------------
         1        2.0000           -0.6648727             -18.0921
       ...           ...                  ...                  ...
        61        2.0000           -0.4266385             -11.6094
        62        2.0000           -0.4236152             -11.5272
        63        2.0000           -0.4225961             -11.4994
        64        2.0000           -0.4219019             -11.4805
        65        2.0000           -0.4205859             -11.4447
        66        2.0000           -0.4183524             -11.3839
        67        2.0000           -0.4092337             -11.1358
        68        2.0000           -0.4073513             -11.0846
        69        2.0000           -0.4067274             -11.0676
        70        2.0000           -0.4045144             -11.0074
        71        2.0000           -0.4032189             -10.9721
        72        2.0000           -0.3987594             -10.8508
        73        2.0000           -0.3481570              -9.4738 (HOMO)
        74                         -0.2710344              -7.3752 (LUMO)
        75                         -0.2383008              -6.4845
        76                         -0.2299526              -6.2573
        77                         -0.2290213              -6.2320
        78                         -0.2267174              -6.1693
        79                         -0.2213724              -6.0239
        80                         -0.2209279              -6.0118
        81                         -0.2110301              -5.7424
        82                         -0.1938181              -5.2741
        83                         -0.1731176              -4.7108
        84                         -0.0988346              -2.6894
       ...                                ...                  ...
       144                          1.1602200              31.5712
      -------------------------------------------------------------
                  HL-Gap            0.0771226 Eh            2.0986 eV

     #   Z          covCN         q      C6AA      α(0)
     1   7 N        0.911    -0.282    27.281     7.554
     2   6 C        1.912     0.118    28.202     8.577
     3   6 C        2.974     0.010    27.785     8.646
     4   6 C        2.924    -0.021    28.520     8.758
     5   6 C        2.924    -0.032    28.803     8.801
     6   6 C        2.968     0.030    27.321     8.574
     7   6 C        3.808    -0.064    21.725     6.635
     8   6 C        3.802    -0.052    21.500     6.601
     9   6 C        3.807    -0.062    21.683     6.629
    10   6 C        2.967     0.007    27.854     8.657
    11   6 C        2.924    -0.038    28.951     8.824
    12   6 C        2.921    -0.049    29.227     8.866
    13   6 C        2.924     0.061    26.627     8.462
    14   7 N        2.752    -0.083    22.847     7.099
    15   6 C        2.923     0.066    26.520     8.445
    16   6 C        2.922    -0.049    29.214     8.864
    17   6 C        2.919    -0.031    28.769     8.796
    18   6 C        2.919    -0.040    29.003     8.831
    19   6 C        2.919    -0.031    28.765     8.795
    20   6 C        2.922    -0.049    29.215     8.864
    21   6 C        2.923     0.066    26.520     8.445
    22   6 C        2.922    -0.049    29.209     8.863
    23   6 C        2.919    -0.031    28.766     8.795
    24   6 C        2.919    -0.040    28.997     8.830
    25   6 C        2.919    -0.031    28.767     8.795
    26   6 C        2.922    -0.049    29.213     8.863
    27   6 C        2.921    -0.050    29.241     8.868
    28   6 C        2.924    -0.039    28.978     8.828
    29   6 C        2.923    -0.032    28.804     8.801
    30   6 C        2.924    -0.020    28.508     8.756
    31   1 H        0.926     0.040     2.454     2.450
    32   1 H        0.926     0.048     2.341     2.392
    33   1 H        0.924     0.045     2.384     2.415
    34   1 H        0.924     0.050     2.315     2.379
    35   1 H        0.924     0.039     2.456     2.451
    36   1 H        0.924     0.042     2.421     2.433
    37   1 H        0.924     0.042     2.419     2.432
    38   1 H        0.924     0.036     2.504     2.475
    39   1 H        0.926     0.036     2.508     2.477
    40   1 H        0.926     0.030     2.590     2.517
    41   1 H        0.926     0.031     2.577     2.510
    42   1 H        0.926     0.032     2.552     2.498
    43   1 H        0.926     0.030     2.582     2.513
    44   1 H        0.926     0.032     2.565     2.504
    45   1 H        0.926     0.030     2.591     2.517
    46   1 H        0.926     0.031     2.578     2.511
    47   1 H        0.926     0.032     2.559     2.501
    48   1 H        0.926     0.030     2.580     2.512
    49   1 H        0.926     0.032     2.560     2.502
    50   1 H        0.926     0.030     2.582     2.513
    51   1 H        0.926     0.028     2.610     2.526
    52   1 H        0.926     0.031     2.565     2.505
    53   1 H        0.926     0.047     2.353     2.399
    54   1 H        0.926     0.039     2.464     2.454

molecular dipole:
                 x           y           z       tot (Debye)
 q only:       -0.801       1.599       0.753
   full:       -1.050       1.849       0.852       5.821

 projected vibrational frequencies (cm⁻¹)
eigval :       -0.00    -0.00    -0.00     0.00     0.00     0.00
eigval :        5.42    11.09    30.49    34.90    44.91    49.16
eigval :       59.65    62.63    78.45    82.11   106.95   110.14
eigval :      135.24   164.60   196.50   217.32   227.52   258.17
eigval :      268.08   305.86   319.48   329.09   349.32   361.96
eigval :      366.28   376.83   381.24   389.40   398.88   405.42
eigval :      433.12   467.90   487.91   494.87   517.83   533.79
eigval :      550.23   566.82   584.22   588.89   593.94   613.59
eigval :      616.62   657.85   660.33   675.68   679.79   684.33
eigval :      704.48   754.18   756.91   781.80   804.66   813.96
eigval :      832.75   861.73   869.22   871.84   874.13   875.58
eigval :      888.64   891.32   909.03   913.92   915.54   921.64
eigval :      925.63   925.91   926.56   926.94   927.94   929.06
eigval :      935.14   984.08  1001.87  1004.39  1010.71  1024.60
eigval :     1030.74  1082.12  1083.27  1105.05  1120.59  1122.89
eigval :     1126.53  1135.82  1150.83  1157.29  1178.71  1178.82
eigval :     1184.71  1186.87  1194.75  1196.71  1208.77  1211.88
eigval :     1233.56  1243.92  1259.80  1269.60  1273.98  1278.44
eigval :     1281.28  1310.40  1315.17  1317.10  1321.00  1324.42
eigval :     1325.80  1333.46  1342.52  1345.49  1402.80  1415.42
eigval :     1434.69  1441.09  1469.04  1471.06  1473.67  1474.27
eigval :     1478.55  1484.44  1490.94  1559.42  1568.05  1576.02
eigval :     1578.87  1591.61  1591.73  1596.53  1605.08  2359.09
eigval :     2950.11  2960.71  2973.61  2984.32  2992.14  2995.49
eigval :     3066.91  3070.40  3070.81  3071.05  3071.65  3072.38
eigval :     3076.27  3077.61  3080.18  3081.09  3082.13  3083.24
eigval :     3084.69  3085.62  3088.14  3090.67  3092.84  3093.73

   temp. (K)  partition function   enthalpy   heat capacity  entropy
                                   cal/mol     cal/K/mol   cal/K/mol   J/K/mol
 298.15  VIB  0.107E+13            14531.209     90.954     92.252
         ROT  0.258E+08              888.752      2.981     36.899
         INT  0.277E+20            15419.962     93.935    129.151
         TR   0.741E+28             1481.254      4.968     43.743
         TOT                       16901.2155    98.9031   172.8948   723.3919

       T/K    H(0)-H(T)+PV         H(T)/Eh          T*S/Eh         G(T)/Eh
   ------------------------------------------------------------------------
    298.15    0.269338E-01    0.457711E+00    0.821479E-01    0.375563E+00
   ------------------------------------------------------------------------

         :::::::::::::::::::::::::::::::::::::::::::::::::::::
         ::                  THERMODYNAMIC                  ::
         :::::::::::::::::::::::::::::::::::::::::::::::::::::
         :: total free energy         -77.661873142496 Eh   ::
         ::.................................................::
         :: total energy              -78.037436524860 Eh   ::
         :: zero point energy           0.430777485330 Eh   ::
         :: G(RRHO) w/o ZPVE           -0.055214102967 Eh   ::
         :: G(RRHO) contrib.            0.375563382364 Eh   ::
         :::::::::::::::::::::::::::::::::::::::::::::::::::::

           -------------------------------------------------
          | TOTAL ENERGY              -78.037436524860 Eh   |
          | TOTAL ENTHALPY            -77.579725238228 Eh   |
          | TOTAL FREE ENERGY         -77.661873142496 Eh   |
          | GRADIENT NORM               0.000062237088 Eh/α |
          | HOMO-LUMO GAP               2.098611978958 eV   |
           -------------------------------------------------

 * finished run on 2025/09/04 at 14:08:10.008
