   * xtb version 6.7.1 (edcfbbe) compiled by 'albert@albert-system' on 2024-07-22

   ID    Z sym.   atoms
    1    7 N      1, 14
    2    6 C      2-13, 15-30
    3    1 H      31-54

          program call               : xtb data2507/toluene/TPA-L-BN/TPA-L-BN_toluene_S0_finalOpt.xtbopt.xyz --gfn 2 --uhf 2 --gbsa toluene --ohess vtight --parallel 40 --molden --ceasefiles --namespace data2507/toluene/TPA-L-BN/TPA-L-BN_toluene_T1_preOpt
      * Solvation model:               GBSA
        Solvent                        toluene
        Solvent mass                       9.2140E+01 g/mol
          :  Hamiltonian                  GFN2-xTB          :
 * total energy  :   -77.9283535 Eh     change        0.1993925E-09 Eh
 * total energy  :   -77.9327576 Eh     change       -0.4404126E-02 Eh
 * total energy  :   -77.9337599 Eh     change       -0.1002307E-02 Eh
 * total energy  :   -77.9341877 Eh     change       -0.4277921E-03 Eh
 * total energy  :   -77.9347722 Eh     change       -0.5845143E-03 Eh
 * total energy  :   -77.9353175 Eh     change       -0.5452912E-03 Eh
 * total energy  :   -77.9358619 Eh     change       -0.5443765E-03 Eh
 * total energy  :   -77.9362801 Eh     change       -0.4182349E-03 Eh
 * total energy  :   -77.9364685 Eh     change       -0.1883775E-03 Eh
 * total energy  :   -77.9366050 Eh     change       -0.1365142E-03 Eh
 * total energy  :   -77.9370169 Eh     change       -0.3231292E-06 Eh
 * total energy  :   -77.9370172 Eh     change       -0.3376428E-06 Eh
 * total energy  :   -77.9370175 Eh     change       -0.2972380E-06 Eh
 * total energy  :   -77.9370178 Eh     change       -0.2757226E-06 Eh
 * total energy  :   -77.9370181 Eh     change       -0.2583036E-06 Eh
 * total energy  :   -77.9370184 Eh     change       -0.2864929E-06 Eh
 * total energy  :   -77.9370187 Eh     change       -0.3106179E-06 Eh
 * total energy  :   -77.9370189 Eh     change       -0.2020809E-06 Eh
 * total energy  :   -77.9370189 Eh     change       -0.1280313E-08 Eh
   *** GEOMETRY OPTIMIZATION CONVERGED AFTER 44 ITERATIONS ***

 final structure:
================
54
 xtb: 6.7.1 (edcfbbe)
N           -0.74498295142945        1.62586561125670       -3.13757964275666
C            0.25781121028321        1.34420613366215       -2.61827447006136
C            1.44262744972886        0.99267288242891       -2.00144829399600
C            2.09673680015022       -0.22658746137947       -2.34385203894097
C            3.25837563140720       -0.58106141475202       -1.72713781599638
C            3.81788333704223        0.20661168386583       -0.69394547928866
C            5.13054155575017       -0.15354526834247       -0.07312520936430
C            4.98313393025737       -0.41997808245016        1.42815708498575
C            3.88854123472721       -1.46646192362794        1.64628240471763
C            2.54988308357329       -1.00749336410050        1.16422591376466
C            1.75624943808992       -1.81601903525319        0.31152608058400
C            0.45338593436112       -1.51425222973790        0.04571298679437
C           -0.17904650146938       -0.40428496758660        0.66179516396880
N           -1.52425846743437       -0.17338131730024        0.48791286351166
C           -2.38362964859628       -1.22800927254066        0.14276388223565
C           -3.37929365564116       -1.02953311385612       -0.81747730141608
C           -4.22899548598593       -2.06411107741212       -1.15372604081924
C           -4.10409496086717       -3.30347388516561       -0.54114339281744
C           -3.11962368564325       -3.50236045741746        0.41631848880524
C           -2.26276857359116       -2.47612349598989        0.76044642610188
C           -2.09063232555604        1.08757763758935        0.69220071535173
C           -3.35427695102004        1.19541623271275        1.28409915321287
C           -3.91454827292154        2.43759708834217        1.49885522325018
C           -3.23224116751338        3.58951120572712        1.13251228566394
C           -1.98048338122433        3.48740188196435        0.54264541872003
C           -1.40901591049816        2.25062685322489        0.32464161998296
C            0.59611572817622        0.38960369984560        1.54831973759515
C            1.90214575514660        0.08903645845832        1.79098760477081
C            3.22642098945909        1.47024286484669       -0.43910605136822
C            2.07753825906068        1.85394926894933       -1.05843728662749
H            1.66012873137062       -0.84646035792771       -3.11514907328790
H            3.75781273245721       -1.49657230051389       -2.01396594796583
H            5.84681013151862        0.66203132963308       -0.21644158564990
H            5.53241800421648       -1.04511758985407       -0.55937064515526
H            5.92919121174868       -0.77504004036373        1.84162649366902
H            4.71654484295247        0.50560619575874        1.93923398083025
H            3.82171976445558       -1.67898392370682        2.71884669349657
H            4.16580943777310       -2.39066906283194        1.13581933923377
H            2.20424284713793       -2.68246232094484       -0.15129955616229
H           -0.11102765886136       -2.11722946832138       -0.64957552250487
H           -3.46146131868663       -0.06889877496693       -1.30361491856485
H           -4.98973903497883       -1.90497894617146       -1.90311712464748
H           -4.77136092091277       -4.10870942645839       -0.80760997757707
H           -3.02520516844340       -4.46103532297693        0.90402737630834
H           -1.50874510408088       -2.62007274569287        1.52010928940852
H           -3.87957705369292        0.30088365428493        1.58393881915909
H           -4.88757444828492        2.51036485448158        1.96109893393627
H           -3.67431262469456        4.55939750897869        1.30124957008123
H           -1.45041806259329        4.37808426700903        0.23947504977521
H           -0.45482402920245        2.16372302941603       -0.16833131208510
H            0.11946591499691        1.20154607180487        2.07645882940743
H            2.45430284611057        0.68073417835518        2.50570465226746
H            3.70458784393162        2.13829791762377        0.26362624846504
H            1.64229926061116        2.82551295134503       -0.86441777280654

          :  Hamiltonian                  GFN2-xTB          :
         :: gradient norm              0.000029192357 Eh/a0 ::
         :: HOMO-LUMO gap              0.436991288774 eV    ::
         :: SCC energy               -79.389241988776 Eh    ::
         :: -> dispersion             -0.076713910576 Eh    ::
         :: -> Gsolv                  -0.037241591751 Eh    ::
         :: repulsion energy           1.452223122961 Eh    ::

    * Orbital Energies and Occupations

         #    Occupation            Energy/Eh            Energy/eV
      -------------------------------------------------------------
         1        2.0000           -0.6832060             -18.5910
       ...           ...                  ...                  ...
        62        2.0000           -0.4250753             -11.5669
        63        2.0000           -0.4245670             -11.5531
        64        2.0000           -0.4199904             -11.4285
        65        2.0000           -0.4186520             -11.3921
        66        2.0000           -0.4157625             -11.3135
        67        2.0000           -0.4144568             -11.2779
        68        2.0000           -0.4098075             -11.1514
        69        2.0000           -0.4070379             -11.0761
        70        2.0000           -0.3940498             -10.7226
        71        2.0000           -0.3916192             -10.6565
        72        2.0000           -0.3768685             -10.2551
        73        1.0000           -0.3535604              -9.6209
        74        0.9998           -0.2590699              -7.0497 (HOMO)
        75        0.0002           -0.2430108              -6.6127 (LUMO)
        76        0.0000           -0.2369045              -6.4465
        77                         -0.2355627              -6.4100
        78                         -0.2313769              -6.2961
        79                         -0.2292253              -6.2375
        80                         -0.2061855              -5.6106
        81                         -0.2034413              -5.5359
        82                         -0.1811676              -4.9298
        83                         -0.1486994              -4.0463
        84                         -0.1104131              -3.0045
        85                         -0.1083554              -2.9485
       ...                                ...                  ...
       144                          1.1637634              31.6676
      -------------------------------------------------------------
                  HL-Gap            0.0160591 Eh            0.4370 eV

     #   Z          covCN         q      C6AA      α(0)
     1   7 N        0.911    -0.381    29.845     7.901
     2   6 C        1.910     0.092    28.811     8.669
     3   6 C        2.966    -0.024    28.593     8.771
     4   6 C        2.917    -0.039    28.981     8.828
     5   6 C        2.913    -0.038    28.953     8.823
     6   6 C        2.967    -0.007    28.186     8.708
     7   6 C        3.809    -0.057    21.598     6.616
     8   6 C        3.805    -0.050    21.467     6.596
     9   6 C        3.809    -0.059    21.635     6.621
    10   6 C        2.963     0.020    27.569     8.612
    11   6 C        2.914    -0.035    28.867     8.810
    12   6 C        2.912    -0.040    28.989     8.829
    13   6 C        2.921     0.050    26.883     8.503
    14   7 N        2.751    -0.012    21.494     6.886
    15   6 C        2.932     0.060    26.648     8.466
    16   6 C        2.920    -0.036    28.900     8.816
    17   6 C        2.918    -0.025    28.630     8.774
    18   6 C        2.919    -0.030    28.744     8.792
    19   6 C        2.918    -0.026    28.660     8.779
    20   6 C        2.920    -0.039    28.965     8.826
    21   6 C        2.929     0.062    26.603     8.459
    22   6 C        2.921    -0.041    29.007     8.832
    23   6 C        2.918    -0.026    28.654     8.778
    24   6 C        2.919    -0.030    28.737     8.791
    25   6 C        2.918    -0.024    28.609     8.771
    26   6 C        2.920    -0.035    28.876     8.812
    27   6 C        2.911    -0.044    29.091     8.844
    28   6 C        2.915    -0.033    28.830     8.805
    29   6 C        2.914    -0.039    28.964     8.825
    30   6 C        2.915    -0.040    28.986     8.829
    31   1 H        0.925     0.007     2.943     2.683
    32   1 H        0.925     0.020     2.728     2.583
    33   1 H        0.924     0.040     2.454     2.450
    34   1 H        0.924     0.036     2.504     2.475
    35   1 H        0.924     0.037     2.483     2.464
    36   1 H        0.924     0.040     2.445     2.445
    37   1 H        0.924     0.056     2.243     2.342
    38   1 H        0.924     0.047     2.357     2.401
    39   1 H        0.926     0.040     2.447     2.446
    40   1 H        0.926     0.036     2.496     2.471
    41   1 H        0.926     0.043     2.404     2.425
    42   1 H        0.926     0.046     2.368     2.407
    43   1 H        0.926     0.046     2.367     2.406
    44   1 H        0.926     0.048     2.344     2.394
    45   1 H        0.926     0.047     2.361     2.403
    46   1 H        0.926     0.045     2.381     2.413
    47   1 H        0.926     0.048     2.345     2.395
    48   1 H        0.926     0.045     2.378     2.411
    49   1 H        0.926     0.041     2.437     2.441
    50   1 H        0.926     0.043     2.412     2.428
    51   1 H        0.926     0.040     2.443     2.444
    52   1 H        0.926     0.044     2.397     2.421
    53   1 H        0.926     0.022     2.701     2.570
    54   1 H        0.925     0.007     2.935     2.679

molecular dipole:
                 x           y           z       tot (Debye)
 q only:       -0.404      -1.431       2.822
   full:        0.003      -1.459       2.849       8.137

 projected vibrational frequencies (cm⁻¹)
eigval :       -0.00    -0.00    -0.00     0.00     0.00     0.00
eigval :       15.18    31.91    42.19    45.84    59.32    64.97
eigval :       71.60    83.00    89.06   110.17   119.42   135.67
eigval :      141.69   160.52   193.59   205.98   236.52   239.77
eigval :      263.40   277.87   303.66   317.85   336.36   351.02
eigval :      367.46   373.73   378.70   379.49   391.93   395.43
eigval :      414.55   435.89   450.68   474.53   513.40   520.39
eigval :      535.51   555.51   577.37   586.35   589.62   601.32
eigval :      604.94   606.11   634.22   655.61   659.06   680.06
eigval :      694.72   751.81   756.15   765.89   782.06   795.07
eigval :      799.09   819.09   826.99   862.55   869.65   878.54
eigval :      888.18   893.05   894.33   899.19   899.93   902.58
eigval :      904.86   908.67   912.57   923.08   925.50   926.87
eigval :      928.16   957.97   972.33   974.02   988.01   994.64
eigval :     1026.69  1063.13  1075.53  1077.44  1102.26  1119.95
eigval :     1121.49  1138.68  1146.66  1155.70  1168.89  1175.59
eigval :     1176.52  1181.31  1184.27  1190.47  1199.15  1206.46
eigval :     1220.38  1230.23  1238.74  1255.93  1268.92  1274.88
eigval :     1278.50  1283.11  1307.33  1312.78  1320.46  1325.98
eigval :     1327.04  1328.72  1337.16  1348.86  1357.57  1387.18
eigval :     1427.02  1427.51  1432.83  1438.15  1444.37  1452.00
eigval :     1457.58  1467.64  1471.50  1473.47  1481.90  1512.62
eigval :     1539.54  1546.97  1553.24  1569.41  1613.52  2215.11
eigval :     2925.26  2930.78  2969.32  2977.09  2984.83  2997.92
eigval :     3049.77  3051.89  3064.69  3068.66  3078.30  3080.48
eigval :     3080.78  3081.43  3082.60  3083.36  3089.89  3090.88
eigval :     3091.73  3093.78  3095.40  3099.05  3101.73  3126.73

   temp. (K)  partition function   enthalpy   heat capacity  entropy
                                   cal/mol     cal/K/mol   cal/K/mol   J/K/mol
 298.15  VIB  0.274E+11            14596.438     94.366     90.052
         ROT  0.145E+08              888.752      2.981     35.753
         INT  0.398E+18            15485.191     97.347    125.805
         TR   0.741E+28             1481.254      4.968     43.743
         TOT                       16966.4446   102.3153   169.5488   709.3920

       T/K    H(0)-H(T)+PV         H(T)/Eh          T*S/Eh         G(T)/Eh
   ------------------------------------------------------------------------
    298.15    0.270378E-01    0.453758E+00    0.805581E-01    0.373200E+00
   ------------------------------------------------------------------------

         :::::::::::::::::::::::::::::::::::::::::::::::::::::
         ::                  THERMODYNAMIC                  ::
         :::::::::::::::::::::::::::::::::::::::::::::::::::::
         :: total free energy         -77.563818566990 Eh   ::
         ::.................................................::
         :: total energy              -77.937018867376 Eh   ::
         :: zero point energy           0.426720632330 Eh   ::
         :: G(RRHO) w/o ZPVE           -0.053520331944 Eh   ::
         :: G(RRHO) contrib.            0.373200300386 Eh   ::
         :::::::::::::::::::::::::::::::::::::::::::::::::::::

           -------------------------------------------------
          | TOTAL ENERGY              -77.937018867376 Eh   |
          | TOTAL ENTHALPY            -77.483260484490 Eh   |
          | TOTAL FREE ENERGY         -77.563818566990 Eh   |
          | GRADIENT NORM               0.000029177643 Eh/α |
          | HOMO-LUMO GAP               0.436990877522 eV   |
           -------------------------------------------------

 * finished run on 2025/09/04 at 14:11:57.554
