   * xtb version 6.7.1 (edcfbbe) compiled by 'albert@albert-system' on 2024-07-22

   ID    Z sym.   atoms
    1    6 C      1-4, 6-14, 16-29, 31-34, 36-62, 64-77, 79-82, 84-103
    2    7 N      5, 15, 30, 35, 63, 78, 83
    3    1 H      104-168

          program call               : xtb data2507/toluene/TPA–2PPITPA/TPA–2PPITPA_toluene_S0_crest.xyz --gfn 2 --gbsa toluene --ohess vtight --parallel 40 --molden --ceasefiles --namespace data2507/toluene/TPA–2PPITPA/TPA–2PPITPA_toluene_S0_finalOpt
      * Solvation model:               GBSA
        Solvent                        toluene
        Solvent mass                       9.2140E+01 g/mol
          :  Hamiltonian                  GFN2-xTB          :
 * total energy  :  -259.4226076 Eh     change       -0.6196103E-08 Eh
 * total energy  :  -259.4227569 Eh     change       -0.1493471E-03 Eh
 * total energy  :  -259.4229239 Eh     change       -0.1669812E-03 Eh
 * total energy  :  -259.4229889 Eh     change       -0.6506148E-04 Eh
 * total energy  :  -259.4230708 Eh     change       -0.8188631E-04 Eh
 * total energy  :  -259.4231244 Eh     change       -0.5357755E-04 Eh
 * total energy  :  -259.4231793 Eh     change       -0.5489365E-04 Eh
 * total energy  :  -259.4232090 Eh     change       -0.2964964E-04 Eh
 * total energy  :  -259.4232669 Eh     change       -0.5791975E-04 Eh
 * total energy  :  -259.4233137 Eh     change       -0.4680724E-04 Eh
 * total energy  :  -259.4263006 Eh     change       -0.3778728E-06 Eh
 * total energy  :  -259.4263010 Eh     change       -0.3525182E-06 Eh
 * total energy  :  -259.4263012 Eh     change       -0.2103092E-06 Eh
 * total energy  :  -259.4263013 Eh     change       -0.1615509E-06 Eh
 * total energy  :  -259.4263015 Eh     change       -0.1406543E-06 Eh
 * total energy  :  -259.4263017 Eh     change       -0.2299354E-06 Eh
 * total energy  :  -259.4263021 Eh     change       -0.4202731E-06 Eh
 * total energy  :  -259.4263026 Eh     change       -0.4680650E-06 Eh
 * total energy  :  -259.4263026 Eh     change       -0.5314689E-08 Eh
   *** GEOMETRY OPTIMIZATION CONVERGED AFTER 300 ITERATIONS ***

 final structure:
================
168
 xtb: 6.7.1 (edcfbbe)
C            0.39489926951882        8.12831701887942       -3.46188919917700
C           -0.72250632578738        7.41535108768890       -3.86607364972715
C           -0.93933597978699        6.13184299236728       -3.40278855481287
C           -0.03910835839200        5.54381950346588       -2.51436730870470
N           -0.25958474026529        4.24410445123981       -2.03940841148961
C            0.81492205609295        3.36982771757359       -1.85457186829956
C            0.81424535759109        2.45821436731349       -0.79669922482095
C            1.86446407973796        1.58194196761933       -0.62664236490061
C            2.96172541973131        1.59754994432594       -1.48742836690122
C            4.08332536663971        0.67307343019607       -1.28290745850731
C            3.85930249789881       -0.66029108589424       -0.93982732162394
C            4.91452594562280       -1.51809342400831       -0.70773785678610
C            6.22888583494691       -1.06141654330149       -0.79148589425821
C            7.32262342075256       -1.97184838292181       -0.48000500731205
N            7.39408904803990       -3.21405401066809       -0.88853859204815
C            8.56262362577458       -3.70164907100920       -0.38685234790589
C            9.12132587293528       -4.99628725409052       -0.57734573032878
C            8.47900768350410       -5.95587023620149       -1.36821907057780
C            9.04758428837459       -7.18982110454836       -1.56332637362931
C           10.27410712829444       -7.47930310618734       -0.96767932067664
C           10.91233967332909       -6.54614756078733       -0.18422202232995
C           10.36044784853848       -5.27579836776341        0.04499873593563
C           10.99792016220388       -4.27951032630609        0.88927221837750
C           12.19193168719543       -4.54865121453982        1.57462174342617
C           12.78147897265041       -3.62449673708635        2.40475865181236
C           12.18817009041918       -2.38072360597451        2.59944054809475
C           11.02259026404595       -2.07438583349511        1.94138503379332
C           10.41786320941827       -2.99392863085633        1.07198075623441
C            9.21118784677416       -2.72481050964184        0.36696929637101
N            8.40634717133523       -1.61132308148868        0.28906161393729
C            8.55114658962305       -0.33354250716337        0.86889474627535
C            9.59421174713799        0.50954263124262        0.49564940488933
C            9.65213361104414        1.79727807944110        0.98609130951735
C            8.66294037106451        2.27373641458564        1.85109710478697
N            8.67771498017764        3.59351128316028        2.29639244916869
C            7.46757486828841        4.28898319880707        2.44309245646766
C            7.29372155466133        5.19528047164739        3.48804676484032
C            6.10030913244073        5.87943424180105        3.62289597982955
C            5.06262606879935        5.66591339242716        2.72983776477897
C            5.22937484291827        4.76353355471399        1.69147815551216
C            6.42280413319402        4.08381958811075        1.54183226331777
C            9.89460122386924        4.23656240804132        2.56498488160845
C           10.93786743255732        3.54058879900546        3.17508637058477
C           12.13623138823473        4.17513358874877        3.44072709151051
C           12.31085951384207        5.51007483336052        3.11290803067978
C           11.27571231450579        6.20683118111828        2.51045948475993
C           10.07687686490083        5.57823894962270        2.23228641444837
C            7.64019024691820        1.40796399161072        2.24692007410374
C            7.58318549276223        0.12068286071818        1.75864885105134
C            6.45848924463061        0.25931231326096       -1.17389614539046
C            5.40014577458771        1.10943592079840       -1.41909158040843
C            2.96566715096894        2.52080842863617       -2.53240769484296
C            1.90822919950033        3.38569826316507       -2.72234802588671
C           -1.55922303601332        3.81941484749235       -1.74418657943384
C           -2.48388867405168        4.69123374498139       -1.16782626619374
C           -3.75485046392781        4.25666075393653       -0.85436233291965
C           -4.14909589947302        2.94208286039640       -1.10246800865721
C           -5.48472909220056        2.45838377453082       -0.73301858509164
C           -6.10583581876532        2.88629843510360        0.44100301561265
C           -7.33332412561150        2.38213031209923        0.81752566607696
C           -7.97508843307589        1.42257870782905        0.03599378081064
C           -9.24101305215515        0.86483480626679        0.48885225950859
N          -10.21223288382177        1.56654370902453        1.01849573078994
C          -11.20052757809489        0.67423327573535        1.30241520766569
C          -12.47842781530773        0.93933937649206        1.86928001023855
C          -12.87280080635608        2.24204268826830        2.19538797630655
C          -14.11689870553912        2.47982744409935        2.72427169390809
C          -14.98806861889376        1.41145207804048        2.93046349652850
C          -14.61012535738710        0.12651754264184        2.61736322794648
C          -13.34387134149388       -0.15887084406806        2.08248636099535
C          -12.90657591214618       -1.50847590807683        1.76794662863440
C          -13.71779013805796       -2.62406627331625        2.02330798190746
C          -13.30015116204514       -3.90703096026512        1.75826421959414
C          -12.03190854086299       -4.13410838947431        1.23228788638910
C          -11.20793209401286       -3.06909153749845        0.96362240294815
C          -11.62267217133886       -1.75142531781561        1.20624663474379
C          -10.80620680913194       -0.61475196369561        0.94677184400259
N           -9.54559099075758       -0.47499123812542        0.41180182002707
C           -8.65009942964811       -1.45771324820691       -0.06391987848862
C           -7.45461528410226       -1.67634820771299        0.61184899603289
C           -6.54098360488175       -2.58956734965269        0.13007973651072
C           -6.79596499751110       -3.29827681521967       -1.04712329882918
N           -5.86449697401211       -4.20324250554042       -1.54638857271989
C           -4.48981934082515       -3.97034126494437       -1.38335356104845
C           -3.62185268598839       -5.03059985352150       -1.12554597561679
C           -2.26713472166651       -4.80083415742404       -0.97730829183281
C           -1.75883788980949       -3.51546053309786       -1.07142854969117
C           -2.61762041730839       -2.45792320569017       -1.32425512482957
C           -3.97188264639517       -2.67955641872119       -1.48613447792163
C           -6.29245724196490       -5.35965494001217       -2.21839759232106
C           -7.40053178065868       -6.07298513347285       -1.76298213419985
C           -7.81684900059548       -7.21049744736276       -2.42805450133557
C           -7.13252929802007       -7.65922592534665       -3.54621419035197
C           -6.02644054815934       -6.95764376454713       -3.99817441660655
C           -5.60848552587730       -5.81362952732966       -3.34516015869299
C           -8.00346744670575       -3.07542127077515       -1.71690877466426
C           -8.91935196164363       -2.16588564051357       -1.23198223948313
C           -7.38263136313589        1.02701831691275       -1.16193519381639
C           -6.15831079096501        1.53906483360019       -1.53735043313422
C           -3.22498368222621        2.08124365053094       -1.69560945983563
C           -1.95417354847657        2.50834143285086       -2.01431673152508
C            1.08080957491084        6.26794734833252       -2.10608603132312
C            1.29427190853798        7.54733416694512       -2.58229588664458
H            0.56309504009041        9.12947087052639       -3.82948387347513
H           -1.42727710510124        7.85805812200577       -4.55497697013436
H           -1.80608763321186        5.57451653259902       -3.72732579358158
H           -0.01686679238068        2.44522480465146       -0.10677129857065
H            1.85172241456579        0.89459040364193        0.20647219217256
H            2.84630376467006       -1.02785935033075       -0.86721343141701
H            4.73879946039929       -2.55067319472295       -0.44521025106679
H            7.53487314323743       -5.68831789949621       -1.81804499869548
H            8.55455309970121       -7.93112790141258       -2.17510550817991
H           10.72936877505817       -8.44701501845684       -1.12283507002944
H           11.86085742098250       -6.81419177074882        0.25339461381279
H           12.66955399931082       -5.50853934200025        1.46244122039330
H           13.70120145864898       -3.86944220906539        2.91571744086114
H           12.63978716205792       -1.66104781673779        3.26636792903514
H           10.55498371699317       -1.11614873178330        2.10333096835121
H           10.34505198350579        0.15634519252612       -0.19655002663247
H           10.45295587219243        2.45275277656317        0.67884737682621
H            8.09698171668247        5.35610233782278        4.19218975781059
H            5.97756516710360        6.57795073020936        4.43780168043751
H            4.13032773323477        6.19849746897579        2.84267585535687
H            4.42804756704562        4.59069778546414        0.98775710247245
H            6.55199151413475        3.38653468397030        0.72733627063650
H           10.79971414242972        2.50314402569749        3.44328676628002
H           12.93571965172478        3.62528917390500        3.91570244095114
H           13.24686079239251        6.00400780855404        3.32607026690278
H           11.40471775340709        7.24646127773258        2.24683847267318
H            9.27454198874312        6.12140631143458        1.75481521366154
H            6.88349814642010        1.75628341184252        2.93317318273606
H            6.78432189912188       -0.54092392383541        2.05892351356871
H            7.46955412503702        0.62026955684787       -1.29092855446968
H            5.59530834287413        2.13422717776783       -1.69957919600535
H            3.79375207166779        2.53748654952025       -3.22580910814944
H            1.91854983128591        4.07828161560765       -3.55128521259807
H           -2.19514060264258        5.71148658130460       -0.96099189192185
H           -4.45702372880208        4.95178538388742       -0.41847760764306
H           -5.60708945822117        3.59982036213094        1.07999224997071
H           -7.80587212927281        2.70787759660312        1.73210651637050
H          -12.17108640947818        3.04194403181563        2.01310707303251
H          -14.42346541529254        3.48455691113832        2.97620037941670
H          -15.97108795082474        1.59361469453609        3.34069872029774
H          -15.31885962372639       -0.66748389963289        2.79143292244417
H          -14.69953575041460       -2.48669916523943        2.44676653232984
H          -13.95471199231602       -4.74025518093749        1.96849653667917
H          -11.69545089314024       -5.14224425326404        1.03932476128574
H          -10.22000611402819       -3.24586338742899        0.56973474669945
H           -7.24969351336037       -1.12939297008722        1.52031511916829
H           -5.62009792218421       -2.76019007317896        0.66647333168285
H           -4.01624738299884       -6.03272862592479       -1.04199518439468
H           -1.60570380404470       -5.63103543902415       -0.77691108686705
H           -0.70069694925882       -3.33935414565021       -0.95028318744753
H           -2.22748948311223       -1.45389848428093       -1.40285510773768
H           -4.63898516558057       -1.85599877289261       -1.69371981324517
H           -7.92820140388958       -5.73222541560224       -0.88403582033729
H           -8.67603814376504       -7.75513903536203       -2.06457968896484
H           -7.45827068243689       -8.55060094573528       -4.06078711886539
H           -5.48877944583496       -7.29867655753023       -4.87078810773330
H           -4.75016393497991       -5.26402497888925       -3.70289815862533
H           -8.21320814101505       -3.61122425945184       -2.63027400414014
H           -9.84469029346637       -1.98977185600594       -1.76166150367340
H           -7.88893450852424        0.32768904461771       -1.81059424588317
H           -5.72420755242035        1.23351923179533       -2.47794437007772
H           -3.50275800349611        1.05718926921857       -1.89478383116987
H           -1.25245995229472        1.82742639637842       -2.47373755300976
H            1.77856569167227        5.82187841436039       -1.41254108874673
H            2.16518088785028        8.09777943892653       -2.25693041061964

          :  Hamiltonian                  GFN2-xTB          :
         :: gradient norm              0.000056047855 Eh/a0 ::
         :: HOMO-LUMO gap              2.308820254195 eV    ::
         :: SCC energy              -264.303972047378 Eh    ::
         :: -> dispersion             -0.252763387612 Eh    ::
         :: -> Gsolv                  -0.107740107503 Eh    ::
         :: repulsion energy           4.877669445996 Eh    ::

    * Orbital Energies and Occupations

         #    Occupation            Energy/Eh            Energy/eV
      -------------------------------------------------------------
         1        2.0000           -0.6874131             -18.7055
       ...           ...                  ...                  ...
       230        2.0000           -0.4007782             -10.9057
       231        2.0000           -0.4001180             -10.8878
       232        2.0000           -0.3964756             -10.7886
       233        2.0000           -0.3911807             -10.6446
       234        2.0000           -0.3831982             -10.4274
       235        2.0000           -0.3827529             -10.4152
       236        2.0000           -0.3799431             -10.3388
       237        2.0000           -0.3793758             -10.3233
       238        2.0000           -0.3656530              -9.9499
       239        2.0000           -0.3643915              -9.9156
       240        2.0000           -0.3551593              -9.6644
       241        2.0000           -0.3550138              -9.6604
       242        2.0000           -0.3488625              -9.4930 (HOMO)
       243                         -0.2640149              -7.1842 (LUMO)
       244                         -0.2611437              -7.1061
       245                         -0.2516372              -6.8474
       246                         -0.2508289              -6.8254
       247                         -0.2484817              -6.7615
       248                         -0.2464164              -6.7053
       249                         -0.2414020              -6.5689
       250                         -0.2412408              -6.5645
       251                         -0.2397683              -6.5244
       252                         -0.2391301              -6.5071
       253                         -0.2336427              -6.3577
       ...                                ...                  ...
       477                          0.7261831              19.7604
      -------------------------------------------------------------
                  HL-Gap            0.0848476 Eh            2.3088 eV

     #   Z          covCN         q      C6AA      α(0)
     1   6 C        2.919    -0.039    28.960     8.825
     2   6 C        2.919    -0.030    28.745     8.792
     3   6 C        2.922    -0.047    29.179     8.858
     4   6 C        2.923     0.065    26.550     8.450
     5   7 N        2.752    -0.074    22.672     7.072
     6   6 C        2.923     0.064    26.563     8.452
     7   6 C        2.920    -0.049    29.209     8.863
     8   6 C        2.924    -0.034    28.847     8.808
     9   6 C        2.976     0.001    27.993     8.679
    10   6 C        2.976     0.013    27.724     8.637
    11   6 C        2.923    -0.034    28.846     8.808
    12   6 C        2.924    -0.030    28.742     8.792
    13   6 C        2.974    -0.004    28.122     8.699
    14   6 C        3.197     0.138    24.510     8.070
    15   7 N        1.891    -0.321    29.175     8.008
    16   6 C        3.210     0.059    26.064     8.311
    17   6 C        2.985    -0.003    28.100     8.695
    18   6 C        2.921    -0.034    28.841     8.807
    19   6 C        2.917    -0.032    28.801     8.800
    20   6 C        2.917    -0.035    28.864     8.810
    21   6 C        2.921    -0.037    28.912     8.818
    22   6 C        2.978    -0.005    28.151     8.703
    23   6 C        2.979    -0.002    28.071     8.691
    24   6 C        2.922    -0.035    28.878     8.812
    25   6 C        2.916    -0.035    28.860     8.809
    26   6 C        2.917    -0.033    28.816     8.803
    27   6 C        2.919    -0.041    29.027     8.835
    28   6 C        2.978    -0.005    28.150     8.703
    29   6 C        3.073     0.022    27.450     8.590
    30   7 N        2.841    -0.054    22.273     7.009
    31   6 C        2.913     0.055    26.761     8.483
    32   6 C        2.919    -0.038    28.944     8.822
    33   6 C        2.922    -0.047    29.176     8.858
    34   6 C        2.924     0.068    26.489     8.440
    35   7 N        2.752    -0.073    22.653     7.069
    36   6 C        2.924     0.063    26.578     8.454
    37   6 C        2.922    -0.047    29.164     8.856
    38   6 C        2.919    -0.029    28.733     8.790
    39   6 C        2.919    -0.038    28.935     8.821
    40   6 C        2.919    -0.029    28.713     8.787
    41   6 C        2.922    -0.048    29.184     8.859
    42   6 C        2.923     0.064    26.574     8.454
    43   6 C        2.922    -0.048    29.185     8.859
    44   6 C        2.919    -0.029    28.735     8.791
    45   6 C        2.919    -0.038    28.942     8.822
    46   6 C        2.919    -0.029    28.731     8.790
    47   6 C        2.922    -0.047    29.164     8.856
    48   6 C        2.923    -0.046    29.141     8.853
    49   6 C        2.921    -0.039    28.966     8.826
    50   6 C        2.921    -0.035    28.880     8.813
    51   6 C        2.924    -0.035    28.872     8.812
    52   6 C        2.923    -0.034    28.844     8.807
    53   6 C        2.920    -0.049    29.205     8.862
    54   6 C        2.924     0.064    26.565     8.452
    55   6 C        2.920    -0.048    29.192     8.860
    56   6 C        2.924    -0.034    28.845     8.807
    57   6 C        2.975     0.002    27.987     8.678
    58   6 C        2.975     0.012    27.731     8.638
    59   6 C        2.923    -0.034    28.850     8.808
    60   6 C        2.924    -0.030    28.743     8.792
    61   6 C        2.974    -0.004    28.123     8.699
    62   6 C        3.197     0.138    24.507     8.069
    63   7 N        1.892    -0.322    29.194     8.010
    64   6 C        3.209     0.059    26.062     8.311
    65   6 C        2.985    -0.003    28.101     8.696
    66   6 C        2.921    -0.034    28.841     8.807
    67   6 C        2.917    -0.032    28.801     8.800
    68   6 C        2.917    -0.035    28.865     8.810
    69   6 C        2.921    -0.037    28.914     8.818
    70   6 C        2.978    -0.005    28.152     8.703
    71   6 C        2.979    -0.002    28.073     8.691
    72   6 C        2.922    -0.035    28.879     8.813
    73   6 C        2.916    -0.035    28.862     8.810
    74   6 C        2.917    -0.033    28.816     8.803
    75   6 C        2.919    -0.042    29.032     8.836
    76   6 C        2.978    -0.005    28.151     8.703
    77   6 C        3.074     0.022    27.445     8.589
    78   7 N        2.840    -0.054    22.288     7.012
    79   6 C        2.912     0.055    26.771     8.484
    80   6 C        2.921    -0.039    28.962     8.825
    81   6 C        2.922    -0.047    29.168     8.857
    82   6 C        2.922     0.068    26.486     8.440
    83   7 N        2.752    -0.072    22.644     7.067
    84   6 C        2.923     0.063    26.584     8.455
    85   6 C        2.922    -0.047    29.158     8.855
    86   6 C        2.919    -0.029    28.728     8.789
    87   6 C        2.919    -0.037    28.930     8.820
    88   6 C        2.919    -0.029    28.725     8.789
    89   6 C        2.922    -0.047    29.173     8.857
    90   6 C        2.924     0.064    26.576     8.454
    91   6 C        2.922    -0.047    29.168     8.857
    92   6 C        2.919    -0.029    28.732     8.790
    93   6 C        2.919    -0.037    28.927     8.820
    94   6 C        2.919    -0.029    28.726     8.789
    95   6 C        2.922    -0.046    29.146     8.853
    96   6 C        2.922    -0.048    29.196     8.861
    97   6 C        2.919    -0.038    28.934     8.821
    98   6 C        2.921    -0.036    28.891     8.814
    99   6 C        2.924    -0.036    28.885     8.814
   100   6 C        2.925    -0.034    28.850     8.808
   101   6 C        2.920    -0.048    29.197     8.861
   102   6 C        2.922    -0.047    29.177     8.858
   103   6 C        2.919    -0.030    28.748     8.793
   104   1 H        0.926     0.032     2.557     2.501
   105   1 H        0.926     0.033     2.537     2.491
   106   1 H        0.926     0.032     2.553     2.499
   107   1 H        0.926     0.035     2.521     2.483
   108   1 H        0.926     0.037     2.488     2.466
   109   1 H        0.926     0.042     2.428     2.437
   110   1 H        0.926     0.040     2.443     2.444
   111   1 H        0.926     0.043     2.412     2.429
   112   1 H        0.926     0.032     2.558     2.501
   113   1 H        0.926     0.031     2.566     2.505
   114   1 H        0.926     0.034     2.529     2.487
   115   1 H        0.926     0.036     2.499     2.472
   116   1 H        0.926     0.032     2.556     2.500
   117   1 H        0.926     0.031     2.569     2.506
   118   1 H        0.926     0.029     2.598     2.521
   119   1 H        0.926     0.043     2.408     2.427
   120   1 H        0.926     0.046     2.377     2.411
   121   1 H        0.926     0.034     2.528     2.486
   122   1 H        0.926     0.036     2.507     2.476
   123   1 H        0.926     0.034     2.526     2.485
   124   1 H        0.926     0.034     2.530     2.487
   125   1 H        0.926     0.032     2.559     2.501
   126   1 H        0.926     0.032     2.564     2.504
   127   1 H        0.926     0.035     2.518     2.481
   128   1 H        0.926     0.034     2.533     2.489
   129   1 H        0.926     0.036     2.509     2.477
   130   1 H        0.926     0.034     2.525     2.485
   131   1 H        0.926     0.045     2.384     2.414
   132   1 H        0.926     0.038     2.476     2.461
   133   1 H        0.926     0.026     2.640     2.541
   134   1 H        0.926     0.038     2.475     2.460
   135   1 H        0.926     0.036     2.503     2.474
   136   1 H        0.926     0.034     2.532     2.488
   137   1 H        0.926     0.034     2.528     2.486
   138   1 H        0.926     0.037     2.482     2.464
   139   1 H        0.926     0.042     2.426     2.436
   140   1 H        0.926     0.040     2.443     2.444
   141   1 H        0.926     0.043     2.414     2.430
   142   1 H        0.926     0.032     2.560     2.502
   143   1 H        0.926     0.031     2.566     2.505
   144   1 H        0.926     0.034     2.529     2.487
   145   1 H        0.926     0.036     2.500     2.472
   146   1 H        0.926     0.032     2.557     2.500
   147   1 H        0.926     0.031     2.571     2.507
   148   1 H        0.926     0.029     2.601     2.522
   149   1 H        0.926     0.037     2.484     2.465
   150   1 H        0.926     0.045     2.384     2.415
   151   1 H        0.926     0.033     2.537     2.491
   152   1 H        0.926     0.036     2.509     2.477
   153   1 H        0.926     0.034     2.524     2.484
   154   1 H        0.926     0.037     2.495     2.470
   155   1 H        0.926     0.032     2.561     2.502
   156   1 H        0.926     0.032     2.557     2.501
   157   1 H        0.926     0.035     2.511     2.478
   158   1 H        0.926     0.034     2.524     2.485
   159   1 H        0.926     0.036     2.501     2.473
   160   1 H        0.926     0.035     2.519     2.482
   161   1 H        0.926     0.045     2.381     2.413
   162   1 H        0.926     0.042     2.419     2.432
   163   1 H        0.926     0.027     2.625     2.534
   164   1 H        0.926     0.039     2.465     2.455
   165   1 H        0.926     0.037     2.484     2.465
   166   1 H        0.926     0.035     2.519     2.482
   167   1 H        0.926     0.033     2.547     2.495
   168   1 H        0.926     0.034     2.529     2.487

molecular dipole:
                 x           y           z       tot (Debye)
 q only:        1.301       0.855      -0.156
   full:        1.521       0.643       0.001       4.198

 projected vibrational frequencies (cm⁻¹)
eigval :       -0.00     0.00     0.00     0.00     0.00     0.00
eigval :       -2.45     1.92     3.48     6.79     9.25     9.86
eigval :       11.38    15.88    16.33    17.34    20.15    20.48
eigval :       24.76    27.89    36.59    39.27    41.11    46.06
eigval :       47.64    49.91    53.29    55.03    57.00    60.32
eigval :       62.97    65.14    66.44    69.80    71.87    76.27
eigval :       78.82    79.69    81.43    83.44    87.36    89.18
eigval :       92.70   100.89   107.98   111.34   112.69   124.00
eigval :      133.76   136.52   149.88   153.21   155.00   161.61
eigval :      171.45   175.64   180.88   183.06   206.96   213.19
eigval :      216.47   218.88   227.72   230.01   233.35   234.03
eigval :      243.97   248.02   258.26   262.61   267.37   282.94
eigval :      290.47   297.96   305.52   305.89   308.21   311.17
eigval :      318.48   326.98   346.56   346.82   351.16   357.62
eigval :      364.31   366.17   373.01   374.71   375.54   377.10
eigval :      378.24   379.10   380.27   381.94   382.77   385.85
eigval :      390.19   390.85   391.32   395.71   397.74   398.76
eigval :      404.42   408.15   414.82   418.71   427.72   432.44
eigval :      436.52   438.61   448.45   450.31   453.32   454.89
eigval :      470.06   473.63   483.52   491.01   491.70   493.87
eigval :      498.46   501.29   505.48   517.40   520.09   522.16
eigval :      524.17   529.89   533.85   535.38   535.76   547.69
eigval :      548.42   581.42   581.52   584.80   584.89   586.40
eigval :      586.55   588.02   592.11   592.25   593.66   599.29
eigval :      600.94   607.27   611.98   612.92   618.31   621.46
eigval :      626.50   630.19   640.23   642.26   653.71   655.66
eigval :      660.27   660.59   661.73   662.98   663.42   669.65
eigval :      672.12   673.08   674.41   677.12   679.03   681.01
eigval :      682.81   686.61   689.79   692.71   702.85   706.07
eigval :      711.77   717.74   733.76   734.57   736.58   740.40
eigval :      750.90   756.14   757.23   760.52   761.24   762.11
eigval :      764.03   765.47   767.30   781.66   781.73   794.36
eigval :      799.38   804.09   806.47   820.41   821.52   829.55
eigval :      830.49   860.83   862.38   866.23   866.98   867.50
eigval :      869.15   871.37   872.56   873.14   873.28   873.98
eigval :      874.30   874.37   876.49   878.15   892.61   892.94
eigval :      893.30   893.67   894.17   905.89   907.02   908.87
eigval :      909.70   910.81   911.49   911.75   912.40   912.49
eigval :      913.70   913.90   914.98   915.87   918.39   919.65
eigval :      920.14   922.25   922.63   924.29   925.17   925.77
eigval :      925.83   925.89   926.19   926.26   927.49   928.03
eigval :      928.96   929.38   929.77   929.80   930.06   930.64
eigval :      931.27   932.28   934.09   939.87   940.02   960.97
eigval :      964.53   980.93   983.92   990.13  1001.81  1002.78
eigval :     1004.17  1004.33  1012.28  1013.00  1016.92  1020.44
eigval :     1032.57  1033.66  1069.97  1070.18  1079.00  1080.46
eigval :     1081.50  1081.93  1082.35  1083.27  1083.83  1084.42
eigval :     1085.23  1105.95  1106.59  1119.92  1120.39  1121.13
eigval :     1122.00  1123.19  1134.39  1134.72  1135.29  1135.78
eigval :     1136.53  1136.94  1144.81  1147.82  1151.22  1151.64
eigval :     1173.69  1173.93  1179.12  1179.46  1179.52  1179.55
eigval :     1179.88  1180.19  1180.31  1182.45  1182.85  1184.12
eigval :     1184.29  1184.86  1189.13  1189.45  1192.82  1193.47
eigval :     1193.94  1194.89  1200.09  1203.97  1204.21  1204.68
eigval :     1213.81  1215.02  1216.63  1251.63  1252.43  1255.61
eigval :     1256.44  1263.84  1264.08  1267.39  1268.52  1271.37
eigval :     1273.77  1275.58  1276.41  1276.64  1279.52  1280.72
eigval :     1281.53  1281.79  1284.49  1286.58  1300.35  1301.59
eigval :     1304.93  1307.04  1310.02  1312.08  1313.19  1313.80
eigval :     1314.85  1317.55  1318.62  1322.36  1322.63  1322.94
eigval :     1323.73  1324.00  1324.12  1324.60  1327.19  1330.83
eigval :     1334.46  1338.83  1338.89  1347.45  1347.97  1381.77
eigval :     1381.93  1394.44  1396.08  1406.23  1406.43  1411.00
eigval :     1414.09  1414.96  1418.34  1420.19  1420.38  1430.92
eigval :     1430.96  1434.01  1434.59  1436.02  1436.35  1438.32
eigval :     1440.97  1441.82  1461.33  1461.46  1469.11  1470.15
eigval :     1470.79  1471.68  1472.66  1483.02  1483.10  1495.17
eigval :     1495.85  1513.14  1513.37  1516.49  1516.83  1544.26
eigval :     1545.09  1550.02  1553.29  1554.70  1555.46  1559.15
eigval :     1561.08  1564.21  1564.82  1569.43  1569.59  1576.65
eigval :     1576.78  1577.95  1580.54  1580.62  1585.00  1587.34
eigval :     1590.99  1591.46  1591.53  1592.06  1593.41  1593.52
eigval :     1594.78  1598.60  1599.03  1601.49  1603.09  1603.69
eigval :     1604.42  3068.62  3069.32  3071.65  3071.91  3072.17
eigval :     3072.78  3073.11  3073.85  3074.13  3074.46  3074.70
eigval :     3074.94  3075.21  3075.55  3076.17  3076.29  3076.76
eigval :     3077.54  3078.06  3078.95  3079.03  3079.48  3079.52
eigval :     3080.63  3081.28  3082.01  3082.10  3082.48  3083.31
eigval :     3083.39  3084.23  3084.26  3084.61  3085.32  3086.03
eigval :     3086.45  3086.65  3087.06  3087.34  3087.64  3087.77
eigval :     3088.90  3089.15  3090.07  3090.81  3092.18  3092.69
eigval :     3094.38  3094.63  3094.77  3095.65  3095.67  3096.13
eigval :     3096.16  3096.60  3096.73  3096.86  3097.01  3098.10
eigval :     3099.52  3100.43  3108.57  3108.70  3111.38  3115.34

   temp. (K)  partition function   enthalpy   heat capacity  entropy
                                   cal/mol     cal/K/mol   cal/K/mol   J/K/mol
 298.15  VIB  0.357E+45            50087.765    307.785    323.300
         ROT  0.125E+10              888.752      2.981     44.608
         INT  0.446E+54            50976.517    310.766    367.909
         TR   0.462E+29             1481.254      4.968     47.380
         TOT                       52457.7714   315.7342   415.2885  1737.5669

       T/K    H(0)-H(T)+PV         H(T)/Eh          T*S/Eh         G(T)/Eh
   ------------------------------------------------------------------------
    298.15    0.835968E-01    0.138110E+01    0.197317E+00    0.118378E+01
   ------------------------------------------------------------------------

         :::::::::::::::::::::::::::::::::::::::::::::::::::::
         ::                  THERMODYNAMIC                  ::
         :::::::::::::::::::::::::::::::::::::::::::::::::::::
         :: total free energy        -258.242517894473 Eh   ::
         ::.................................................::
         :: total energy             -259.426302606205 Eh   ::
         :: zero point energy           1.297504876178 Eh   ::
         :: G(RRHO) w/o ZPVE           -0.113720164446 Eh   ::
         :: G(RRHO) contrib.            1.183784711732 Eh   ::
         :::::::::::::::::::::::::::::::::::::::::::::::::::::

           -------------------------------------------------
          | TOTAL ENERGY             -259.426302606205 Eh   |
          | TOTAL ENTHALPY           -258.045200950184 Eh   |
          | TOTAL FREE ENERGY        -258.242517894473 Eh   |
          | GRADIENT NORM               0.000056042970 Eh/α |
          | HOMO-LUMO GAP               2.308820176995 eV   |
           -------------------------------------------------

 * finished run on 2025/09/07 at 09:18:50.342
