   * xtb version 6.7.1 (edcfbbe) compiled by 'albert@albert-system' on 2024-07-22

   ID    Z sym.   atoms
    1    6 C      1-4, 6-14, 16-29, 31-34, 36-62, 64-77, 79-82, 84-103
    2    7 N      5, 15, 30, 35, 63, 78, 83
    3    1 H      104-168

          program call               : xtb data2507/toluene/TPA–2PPITPA/TPA–2PPITPA_toluene_T1_crest.xyz --gfn 2 --uhf 2 --gbsa toluene --ohess vtight --parallel 40 --molden --ceasefiles --namespace data2507/toluene/TPA–2PPITPA/TPA–2PPITPA_toluene_T1_finalOpt
      * Solvation model:               GBSA
        Solvent                        toluene
        Solvent mass                       9.2140E+01 g/mol
          :  Hamiltonian                  GFN2-xTB          :
 * total energy  :  -259.3458812 Eh     change       -0.2015128E-07 Eh
 * total energy  :  -259.3460666 Eh     change       -0.1854726E-03 Eh
 * total energy  :  -259.3462666 Eh     change       -0.1999694E-03 Eh
 * total energy  :  -259.3463495 Eh     change       -0.8286010E-04 Eh
 * total energy  :  -259.3464602 Eh     change       -0.1107225E-03 Eh
 * total energy  :  -259.3465298 Eh     change       -0.6959831E-04 Eh
 * total energy  :  -259.3465773 Eh     change       -0.4753652E-04 Eh
 * total energy  :  -259.3466339 Eh     change       -0.5659314E-04 Eh
 * total energy  :  -259.3466702 Eh     change       -0.3624361E-04 Eh
 * total energy  :  -259.3467385 Eh     change       -0.6837769E-04 Eh
 * total energy  :  -259.3485641 Eh     change       -0.5834510E-06 Eh
 * total energy  :  -259.3485645 Eh     change       -0.4213183E-06 Eh
 * total energy  :  -259.3485650 Eh     change       -0.5127139E-06 Eh
 * total energy  :  -259.3485654 Eh     change       -0.3636059E-06 Eh
 * total energy  :  -259.3485658 Eh     change       -0.4052744E-06 Eh
 * total energy  :  -259.3485667 Eh     change       -0.9287585E-06 Eh
 * total energy  :  -259.3485674 Eh     change       -0.6601257E-06 Eh
 * total energy  :  -259.3485681 Eh     change       -0.7527142E-06 Eh
 * total energy  :  -259.3485681 Eh     change       -0.4481535E-08 Eh
   *** GEOMETRY OPTIMIZATION CONVERGED AFTER 185 ITERATIONS ***

 final structure:
================
168
 xtb: 6.7.1 (edcfbbe)
C           -0.25726161549417       10.94277934636171       -1.05796129617809
C           -1.11896747596012       10.12509166682501       -1.77338367106389
C           -1.12635432795648        8.76064808461068       -1.56110820958294
C           -0.26708471326138        8.19447266541943       -0.61663825457853
N           -0.26886160555209        6.81744897424839       -0.39317728360841
C            0.91374695929165        6.14526727314554       -0.07689369338622
C            0.89100341711384        5.10723111833615        0.86280866700645
C            2.01620119482612        4.35734502290552        1.10252727446019
C            3.21327060720099        4.60183834351167        0.41489916817955
C            4.36701652354908        3.72528437284256        0.58548819273916
C            5.68195316094033        4.19123425950054        0.46418757201037
C            6.75052634917925        3.33140760023469        0.56972441659161
C            6.55669587073649        1.96228176870401        0.79273643584962
C            7.72220770695104        1.10745365436628        0.86356472068446
N            8.89651525825721        1.54116083724613        1.26759316626536
C            9.73203267361211        0.47410959039966        1.20923131702292
C           11.10404803979207        0.41972159341805        1.58422245429749
C           11.76245025267554        1.54438778723337        2.09374828403790
C           13.07760960936451        1.46510878134143        2.47947707462832
C           13.75184645344488        0.25081847767583        2.36343661126834
C           13.11650811886815       -0.86004589742778        1.85872551604058
C           11.77584985597933       -0.81689171478662        1.44429892978337
C           11.08716951525679       -1.96372883740961        0.87746424718375
C           11.74706637055638       -3.18119478550887        0.65546171652145
C           11.11693194093071       -4.26108531541446        0.08312625114027
C            9.78568310173819       -4.16305998759014       -0.31112891949102
C            9.10110568689208       -2.99116677988750       -0.10537795165274
C            9.71672554637639       -1.88492861091310        0.50015155960703
C            9.05271039734514       -0.64880877488869        0.73493523477896
N            7.75681837477398       -0.23087294220646        0.52653690191212
C            6.66423201114145       -0.98763768307084        0.05157552141151
C            6.13570779245264       -2.01833757774816        0.82607630734815
C            5.04979695494934       -2.73780827381317        0.37513262326388
C            4.46297060438145       -2.44374377273136       -0.85969948466303
N            3.36732856161688       -3.17557853186694       -1.31127454847606
C            2.34737622948855       -2.55495492564629       -2.04560544561930
C            1.70584786959765       -3.23881741882627       -3.07812023032441
C            0.68633542198272       -2.63244769439490       -3.78715598487165
C            0.29692849854936       -1.33658192448524       -3.48817569967437
C            0.93901235017331       -0.64947869427784       -2.47114842730405
C            1.95291152517302       -1.25068984971900       -1.75118218858120
C            3.27934336101815       -4.54840396908853       -1.02909821763930
C            4.41527653725975       -5.35544129383628       -1.08168228109994
C            4.32110448898835       -6.70703026365452       -0.80899040775818
C            3.09788803212487       -7.27496352969777       -0.49062729558483
C            1.96586194359650       -6.47733858362287       -0.44171954775330
C            2.05197029856184       -5.12352030097897       -0.70405129707139
C            5.00106738262082       -1.40864052874834       -1.62929507196120
C            6.08794284597713       -0.68829896316975       -1.17879251455525
C            5.24888845200926        1.50063769691929        0.96394724825654
C            4.18321005422089        2.36486288043276        0.85736926024710
C            3.24241971757990        5.68381137451359       -0.47472528669985
C            2.12067284984316        6.44366041807810       -0.71816485548701
C           -1.42941548114460        6.06621458714780       -0.50131954297919
C           -2.68371696216538        6.55704321147201       -0.09309848536398
C           -3.79312607358805        5.75856582563024       -0.12392231217788
C           -3.74943941354771        4.40963956133659       -0.57413086445624
C           -4.87432591443028        3.53701441748098       -0.51829872770464
C           -6.10444850104051        3.89355145719305        0.11046621999566
C           -7.11783260805814        3.00188667015533        0.27725790574032
C           -6.99697090906539        1.64830707665974       -0.14268611589025
C           -8.02919258233528        0.73618159899139        0.16433769896768
N           -9.27859287527998        1.10616374275913        0.45438892256540
C           -9.97443244077411       -0.02471848029012        0.63377043079607
C          -11.36550526066490       -0.15336563909877        0.91575912026262
C          -12.18918403721440        0.97327145798558        1.00079135799335
C          -13.53546703984284        0.83680636322631        1.24387276780009
C          -14.07304614692820       -0.43851864927111        1.39788343347507
C          -13.27063603262034       -1.55524222536975        1.32144997782889
C          -11.89057979798628       -1.45618841425879        1.08700557852530
C          -11.01410567332767       -2.61233364368670        1.02998507945531
C          -11.48652954782852       -3.90567904690002        1.28405360776033
C          -10.66151699994970       -5.00725971828101        1.25963531692720
C           -9.30291334406584       -4.85513981879414        0.98649539083199
C           -8.79730749227242       -3.60722887335988        0.72944227953856
C           -9.62306803285430       -2.46667427482560        0.73399184981465
C           -9.14456628213619       -1.15806579173276        0.49332331045604
N           -7.90316793566169       -0.65995175440844        0.18158670227467
C           -6.66975042081375       -1.33408461208261        0.09790777622713
C           -5.70346115810729       -1.11038182435414        1.07584071832713
C           -4.46535954038840       -1.70698064850338        0.98182798345567
C           -4.15066075997457       -2.52987722330653       -0.10397766071009
N           -2.88805318589269       -3.10076275000647       -0.21912706390582
C           -1.75758999434795       -2.44927912041764        0.29832254156569
C           -0.75649138278814       -3.18559439868751        0.93039311159306
C            0.35772782728891       -2.54971763070781        1.44294506983827
C            0.48778212532550       -1.17456504796777        1.34238029924779
C           -0.50376715772161       -0.43776576217947        0.71509870785257
C           -1.61592326527755       -1.06667445805596        0.18952065201089
C           -2.72298326732470       -4.35278788932297       -0.83380113081687
C           -3.62878258530435       -5.38664382455630       -0.60063621644745
C           -3.44773200860502       -6.61704395992920       -1.20357443725331
C           -2.36144639431152       -6.83742228574391       -2.03544540725468
C           -1.45673913646259       -5.81350236083728       -2.26619855112575
C           -1.63479021512719       -4.57710772506462       -1.67573087864241
C           -5.13129356472406       -2.76139674195323       -1.07506848282712
C           -6.37548409429462       -2.17615681214712       -0.97355540966578
C           -5.83183934174942        1.31952473887035       -0.88285032132343
C           -4.83280421641531        2.22270881113732       -1.06727442807144
C           -2.48318219916707        3.96267525758401       -1.04338519386490
C           -1.37116773899127        4.75013894187577       -0.99992749975804
C            0.59915904321378        9.02191213377940        0.10177060152013
C            0.60170164895015       10.38421516713368       -0.12350483173214
H           -0.25387525136524       12.00852383494718       -1.22900695846745
H           -1.78417830104991       10.55244893596686       -2.50905337178404
H           -1.78275133881191        8.12134023796117       -2.13271588552117
H           -0.02408409210884        4.90482841817250        1.40022037793191
H            1.97823371822836        3.57951372540646        1.84978660928381
H            5.86439065138210        5.24311755394131        0.30191713931652
H            7.76290725138980        3.69415492207238        0.47684781103180
H           11.20120819677484        2.46281974288053        2.17686275551542
H           13.58711105741812        2.33186817552463        2.87444096647022
H           14.78490960616029        0.18022321260669        2.67282584001979
H           13.67793998556804       -1.77833696091305        1.79080531194082
H           12.78431763742971       -3.28548522185773        0.92999664182161
H           11.65988160309812       -5.18206993798583       -0.07136680561487
H            9.29415587157750       -5.00268038403173       -0.78045220134608
H            8.07513876001278       -2.91213108481445       -0.42611178340876
H            6.58041185912193       -2.24469771513439        1.78446636502653
H            4.64350027698864       -3.53203057551526        0.98277919339841
H            2.01268732099580       -4.24571955473472       -3.32024112161926
H            0.19674014296451       -3.17398730924505       -4.58350545927032
H           -0.50081178246255       -0.86757916276870       -4.04427234877021
H            0.64356779953425        0.36050064585682       -2.22951393059258
H            2.44159165688479       -0.71526956230060       -0.95223072599223
H            5.36799949648867       -4.91838145568841       -1.34297855006852
H            5.20805815235302       -7.32206704834037       -0.85505151956955
H            3.02761924587516       -8.33213167118938       -0.28315778821826
H            1.00812712782255       -6.91029621925917       -0.19292935187502
H            1.17124465945689       -4.50170924443626       -0.65560656178932
H            4.56524963547114       -1.17746075695871       -2.58934734504009
H            6.50057948600396        0.10878815307806       -1.77939324232715
H            5.06434896793268        0.46343586840180        1.19642820225077
H            3.18236925453789        1.97496023508280        0.96145169213397
H            4.14857509423377        5.89835861060564       -1.02052425891668
H            2.15490196854325        7.24886911935023       -1.43738869350414
H           -2.75630236508635        7.56739252425156        0.28329535904507
H           -4.72682336143991        6.17513760822662        0.21782355793302
H           -6.23648922230571        4.89241415197860        0.49547064541954
H           -8.03194128704180        3.28751701083415        0.77534313743616
H          -11.73303901805260        1.94206103865384        0.86373528861757
H          -14.17264010055061        1.70638959824281        1.30920706016928
H          -15.13194582192793       -0.55534418738186        1.57944635697056
H          -13.73395084107595       -2.52161789100568        1.44198852443472
H          -12.52804688108930       -4.05823192981059        1.51736220735359
H          -11.06579731077077       -5.98817995943798        1.46186980631801
H           -8.65086411272837       -5.71638595841256        0.98113520768729
H           -7.74399511268106       -3.49002418758302        0.53317582822959
H           -5.93540856960104       -0.46508108546309        1.91035439079729
H           -3.73016327340506       -1.53757302439984        1.75368873245864
H           -0.86530514419623       -4.25601153649005        1.02680890347054
H            1.12212232788706       -3.13264434425399        1.93540796395378
H            1.35520338797163       -0.68326562239943        1.75647443291695
H           -0.41106278480244        0.63509663815760        0.63054197871841
H           -2.38456636707621       -0.49229570224635       -0.30519727393302
H           -4.46794419699862       -5.22048019631049        0.05918478839451
H           -4.15468831936618       -7.41171016985089       -1.01433381337431
H           -2.22089899136489       -7.80180105387695       -2.50008022938916
H           -0.60837070813487       -5.97563305070892       -2.91402397392421
H           -0.93688095835489       -3.77509059093623       -1.86706546496347
H           -4.90478276809516       -3.39119785096464       -1.92212655279343
H           -7.12129448726381       -2.34664223516427       -1.73685986308711
H           -5.75600981788091        0.35145033994818       -1.35267771093497
H           -3.99507006115226        1.92470635303303       -1.67759057944625
H           -2.37888106954779        2.96732078457037       -1.44172204519584
H           -0.42807818662504        4.37181725024247       -1.36729877809166
H            1.25634693800693        8.58852511762774        0.84118417320180
H            1.27235307379421       11.01573388503583        0.44009760403552

          :  Hamiltonian                  GFN2-xTB          :
         :: gradient norm              0.000049267089 Eh/a0 ::
         :: HOMO-LUMO gap              0.194483033386 eV    ::
         :: SCC energy              -264.209090485449 Eh    ::
         :: -> dispersion             -0.265541783573 Eh    ::
         :: -> Gsolv                  -0.103586995148 Eh    ::
         :: repulsion energy           4.860522348522 Eh    ::

    * Orbital Energies and Occupations

         #    Occupation            Energy/Eh            Energy/eV
      -------------------------------------------------------------
         1        2.0000           -0.6848005             -18.6344
       ...           ...                  ...                  ...
       231        2.0000           -0.3983631             -10.8400
       232        2.0000           -0.3948113             -10.7434
       233        2.0000           -0.3857056             -10.4956
       234        2.0000           -0.3822285             -10.4010
       235        2.0000           -0.3815270             -10.3819
       236        2.0000           -0.3777420             -10.2789
       237        2.0000           -0.3750964             -10.2069
       238        2.0000           -0.3654101              -9.9433
       239        1.9999           -0.3602979              -9.8042
       240        1.9939           -0.3561125              -9.6903
       241        1.9858           -0.3552966              -9.6681
       242        1.0204           -0.3475882              -9.4584
       243        0.9773           -0.2736879              -7.4474 (HOMO)
       244        0.0227           -0.2665397              -7.2529 (LUMO)
       245                         -0.2512155              -6.8359
       246                         -0.2504806              -6.8159
       247                         -0.2485361              -6.7630
       248                         -0.2475149              -6.7352
       249                         -0.2417748              -6.5790
       250                         -0.2407204              -6.5503
       251                         -0.2400410              -6.5318
       252                         -0.2378840              -6.4732
       253                         -0.2354755              -6.4076
       254                         -0.2344411              -6.3795
       ...                                ...                  ...
       477                          0.7282396              19.8164
      -------------------------------------------------------------
                  HL-Gap            0.0071482 Eh            0.1945 eV

     #   Z          covCN         q      C6AA      α(0)
     1   6 C        2.919    -0.032    28.799     8.800
     2   6 C        2.919    -0.027    28.669     8.780
     3   6 C        2.921    -0.042    29.044     8.838
     4   6 C        2.923     0.063    26.587     8.456
     5   7 N        2.752    -0.028    21.795     6.934
     6   6 C        2.932     0.056    26.741     8.481
     7   6 C        2.919    -0.042    29.040     8.837
     8   6 C        2.923    -0.034    28.855     8.809
     9   6 C        2.974     0.007    27.855     8.657
    10   6 C        2.974     0.007    27.851     8.657
    11   6 C        2.921    -0.035    28.880     8.813
    12   6 C        2.925    -0.032    28.788     8.799
    13   6 C        2.973    -0.008    28.204     8.711
    14   6 C        3.182     0.135    24.651     8.104
    15   7 N        1.894    -0.324    29.245     8.017
    16   6 C        3.199     0.061    26.095     8.325
    17   6 C        2.985    -0.004    28.122     8.699
    18   6 C        2.921    -0.034    28.838     8.806
    19   6 C        2.917    -0.033    28.813     8.802
    20   6 C        2.917    -0.035    28.865     8.810
    21   6 C        2.921    -0.037    28.920     8.819
    22   6 C        2.978    -0.006    28.156     8.704
    23   6 C        2.979    -0.003    28.093     8.694
    24   6 C        2.922    -0.035    28.883     8.813
    25   6 C        2.916    -0.035    28.879     8.812
    26   6 C        2.916    -0.033    28.827     8.804
    27   6 C        2.919    -0.042    29.040     8.837
    28   6 C        2.977    -0.007    28.181     8.708
    29   6 C        3.070     0.023    27.429     8.588
    30   7 N        2.837    -0.057    22.341     7.020
    31   6 C        2.910     0.057    26.716     8.475
    32   6 C        2.919    -0.038    28.939     8.822
    33   6 C        2.922    -0.047    29.165     8.856
    34   6 C        2.922     0.067    26.493     8.441
    35   7 N        2.752    -0.071    22.619     7.064
    36   6 C        2.923     0.063    26.583     8.455
    37   6 C        2.922    -0.047    29.169     8.857
    38   6 C        2.919    -0.029    28.728     8.789
    39   6 C        2.919    -0.038    28.950     8.823
    40   6 C        2.920    -0.029    28.716     8.788
    41   6 C        2.923    -0.047    29.175     8.858
    42   6 C        2.925     0.064    26.576     8.454
    43   6 C        2.922    -0.047    29.163     8.856
    44   6 C        2.919    -0.029    28.732     8.790
    45   6 C        2.919    -0.037    28.922     8.819
    46   6 C        2.919    -0.028    28.703     8.786
    47   6 C        2.922    -0.047    29.157     8.855
    48   6 C        2.922    -0.046    29.141     8.853
    49   6 C        2.919    -0.038    28.947     8.823
    50   6 C        2.919    -0.039    28.972     8.827
    51   6 C        2.924    -0.037    28.918     8.819
    52   6 C        2.923    -0.034    28.837     8.806
    53   6 C        2.917    -0.043    29.077     8.843
    54   6 C        2.929     0.049    26.908     8.507
    55   6 C        2.912    -0.044    29.099     8.846
    56   6 C        2.919    -0.039    28.962     8.825
    57   6 C        2.966     0.005    27.909     8.665
    58   6 C        2.967    -0.003    28.105     8.696
    59   6 C        2.916    -0.039    28.976     8.827
    60   6 C        2.918    -0.036    28.905     8.816
    61   6 C        2.969    -0.017    28.437     8.747
    62   6 C        3.157     0.133    24.815     8.145
    63   7 N        1.883    -0.330    29.410     8.039
    64   6 C        3.184     0.074    25.922     8.309
    65   6 C        2.984    -0.007    28.191     8.710
    66   6 C        2.922    -0.031    28.780     8.797
    67   6 C        2.916    -0.034    28.842     8.807
    68   6 C        2.917    -0.033    28.812     8.802
    69   6 C        2.921    -0.037    28.923     8.819
    70   6 C        2.977    -0.004    28.128     8.700
    71   6 C        2.978    -0.005    28.145     8.702
    72   6 C        2.921    -0.035    28.870     8.811
    73   6 C        2.916    -0.036    28.907     8.817
    74   6 C        2.915    -0.034    28.850     8.808
    75   6 C        2.919    -0.041    29.025     8.835
    76   6 C        2.975    -0.012    28.306     8.727
    77   6 C        3.048     0.031    27.255     8.562
    78   7 N        2.825    -0.069    22.580     7.058
    79   6 C        2.910     0.059    26.672     8.468
    80   6 C        2.921    -0.038    28.943     8.822
    81   6 C        2.922    -0.047    29.172     8.857
    82   6 C        2.920     0.066    26.517     8.444
    83   7 N        2.752    -0.070    22.595     7.060
    84   6 C        2.925     0.063    26.583     8.455
    85   6 C        2.923    -0.047    29.157     8.855
    86   6 C        2.919    -0.028    28.711     8.787
    87   6 C        2.919    -0.035    28.882     8.813
    88   6 C        2.919    -0.027    28.682     8.782
    89   6 C        2.922    -0.046    29.136     8.852
    90   6 C        2.925     0.064    26.575     8.454
    91   6 C        2.921    -0.046    29.145     8.853
    92   6 C        2.919    -0.029    28.727     8.789
    93   6 C        2.919    -0.036    28.906     8.817
    94   6 C        2.919    -0.028    28.688     8.783
    95   6 C        2.922    -0.045    29.115     8.849
    96   6 C        2.922    -0.049    29.212     8.863
    97   6 C        2.918    -0.039    28.970     8.826
    98   6 C        2.913    -0.044    29.103     8.846
    99   6 C        2.918    -0.040    28.989     8.829
   100   6 C        2.920    -0.040    28.987     8.829
   101   6 C        2.915    -0.044    29.099     8.846
   102   6 C        2.921    -0.043    29.057     8.840
   103   6 C        2.919    -0.027    28.667     8.780
   104   1 H        0.926     0.040     2.446     2.446
   105   1 H        0.926     0.041     2.429     2.437
   106   1 H        0.926     0.042     2.419     2.432
   107   1 H        0.926     0.040     2.455     2.450
   108   1 H        0.926     0.042     2.428     2.437
   109   1 H        0.926     0.039     2.462     2.454
   110   1 H        0.926     0.043     2.413     2.429
   111   1 H        0.926     0.042     2.418     2.432
   112   1 H        0.926     0.031     2.566     2.505
   113   1 H        0.926     0.031     2.574     2.509
   114   1 H        0.926     0.033     2.539     2.492
   115   1 H        0.926     0.035     2.512     2.479
   116   1 H        0.926     0.031     2.570     2.507
   117   1 H        0.926     0.030     2.585     2.514
   118   1 H        0.926     0.028     2.620     2.531
   119   1 H        0.926     0.041     2.430     2.438
   120   1 H        0.926     0.045     2.386     2.416
   121   1 H        0.926     0.034     2.535     2.490
   122   1 H        0.926     0.036     2.506     2.476
   123   1 H        0.926     0.033     2.548     2.496
   124   1 H        0.926     0.035     2.515     2.480
   125   1 H        0.926     0.033     2.539     2.492
   126   1 H        0.926     0.031     2.570     2.507
   127   1 H        0.926     0.035     2.518     2.481
   128   1 H        0.926     0.034     2.529     2.487
   129   1 H        0.926     0.035     2.518     2.482
   130   1 H        0.926     0.038     2.474     2.460
   131   1 H        0.926     0.045     2.381     2.413
   132   1 H        0.926     0.039     2.464     2.455
   133   1 H        0.926     0.025     2.654     2.548
   134   1 H        0.926     0.037     2.489     2.467
   135   1 H        0.926     0.042     2.417     2.431
   136   1 H        0.926     0.040     2.450     2.448
   137   1 H        0.926     0.035     2.520     2.482
   138   1 H        0.926     0.035     2.509     2.477
   139   1 H        0.926     0.031     2.570     2.507
   140   1 H        0.926     0.036     2.502     2.474
   141   1 H        0.926     0.043     2.410     2.428
   142   1 H        0.926     0.033     2.551     2.497
   143   1 H        0.926     0.033     2.548     2.496
   144   1 H        0.926     0.034     2.525     2.485
   145   1 H        0.926     0.035     2.520     2.483
   146   1 H        0.926     0.030     2.579     2.512
   147   1 H        0.926     0.029     2.596     2.520
   148   1 H        0.926     0.028     2.616     2.529
   149   1 H        0.926     0.035     2.511     2.478
   150   1 H        0.926     0.044     2.402     2.424
   151   1 H        0.926     0.034     2.530     2.487
   152   1 H        0.926     0.035     2.510     2.478
   153   1 H        0.926     0.033     2.546     2.495
   154   1 H        0.926     0.038     2.482     2.463
   155   1 H        0.926     0.034     2.530     2.487
   156   1 H        0.926     0.033     2.551     2.498
   157   1 H        0.926     0.036     2.503     2.474
   158   1 H        0.926     0.036     2.509     2.477
   159   1 H        0.926     0.038     2.478     2.461
   160   1 H        0.926     0.034     2.532     2.488
   161   1 H        0.926     0.044     2.396     2.421
   162   1 H        0.926     0.041     2.439     2.442
   163   1 H        0.926     0.018     2.765     2.600
   164   1 H        0.926     0.029     2.604     2.523
   165   1 H        0.926     0.036     2.505     2.475
   166   1 H        0.926     0.034     2.535     2.490
   167   1 H        0.926     0.042     2.429     2.437
   168   1 H        0.926     0.042     2.425     2.435

molecular dipole:
                 x           y           z       tot (Debye)
 q only:        1.090       0.343      -1.018
   full:        1.090      -0.364      -1.109       4.060

 projected vibrational frequencies (cm⁻¹)
eigval :       -0.00    -0.00    -0.00    -0.00     0.00     0.00
eigval :        2.67     6.04     7.09    10.38    13.82    15.68
eigval :       16.80    17.77    20.10    22.20    23.16    26.44
eigval :       31.43    32.36    38.88    41.74    45.93    47.34
eigval :       50.62    50.94    55.14    56.92    62.11    64.41
eigval :       65.72    69.77    70.66    73.45    76.51    77.50
eigval :       78.97    85.94    86.71    88.98    89.49    94.06
eigval :       98.16   104.23   111.44   113.47   116.54   122.19
eigval :      134.99   145.31   149.80   151.74   159.85   163.41
eigval :      167.90   173.65   179.99   182.60   207.16   213.17
eigval :      216.52   219.70   231.43   232.41   234.82   236.98
eigval :      239.72   248.12   258.47   261.44   266.28   284.05
eigval :      286.01   302.80   303.95   306.88   307.42   308.08
eigval :      316.55   323.00   334.81   344.88   348.75   354.73
eigval :      357.23   359.39   371.58   374.98   377.61   379.18
eigval :      379.49   380.47   381.46   382.63   383.68   385.95
eigval :      390.73   391.22   392.76   394.38   397.09   397.65
eigval :      401.07   405.31   413.29   413.99   418.01   429.41
eigval :      434.79   435.81   439.37   445.58   446.74   454.84
eigval :      458.15   470.77   471.64   482.28   485.40   492.31
eigval :      492.50   499.27   502.57   506.73   508.56   517.49
eigval :      523.14   525.06   528.82   530.20   531.40   534.50
eigval :      546.14   581.19   581.58   583.48   584.49   585.17
eigval :      585.79   586.26   587.43   591.93   592.25   594.98
eigval :      599.77   605.61   606.41   611.34   613.72   618.57
eigval :      623.87   628.52   629.89   641.54   642.11   649.90
eigval :      650.65   658.29   660.15   660.73   662.11   663.71
eigval :      664.27   667.42   668.38   672.09   673.06   675.10
eigval :      676.32   677.45   681.17   685.08   688.42   700.75
eigval :      705.86   715.31   728.20   731.52   732.37   738.13
eigval :      745.16   756.05   757.57   759.42   760.00   761.87
eigval :      762.35   763.54   765.75   776.44   782.50   785.02
eigval :      791.25   794.39   796.83   801.80   807.59   817.58
eigval :      819.32   821.90   826.83   853.97   855.62   862.00
eigval :      863.05   863.28   868.15   869.08   870.12   872.04
eigval :      873.27   873.92   876.05   878.35   891.20   893.51
eigval :      894.56   895.85   898.53   898.84   901.75   902.54
eigval :      904.41   905.99   906.53   907.51   908.91   908.97
eigval :      909.75   910.87   910.93   912.36   913.28   913.54
eigval :      914.35   915.34   915.82   917.42   920.11   922.22
eigval :      922.70   923.58   925.04   926.31   926.87   927.29
eigval :      927.65   928.41   928.73   929.36   930.07   930.85
eigval :      931.36   932.61   934.03   937.04   938.05   944.49
eigval :      954.12   961.66   978.07   984.46   985.92   997.45
eigval :     1000.43  1003.79  1005.02  1005.74  1011.01  1013.57
eigval :     1016.20  1026.96  1028.75  1065.05  1067.85  1070.27
eigval :     1079.18  1080.60  1082.13  1083.44  1083.49  1084.19
eigval :     1085.17  1103.17  1107.13  1108.03  1119.62  1119.71
eigval :     1120.90  1121.96  1122.58  1129.01  1133.80  1134.05
eigval :     1134.97  1136.00  1139.41  1148.80  1150.54  1157.88
eigval :     1159.08  1163.77  1170.82  1176.37  1177.34  1177.98
eigval :     1178.44  1179.39  1180.43  1180.96  1181.03  1182.64
eigval :     1182.79  1183.33  1184.83  1187.28  1188.88  1191.25
eigval :     1192.53  1193.50  1194.86  1202.67  1205.63  1207.43
eigval :     1214.77  1215.38  1232.49  1239.88  1251.78  1253.66
eigval :     1255.67  1258.39  1261.69  1263.41  1263.61  1265.63
eigval :     1271.90  1275.41  1275.66  1276.29  1278.47  1279.71
eigval :     1279.97  1281.87  1281.96  1282.48  1290.60  1294.07
eigval :     1298.92  1303.13  1304.73  1306.12  1309.34  1311.09
eigval :     1311.34  1312.32  1318.63  1321.27  1321.82  1322.05
eigval :     1322.98  1325.27  1325.40  1325.89  1328.90  1335.27
eigval :     1335.98  1337.29  1339.05  1340.69  1345.99  1363.63
eigval :     1377.57  1386.94  1396.31  1403.83  1404.81  1411.66
eigval :     1412.98  1413.33  1416.27  1417.80  1419.73  1425.72
eigval :     1429.29  1432.03  1432.57  1434.50  1434.62  1436.48
eigval :     1438.92  1440.26  1441.62  1442.42  1449.50  1457.31
eigval :     1458.25  1468.02  1468.87  1469.46  1471.05  1472.00
eigval :     1474.05  1478.02  1481.80  1485.69  1493.09  1499.85
eigval :     1509.37  1515.39  1518.77  1527.53  1531.49  1540.96
eigval :     1542.98  1543.24  1544.25  1551.30  1557.12  1562.43
eigval :     1567.42  1567.94  1572.91  1576.40  1576.58  1580.42
eigval :     1580.60  1581.85  1585.46  1586.98  1588.24  1589.98
eigval :     1590.26  1590.29  1591.23  1591.50  1596.36  1597.81
eigval :     1600.95  3068.73  3070.16  3072.28  3072.36  3073.34
eigval :     3073.51  3074.64  3075.38  3076.18  3077.13  3077.27
eigval :     3077.72  3078.71  3078.81  3078.94  3079.44  3079.80
eigval :     3079.93  3080.11  3080.39  3080.66  3082.03  3082.39
eigval :     3082.66  3082.80  3083.25  3083.83  3084.34  3085.75
eigval :     3085.81  3085.91  3086.64  3087.64  3087.98  3088.07
eigval :     3088.39  3090.48  3091.09  3093.07  3093.27  3093.46
eigval :     3094.37  3094.80  3095.07  3095.24  3096.57  3096.87
eigval :     3096.95  3097.24  3097.35  3097.45  3097.63  3098.34
eigval :     3098.55  3099.48  3102.79  3103.14  3103.53  3103.89
eigval :     3106.53  3107.07  3108.07  3115.19  3118.02  3119.59

   temp. (K)  partition function   enthalpy   heat capacity  entropy
                                   cal/mol     cal/K/mol   cal/K/mol   J/K/mol
 298.15  VIB  0.110E+43            50132.025    310.733    318.694
         ROT  0.900E+09              888.752      2.981     43.954
         INT  0.994E+51            51020.778    313.714    362.648
         TR   0.462E+29             1481.254      4.968     47.380
         TOT                       52502.0317   318.6820   410.0281  1715.5574

       T/K    H(0)-H(T)+PV         H(T)/Eh          T*S/Eh         G(T)/Eh
   ------------------------------------------------------------------------
    298.15    0.836673E-01    0.137752E+01    0.194818E+00    0.118271E+01
   ------------------------------------------------------------------------

         :::::::::::::::::::::::::::::::::::::::::::::::::::::
         ::                  THERMODYNAMIC                  ::
         :::::::::::::::::::::::::::::::::::::::::::::::::::::
         :: total free energy        -258.165861282007 Eh   ::
         ::.................................................::
         :: total energy             -259.348568139237 Eh   ::
         :: zero point energy           1.293857104520 Eh   ::
         :: G(RRHO) w/o ZPVE           -0.111150247290 Eh   ::
         :: G(RRHO) contrib.            1.182706857230 Eh   ::
         :::::::::::::::::::::::::::::::::::::::::::::::::::::

           -------------------------------------------------
          | TOTAL ENERGY             -259.348568139237 Eh   |
          | TOTAL ENTHALPY           -257.971043721558 Eh   |
          | TOTAL FREE ENERGY        -258.165861282007 Eh   |
          | GRADIENT NORM               0.000047879032 Eh/α |
          | HOMO-LUMO GAP               0.194511732693 eV   |
           -------------------------------------------------

 * finished run on 2025/09/07 at 10:23:31.398
