   * xtb version 6.7.1 (edcfbbe) compiled by 'albert@albert-system' on 2024-07-22

   ID    Z sym.   atoms
    1    6 C      1-4, 6-14, 16-29, 31-34, 36-62, 64-77, 79-82, 84-103
    2    7 N      5, 15, 30, 35, 63, 78, 83
    3    1 H      104-168

          program call               : xtb data2507/toluene/TPA–2PPITPA/TPA–2PPITPA.xyz --gfn 2 --gbsa toluene --ohess vtight --parallel 40 --molden --ceasefiles --namespace data2507/toluene/TPA–2PPITPA/TPA–2PPITPA_toluene_S0_preOpt
      * Solvation model:               GBSA
        Solvent                        toluene
        Solvent mass                       9.2140E+01 g/mol
          :  Hamiltonian                  GFN2-xTB          :
 * total energy  :  -259.3660687 Eh     change       -0.4336528E-08 Eh
 * total energy  :  -259.3935509 Eh     change       -0.2748210E-01 Eh
 * total energy  :  -259.4048126 Eh     change       -0.1126178E-01 Eh
 * total energy  :  -259.4094750 Eh     change       -0.4662339E-02 Eh
 * total energy  :  -259.4123733 Eh     change       -0.2898332E-02 Eh
 * total energy  :  -259.4139743 Eh     change       -0.1600969E-02 Eh
 * total energy  :  -259.4149286 Eh     change       -0.9543237E-03 Eh
 * total energy  :  -259.4156795 Eh     change       -0.7509130E-03 Eh
 * total energy  :  -259.4162839 Eh     change       -0.6044313E-03 Eh
 * total energy  :  -259.4167666 Eh     change       -0.4826983E-03 Eh
 * total energy  :  -259.4252175 Eh     change       -0.6179599E-06 Eh
 * total energy  :  -259.4252182 Eh     change       -0.6462301E-06 Eh
 * total energy  :  -259.4252189 Eh     change       -0.7594925E-06 Eh
 * total energy  :  -259.4252199 Eh     change       -0.9478922E-06 Eh
 * total energy  :  -259.4252211 Eh     change       -0.1165939E-05 Eh
 * total energy  :  -259.4252224 Eh     change       -0.1316561E-05 Eh
 * total energy  :  -259.4252237 Eh     change       -0.1345117E-05 Eh
 * total energy  :  -259.4252250 Eh     change       -0.1267556E-05 Eh
 * total energy  :  -259.4252250 Eh     change       -0.3914181E-08 Eh
   *** GEOMETRY OPTIMIZATION CONVERGED AFTER 260 ITERATIONS ***

 final structure:
================
168
 xtb: 6.7.1 (edcfbbe)
C           -0.14299471500434       -3.33647020328253        5.96991414093676
C           -0.97624306335657       -3.77356701250689        4.95271379724653
C           -0.96447909519796       -3.14895351563141        3.72041455550121
C           -0.11915132092526       -2.06305460596441        3.48974128449310
N           -0.11200316568584       -1.42597730551117        2.24370381028256
C            1.07442560606688       -0.89957533100346        1.72391083979621
C            1.06501786679525        0.30957985204762        1.02683542500014
C            2.23975440662702        0.84870260012146        0.54680975194804
C            3.45823877435478        0.19770134215940        0.73403174470688
C            4.71401779891327        0.79463115481987        0.26212127252392
C            4.96052006413967        2.15689800051094        0.43619264181404
C            6.15708476060594        2.71259302887376        0.03971951686481
C            7.14943359478760        1.92720833766686       -0.55240253502550
C            8.38973802556155        2.58277790911443       -0.93042210246916
N            8.43881377611687        3.84927298320701       -1.27421058592485
C            9.74427045780077        4.11662849877667       -1.53741057625378
C           10.31223044953533        5.34519491273715       -1.97757003892020
C            9.51548423297776        6.47142992952325       -2.21220384883821
C           10.07837637379835        7.63945553517291       -2.66296304440444
C           11.45245513837599        7.69284527768550       -2.89045355900407
C           12.24634452884288        6.59385708559953       -2.65785453415218
C           11.71006988392960        5.38484423810411       -2.18723456601531
C           12.52686193230939        4.21781529746517       -1.89927804922518
C           13.92380463085516        4.25017455385599       -2.02197086800864
C           14.70990769004158        3.16467597761286       -1.71487243404228
C           14.12634586736857        1.98971536349686       -1.25104208360579
C           12.76140470009488        1.91492770951656       -1.12113265512948
C           11.93904179845303        3.00167411851438       -1.45279077567305
C           10.52058941920325        2.97743968531954       -1.33138108083328
N            9.63376915929843        1.99389315296928       -0.95320394040331
C            9.91402345448786        0.64381999765557       -0.64815204381825
C            9.74652131283015        0.16915090822782        0.64805384969563
C           10.00593969475813       -1.15395239024645        0.93991634815015
C           10.43380101370879       -2.03389246901702       -0.05830668162825
N           10.69856606171381       -3.36793030068893        0.23382938113041
C           11.72012075889345       -4.05032558890187       -0.44663685720221
C           12.92837489829166       -3.41482075551384       -0.73009529274725
C           13.93063635305374       -4.09221502870168       -1.39805511668999
C           13.74915598471839       -5.41059481657238       -1.78394644231948
C           12.55253627022610       -6.04823069928254       -1.49854808753854
C           11.54112401438505       -5.37598861022504       -0.83887112972669
C            9.94887184324713       -4.04732907964457        1.20670454405027
C           10.56765837713943       -4.95796572794575        2.06199811922518
C            9.82508858817295       -5.63787925049289        3.00872762081362
C            8.46209639270212       -5.41676155878185        3.12275843178089
C            7.84337632373526       -4.51032247373620        2.27694192335327
C            8.57616958014186       -3.83174806489852        1.32193503533588
C           10.59271314409063       -1.54779868937352       -1.36019805332624
C           10.33589007836503       -0.22540982990460       -1.65168244382933
C            6.88796241188845        0.57491848660126       -0.76967917462156
C            5.69218423073009        0.02030977140920       -0.35879810224785
C            3.45813722227137       -1.02347664305950        1.40711870954941
C            2.28862393208057       -1.56484106939859        1.89816090584435
C           -1.30481593363848       -1.28817575445227        1.52517828425586
C           -2.49806265653561       -0.97539011991045        2.17662706607296
C           -3.67196313215483       -0.85475217360923        1.46410376761591
C           -3.70100309061789       -1.04034515714347        0.08082771382993
C           -4.95802025390116       -0.93142657873420       -0.66848780555303
C           -6.16330603674841       -1.34606889980350       -0.10046519744711
C           -7.35135247229363       -1.24588928070842       -0.79405072398510
C           -7.37178647727368       -0.72970393419385       -2.08845160721356
C           -8.60236636710995       -0.62787261432881       -2.85847249402921
N           -8.69941356388678       -0.94909828519574       -4.12544273715768
C          -10.00131819606207       -0.73903334605538       -4.46189213075565
C          -10.62723255863679       -0.97510512181836       -5.71783551303514
C           -9.91024734206728       -1.49658172351582       -6.80073819110846
C          -10.53825226813485       -1.74400925554879       -7.99594445498806
C          -11.89970073030910       -1.47300163103800       -8.12210082762981
C          -12.61335960072814       -0.95477240340700       -7.06658835108962
C          -12.00627864727487       -0.68191173041382       -5.83050921660377
C          -12.72890102358255       -0.11288768288641       -4.70544507161700
C          -14.08006202814506        0.25050887914430       -4.80581748353160
C          -14.76348921391094        0.81844597242154       -3.75650421666128
C          -14.11453773812948        1.06059984002821       -2.54951680253073
C          -12.79344443749612        0.71398172420079       -2.40750645140176
C          -12.08304359418743        0.11693268471033       -3.45919113115088
C          -10.71284040557976       -0.25654541853369       -3.36460740675872
N           -9.80090612496885       -0.20272309446739       -2.33456603975400
C           -9.97046748190341        0.26161011039098       -1.01127641939520
C           -9.33826214038576        1.43311414775095       -0.61010816719407
C           -9.46400517955481        1.87958214130154        0.68865380559320
C          -10.22514772380577        1.16319561043192        1.61561782737803
N          -10.35566742807919        1.61428834149144        2.92619053112979
C          -10.40776056428309        0.69427217160583        3.98498057799762
C          -11.26778234340088        0.90459978076668        5.06169420754504
C          -11.30547565827598        0.00187238045103        6.10753715558403
C          -10.49605683572312       -1.12270401141120        6.09329415284781
C           -9.64210162904245       -1.33749206254897        5.02338305055897
C           -9.59214841355148       -0.43657904438382        3.97669405194933
C          -10.42654630253910        2.98877077983285        3.19797306983872
C           -9.80074690187221        3.51827338839672        4.32579415444891
C           -9.88369035881797        4.87087899223809        4.59660401062888
C          -10.58060157766069        5.71540501212992        3.74746830737508
C          -11.20137246437293        5.19437156498061        2.62356733727488
C          -11.13167268634815        3.84174570027522        2.34940817053559
C          -10.85367224134758       -0.01632186228062        1.20426348309351
C          -10.72513287854663       -0.46425144674794       -0.09334313777411
C           -6.16808103907800       -0.33666784837806       -2.67213876114268
C           -4.98443820857009       -0.42784078325189       -1.97023176403218
C           -2.50084486509964       -1.34289516902056       -0.56419930572753
C           -1.32258342791086       -1.46457651471186        0.14122349681694
C            0.71308888388988       -1.62311076756668        4.51948985347014
C            0.70078788271103       -2.26049174038310        5.74529439940957
H           -0.15192206639078       -3.82964556222508        6.93038207965435
H           -1.63500863426422       -4.61415326607792        5.11643581485374
H           -1.60822372385316       -3.49923766338663        2.92660940463770
H            0.12936618872660        0.82824549140869        0.87662483018279
H            2.21371011827796        1.78572378981971        0.01015939645126
H            4.21519388332903        2.77636401152633        0.91307618786886
H            6.35378221386977        3.76380447418434        0.18483993769236
H            8.45455893843422        6.38500014562282       -2.03243629828316
H            9.46521419555582        8.50979833019121       -2.84591862180900
H           11.89972538460121        8.60731053774890       -3.25309280002594
H           13.30364264298333        6.68158933547147       -2.85137154134922
H           14.41087660186798        5.15124261659735       -2.35790862657273
H           15.78280955190936        3.22902047406448       -1.82290308670500
H           14.74309890109056        1.14242409638034       -0.98942163331174
H           12.31188328790328        1.01052837990793       -0.74465656836538
H            9.41973064667143        0.84470906064142        1.42467031528402
H            9.88565404007209       -1.51301603335473        1.95062329649415
H           13.07657173989466       -2.39067464975494       -0.41991182361373
H           14.86274260044706       -3.58923490446314       -1.61056628969588
H           14.53567663664348       -5.93781807365374       -2.30257319136571
H           12.40137864878447       -7.07475080861625       -1.79901529537588
H           10.60606123332708       -5.87218844930620       -0.62353675714652
H           11.63128095164511       -5.12715898830809        1.97864261624211
H           10.31651935718866       -6.33977624168633        3.66659548781416
H            7.88545389298380       -5.94779964130812        3.86502488887965
H            6.77987074691888       -4.33798449439003        2.35485724711863
H            8.09044166852550       -3.13363153803913        0.65635840125748
H           10.91210031755183       -2.21730133200246       -2.14434138382696
H           10.45624540141108        0.14434035889248       -2.65976523490830
H            7.61013895071194       -0.04477908464585       -1.27849931824341
H            5.50075277272034       -1.02666588085704       -0.54398101218199
H            4.39188500257510       -1.54282145484271        1.56527772756228
H            2.30656217142002       -2.50680381386121        2.42698496455490
H           -2.49387094581564       -0.82254116323123        3.24622190779218
H           -4.57741952040881       -0.58342272143922        1.98622985612612
H           -6.16599081404456       -1.78008700385966        0.88833699937499
H           -8.26501317888502       -1.59756963572888       -0.33869707977984
H           -8.85959120229074       -1.69996682236389       -6.65891938911310
H           -9.98694134979296       -2.14890488387216       -8.83199246469534
H          -12.40062506678803       -1.67215299452489       -9.05875600072186
H          -13.66501471042148       -0.76371244313160       -7.20986188807410
H          -14.60993736568700        0.09238998664542       -5.73115914278326
H          -15.80364737288700        1.08573762402286       -3.87300830997891
H          -14.64546065484632        1.52133831831286       -1.72940359171195
H          -12.28810510274820        0.91267222174040       -1.47594245129150
H           -8.74122033906159        1.98532885355455       -1.32082007625778
H           -8.96674531308325        2.78704471462165        0.99568299963839
H          -11.90358135134994        1.77785893503139        5.07095703745441
H          -11.97766465261036        0.17469502953874        6.93527464721437
H          -10.52975514465859       -1.82662703602483        6.91115817773721
H           -9.00293835719510       -2.20828717640890        5.00750545111641
H           -8.91787677407195       -0.59836850532981        3.14833129375170
H           -9.24994213531729        2.86332067329140        4.98494936735907
H           -9.39303296809598        5.26903715980328        5.47278292439716
H          -10.64005743804452        6.77211485028105        3.96038685913229
H          -11.75239683418981        5.84400970019375        1.95914249877627
H          -11.62570780421311        3.43729979625405        1.47779636803669
H          -11.44633857338325       -0.57785863387528        1.91059038691833
H          -11.21810571769470       -1.37293142563025       -0.40814066449978
H           -6.18150356566837        0.04872129843512       -3.68066537009034
H           -4.06926061184272       -0.08719591044019       -2.43098863287330
H           -2.49582549650348       -1.51842060173776       -1.62958537520774
H           -0.40470805705674       -1.71013832914553       -0.37300241788749
H            1.36440723874684       -0.77749116681792        4.35288011330094
H            1.34948087345260       -1.90783338065097        6.53413084000392

          :  Hamiltonian                  GFN2-xTB          :
         :: gradient norm              0.000053038426 Eh/a0 ::
         :: HOMO-LUMO gap              2.269763855134 eV    ::
         :: SCC energy              -264.301910241522 Eh    ::
         :: -> dispersion             -0.248745435152 Eh    ::
         :: -> Gsolv                  -0.109442785938 Eh    ::
         :: repulsion energy           4.876685245554 Eh    ::

    * Orbital Energies and Occupations

         #    Occupation            Energy/Eh            Energy/eV
      -------------------------------------------------------------
         1        2.0000           -0.6867339             -18.6870
       ...           ...                  ...                  ...
       230        2.0000           -0.4005630             -10.8999
       231        2.0000           -0.3998298             -10.8799
       232        2.0000           -0.3954637             -10.7611
       233        2.0000           -0.3907841             -10.6338
       234        2.0000           -0.3827145             -10.4142
       235        2.0000           -0.3825879             -10.4107
       236        2.0000           -0.3792861             -10.3209
       237        2.0000           -0.3787393             -10.3060
       238        2.0000           -0.3650263              -9.9329
       239        2.0000           -0.3636639              -9.8958
       240        2.0000           -0.3556651              -9.6781
       241        2.0000           -0.3555586              -9.6752
       242        2.0000           -0.3483415              -9.4789 (HOMO)
       243                         -0.2649292              -7.2091 (LUMO)
       244                         -0.2621010              -7.1321
       245                         -0.2507639              -6.8236
       246                         -0.2505195              -6.8170
       247                         -0.2481071              -6.7513
       248                         -0.2458321              -6.6894
       249                         -0.2420756              -6.5872
       250                         -0.2416029              -6.5743
       251                         -0.2396817              -6.5221
       252                         -0.2396138              -6.5202
       253                         -0.2341221              -6.3708
       ...                                ...                  ...
       477                          0.7260618              19.7571
      -------------------------------------------------------------
                  HL-Gap            0.0834123 Eh            2.2698 eV

     #   Z          covCN         q      C6AA      α(0)
     1   6 C        2.919    -0.039    28.981     8.828
     2   6 C        2.919    -0.030    28.752     8.793
     3   6 C        2.922    -0.048    29.203     8.862
     4   6 C        2.923     0.065    26.544     8.449
     5   7 N        2.752    -0.075    22.703     7.077
     6   6 C        2.924     0.064    26.565     8.452
     7   6 C        2.920    -0.048    29.197     8.861
     8   6 C        2.924    -0.034    28.844     8.807
     9   6 C        2.976     0.002    27.987     8.678
    10   6 C        2.976     0.012    27.734     8.638
    11   6 C        2.923    -0.034    28.848     8.808
    12   6 C        2.927    -0.030    28.751     8.793
    13   6 C        2.974    -0.005    28.135     8.701
    14   6 C        3.188     0.136    24.604     8.092
    15   7 N        1.896    -0.321    29.183     8.009
    16   6 C        3.202     0.060    26.106     8.325
    17   6 C        2.985    -0.004    28.105     8.696
    18   6 C        2.921    -0.034    28.837     8.806
    19   6 C        2.917    -0.032    28.801     8.800
    20   6 C        2.917    -0.035    28.863     8.810
    21   6 C        2.921    -0.037    28.913     8.818
    22   6 C        2.979    -0.005    28.149     8.703
    23   6 C        2.979    -0.002    28.071     8.691
    24   6 C        2.922    -0.035    28.879     8.813
    25   6 C        2.916    -0.035    28.861     8.810
    26   6 C        2.917    -0.033    28.815     8.802
    27   6 C        2.919    -0.041    29.030     8.835
    28   6 C        2.978    -0.005    28.153     8.703
    29   6 C        3.075     0.022    27.438     8.588
    30   7 N        2.839    -0.054    22.281     7.011
    31   6 C        2.911     0.056    26.755     8.482
    32   6 C        2.919    -0.038    28.950     8.823
    33   6 C        2.922    -0.047    29.167     8.856
    34   6 C        2.922     0.068    26.488     8.440
    35   7 N        2.752    -0.073    22.656     7.069
    36   6 C        2.924     0.064    26.575     8.454
    37   6 C        2.922    -0.047    29.163     8.856
    38   6 C        2.919    -0.029    28.731     8.790
    39   6 C        2.919    -0.037    28.925     8.820
    40   6 C        2.919    -0.029    28.726     8.789
    41   6 C        2.922    -0.046    29.146     8.853
    42   6 C        2.924     0.063    26.579     8.454
    43   6 C        2.922    -0.046    29.154     8.855
    44   6 C        2.919    -0.029    28.728     8.789
    45   6 C        2.919    -0.037    28.932     8.821
    46   6 C        2.919    -0.029    28.728     8.789
    47   6 C        2.922    -0.047    29.174     8.858
    48   6 C        2.922    -0.048    29.190     8.860
    49   6 C        2.919    -0.038    28.934     8.821
    50   6 C        2.920    -0.037    28.925     8.820
    51   6 C        2.923    -0.035    28.881     8.813
    52   6 C        2.924    -0.034    28.849     8.808
    53   6 C        2.920    -0.048    29.196     8.861
    54   6 C        2.925     0.064    26.560     8.451
    55   6 C        2.920    -0.048    29.180     8.858
    56   6 C        2.924    -0.034    28.855     8.809
    57   6 C        2.974     0.002    27.980     8.677
    58   6 C        2.975     0.012    27.739     8.639
    59   6 C        2.924    -0.036    28.889     8.814
    60   6 C        2.921    -0.036    28.900     8.816
    61   6 C        2.974    -0.004    28.129     8.700
    62   6 C        3.196     0.138    24.517     8.072
    63   7 N        1.893    -0.322    29.192     8.010
    64   6 C        3.208     0.060    26.067     8.313
    65   6 C        2.985    -0.003    28.101     8.696
    66   6 C        2.921    -0.034    28.840     8.807
    67   6 C        2.917    -0.032    28.801     8.800
    68   6 C        2.917    -0.035    28.864     8.810
    69   6 C        2.921    -0.037    28.913     8.818
    70   6 C        2.978    -0.005    28.151     8.703
    71   6 C        2.979    -0.002    28.071     8.691
    72   6 C        2.922    -0.035    28.878     8.813
    73   6 C        2.916    -0.035    28.861     8.810
    74   6 C        2.917    -0.033    28.817     8.803
    75   6 C        2.919    -0.041    29.031     8.836
    76   6 C        2.978    -0.005    28.151     8.703
    77   6 C        3.075     0.022    27.443     8.589
    78   7 N        2.840    -0.055    22.292     7.012
    79   6 C        2.912     0.055    26.756     8.482
    80   6 C        2.920    -0.038    28.957     8.824
    81   6 C        2.922    -0.046    29.149     8.854
    82   6 C        2.922     0.068    26.482     8.439
    83   7 N        2.752    -0.073    22.664     7.071
    84   6 C        2.924     0.064    26.575     8.454
    85   6 C        2.922    -0.046    29.149     8.854
    86   6 C        2.919    -0.029    28.727     8.789
    87   6 C        2.919    -0.037    28.930     8.820
    88   6 C        2.919    -0.029    28.732     8.790
    89   6 C        2.922    -0.047    29.174     8.858
    90   6 C        2.924     0.064    26.575     8.454
    91   6 C        2.922    -0.047    29.162     8.856
    92   6 C        2.919    -0.029    28.730     8.790
    93   6 C        2.919    -0.038    28.938     8.821
    94   6 C        2.919    -0.029    28.735     8.790
    95   6 C        2.922    -0.048    29.184     8.859
    96   6 C        2.922    -0.047    29.178     8.858
    97   6 C        2.919    -0.037    28.925     8.820
    98   6 C        2.924    -0.030    28.742     8.792
    99   6 C        2.923    -0.034    28.852     8.809
   100   6 C        2.924    -0.034    28.847     8.808
   101   6 C        2.920    -0.047    29.177     8.858
   102   6 C        2.922    -0.048    29.203     8.862
   103   6 C        2.919    -0.030    28.752     8.793
   104   1 H        0.926     0.031     2.566     2.505
   105   1 H        0.926     0.033     2.544     2.494
   106   1 H        0.926     0.032     2.564     2.504
   107   1 H        0.926     0.034     2.534     2.489
   108   1 H        0.926     0.037     2.488     2.467
   109   1 H        0.926     0.040     2.443     2.444
   110   1 H        0.926     0.045     2.378     2.412
   111   1 H        0.926     0.043     2.414     2.429
   112   1 H        0.926     0.032     2.558     2.501
   113   1 H        0.926     0.031     2.565     2.505
   114   1 H        0.926     0.034     2.529     2.487
   115   1 H        0.926     0.036     2.498     2.471
   116   1 H        0.926     0.032     2.555     2.500
   117   1 H        0.926     0.031     2.573     2.509
   118   1 H        0.926     0.028     2.613     2.528
   119   1 H        0.926     0.039     2.463     2.454
   120   1 H        0.926     0.045     2.383     2.414
   121   1 H        0.926     0.032     2.558     2.501
   122   1 H        0.926     0.035     2.510     2.477
   123   1 H        0.926     0.034     2.524     2.484
   124   1 H        0.926     0.036     2.501     2.473
   125   1 H        0.926     0.035     2.523     2.484
   126   1 H        0.926     0.034     2.535     2.490
   127   1 H        0.926     0.036     2.508     2.476
   128   1 H        0.926     0.034     2.524     2.484
   129   1 H        0.926     0.036     2.507     2.476
   130   1 H        0.926     0.033     2.547     2.496
   131   1 H        0.926     0.045     2.388     2.416
   132   1 H        0.926     0.041     2.433     2.439
   133   1 H        0.926     0.028     2.616     2.529
   134   1 H        0.926     0.038     2.481     2.463
   135   1 H        0.926     0.037     2.495     2.470
   136   1 H        0.926     0.035     2.521     2.483
   137   1 H        0.926     0.035     2.522     2.483
   138   1 H        0.926     0.038     2.480     2.463
   139   1 H        0.926     0.039     2.458     2.452
   140   1 H        0.926     0.028     2.620     2.531
   141   1 H        0.926     0.043     2.414     2.430
   142   1 H        0.926     0.032     2.559     2.502
   143   1 H        0.926     0.031     2.566     2.505
   144   1 H        0.926     0.034     2.528     2.487
   145   1 H        0.926     0.036     2.498     2.471
   146   1 H        0.926     0.032     2.556     2.500
   147   1 H        0.926     0.031     2.571     2.508
   148   1 H        0.926     0.028     2.608     2.525
   149   1 H        0.926     0.038     2.472     2.459
   150   1 H        0.926     0.045     2.382     2.414
   151   1 H        0.926     0.034     2.529     2.487
   152   1 H        0.926     0.036     2.505     2.475
   153   1 H        0.926     0.034     2.524     2.484
   154   1 H        0.926     0.036     2.504     2.475
   155   1 H        0.926     0.032     2.554     2.499
   156   1 H        0.926     0.034     2.527     2.486
   157   1 H        0.926     0.036     2.505     2.475
   158   1 H        0.926     0.034     2.530     2.488
   159   1 H        0.926     0.035     2.517     2.481
   160   1 H        0.926     0.031     2.567     2.506
   161   1 H        0.926     0.045     2.377     2.411
   162   1 H        0.926     0.042     2.417     2.431
   163   1 H        0.926     0.041     2.441     2.443
   164   1 H        0.926     0.042     2.425     2.435
   165   1 H        0.926     0.038     2.470     2.458
   166   1 H        0.926     0.035     2.523     2.484
   167   1 H        0.926     0.032     2.558     2.501
   168   1 H        0.926     0.033     2.543     2.494

molecular dipole:
                 x           y           z       tot (Debye)
 q only:        0.159      -1.318       2.418
   full:        0.181      -1.391       2.598       7.505

 projected vibrational frequencies (cm⁻¹)
eigval :       -0.00    -0.00    -0.00     0.00     0.00     0.00
eigval :        2.93     4.26     5.45     7.75     9.78    11.77
eigval :       12.47    14.78    17.95    19.16    19.73    22.43
eigval :       28.78    29.62    36.56    37.69    40.21    43.43
eigval :       48.08    50.75    52.43    54.38    60.36    62.06
eigval :       62.37    64.26    69.40    70.91    72.66    74.50
eigval :       77.07    78.31    82.82    84.88    86.78    88.21
eigval :       91.82   101.87   105.36   109.04   109.80   120.26
eigval :      129.19   142.18   149.08   151.40   162.12   163.15
eigval :      173.69   174.61   180.88   183.39   201.50   209.07
eigval :      212.55   215.50   225.63   230.75   233.69   234.19
eigval :      244.89   253.24   255.21   261.74   269.40   284.05
eigval :      292.84   297.19   305.38   307.12   309.79   312.75
eigval :      315.33   327.07   338.39   347.86   350.22   355.24
eigval :      365.45   366.36   373.19   374.42   377.98   378.28
eigval :      379.08   381.30   381.69   382.23   383.64   387.20
eigval :      388.92   389.38   390.65   396.05   396.89   400.54
eigval :      402.78   408.53   412.60   416.19   425.99   429.59
eigval :      434.30   441.68   446.61   448.21   456.80   457.76
eigval :      472.08   473.23   481.99   487.69   491.66   494.54
eigval :      498.28   500.00   502.74   517.40   519.68   523.02
eigval :      524.08   528.92   533.20   533.90   534.62   543.93
eigval :      550.72   581.68   583.31   584.77   584.94   586.65
eigval :      586.76   587.29   592.36   593.47   594.69   599.44
eigval :      602.92   608.35   610.26   612.60   617.17   621.89
eigval :      626.48   630.94   640.94   641.48   654.08   655.08
eigval :      659.96   661.06   661.67   664.04   664.29   670.18
eigval :      671.89   673.56   675.43   677.37   679.01   680.85
eigval :      682.99   685.12   687.75   691.27   704.52   707.82
eigval :      711.56   717.70   734.33   735.23   736.39   739.97
eigval :      749.80   757.38   757.83   758.11   760.98   762.77
eigval :      762.84   763.51   767.11   779.05   780.13   792.91
eigval :      798.34   803.53   806.66   820.09   820.95   828.95
eigval :      831.18   854.41   860.25   863.74   866.35   867.90
eigval :      868.32   869.35   870.24   871.52   872.90   873.35
eigval :      874.20   874.73   876.53   878.91   889.84   892.18
eigval :      893.25   895.88   896.57   901.24   904.08   909.00
eigval :      909.55   910.01   910.69   911.16   911.16   911.86
eigval :      911.93   913.33   913.96   914.57   918.11   918.62
eigval :      918.77   920.54   920.82   922.26   923.09   923.42
eigval :      924.84   925.10   925.87   926.11   927.37   927.67
eigval :      928.38   928.98   929.13   929.66   930.40   931.12
eigval :      931.22   933.64   935.82   939.61   940.09   960.93
eigval :      964.64   980.96   984.20   990.00  1001.77  1002.66
eigval :     1004.55  1004.69  1012.15  1013.05  1016.74  1020.61
eigval :     1032.08  1033.69  1069.76  1069.93  1077.76  1081.26
eigval :     1081.61  1081.72  1082.69  1082.82  1083.74  1084.78
eigval :     1084.86  1106.63  1106.75  1120.10  1120.39  1121.82
eigval :     1122.41  1123.46  1131.82  1133.31  1133.80  1134.09
eigval :     1136.82  1137.53  1143.64  1149.67  1151.32  1151.83
eigval :     1173.07  1174.02  1178.37  1178.87  1179.80  1180.63
eigval :     1180.72  1180.83  1180.95  1181.82  1181.87  1184.14
eigval :     1184.31  1184.73  1188.80  1188.91  1193.31  1193.59
eigval :     1194.14  1195.19  1200.52  1204.51  1206.20  1206.32
eigval :     1214.24  1214.80  1218.13  1252.13  1252.46  1255.82
eigval :     1256.37  1261.19  1262.95  1267.10  1268.39  1271.27
eigval :     1275.33  1276.40  1276.51  1276.80  1280.27  1280.44
eigval :     1282.09  1282.14  1284.52  1287.71  1301.11  1301.93
eigval :     1304.83  1306.15  1310.33  1311.62  1312.69  1316.25
eigval :     1316.90  1318.69  1320.11  1321.56  1322.04  1322.14
eigval :     1323.55  1323.83  1324.47  1324.75  1328.95  1332.13
eigval :     1335.58  1338.61  1338.78  1348.44  1349.54  1381.89
eigval :     1382.17  1394.83  1397.17  1406.20  1406.25  1411.05
eigval :     1413.48  1413.84  1417.54  1419.77  1420.19  1430.95
eigval :     1431.19  1434.19  1434.60  1435.13  1435.98  1438.11
eigval :     1441.06  1441.52  1459.11  1460.45  1469.74  1469.97
eigval :     1471.18  1472.21  1472.33  1481.62  1482.53  1493.23
eigval :     1494.59  1512.52  1513.01  1513.20  1516.12  1536.65
eigval :     1543.50  1549.94  1552.79  1553.90  1554.72  1558.42
eigval :     1560.10  1563.79  1564.63  1568.32  1568.79  1576.96
eigval :     1576.98  1577.34  1580.81  1580.82  1583.36  1587.02
eigval :     1591.07  1591.24  1591.30  1591.41  1593.32  1593.40
eigval :     1594.38  1598.44  1598.71  1600.71  1602.88  1603.26
eigval :     1603.98  3068.93  3068.95  3071.17  3071.18  3071.97
eigval :     3072.08  3073.12  3073.63  3073.96  3074.61  3074.95
eigval :     3075.14  3075.41  3075.82  3076.07  3076.63  3077.61
eigval :     3078.15  3078.81  3078.84  3079.06  3079.62  3080.91
eigval :     3081.07  3081.27  3081.70  3082.41  3082.60  3082.79
eigval :     3083.15  3083.42  3084.67  3084.74  3084.96  3085.28
eigval :     3085.64  3086.60  3086.65  3087.33  3087.78  3088.07
eigval :     3089.80  3090.56  3091.24  3091.88  3093.93  3094.99
eigval :     3095.24  3095.43  3095.44  3095.69  3095.82  3096.47
eigval :     3096.56  3096.88  3097.66  3097.76  3098.44  3099.28
eigval :     3099.72  3100.32  3108.98  3109.38  3114.82  3119.06

   temp. (K)  partition function   enthalpy   heat capacity  entropy
                                   cal/mol     cal/K/mol   cal/K/mol   J/K/mol
 298.15  VIB  0.436E+44            50093.493    307.952    321.423
         ROT  0.157E+10              888.752      2.981     45.062
         INT  0.685E+53            50982.245    310.933    366.485
         TR   0.462E+29             1481.254      4.968     47.380
         TOT                       52463.4993   315.9015   413.8645  1731.6089

       T/K    H(0)-H(T)+PV         H(T)/Eh          T*S/Eh         G(T)/Eh
   ------------------------------------------------------------------------
    298.15    0.836059E-01    0.138097E+01    0.196640E+00    0.118433E+01
   ------------------------------------------------------------------------

         :::::::::::::::::::::::::::::::::::::::::::::::::::::
         ::                  THERMODYNAMIC                  ::
         :::::::::::::::::::::::::::::::::::::::::::::::::::::
         :: total free energy        -258.240894671460 Eh   ::
         ::.................................................::
         :: total energy             -259.425224991755 Eh   ::
         :: zero point energy           1.297364769551 Eh   ::
         :: G(RRHO) w/o ZPVE           -0.113034449256 Eh   ::
         :: G(RRHO) contrib.            1.184330320295 Eh   ::
         :::::::::::::::::::::::::::::::::::::::::::::::::::::

           -------------------------------------------------
          | TOTAL ENERGY             -259.425224991755 Eh   |
          | TOTAL ENTHALPY           -258.044254314314 Eh   |
          | TOTAL FREE ENERGY        -258.240894671460 Eh   |
          | GRADIENT NORM               0.000053041245 Eh/α |
          | HOMO-LUMO GAP               2.269764074060 eV   |
           -------------------------------------------------

 * finished run on 2025/09/07 at 08:24:58.235
