   * xtb version 6.7.1 (edcfbbe) compiled by 'albert@albert-system' on 2024-07-22

   ID    Z sym.   atoms
    1    6 C      1-4, 6-14, 16-29, 31-34, 36-62, 64-77, 79-82, 84-103
    2    7 N      5, 15, 30, 35, 63, 78, 83
    3    1 H      104-168

          program call               : xtb data2507/toluene/TPA–2PPITPA/TPA–2PPITPA_toluene_S0_finalOpt.xtbopt.xyz --gfn 2 --uhf 2 --gbsa toluene --ohess vtight --parallel 40 --molden --ceasefiles --namespace data2507/toluene/TPA–2PPITPA/TPA–2PPITPA_toluene_T1_preOpt
      * Solvation model:               GBSA
        Solvent                        toluene
        Solvent mass                       9.2140E+01 g/mol
          :  Hamiltonian                  GFN2-xTB          :
 * total energy  :  -259.3357496 Eh     change        0.8410950E-08 Eh
 * total energy  :  -259.3384547 Eh     change       -0.2705136E-02 Eh
 * total energy  :  -259.3398564 Eh     change       -0.1401688E-02 Eh
 * total energy  :  -259.3403289 Eh     change       -0.4725073E-03 Eh
 * total energy  :  -259.3411777 Eh     change       -0.8487772E-03 Eh
 * total energy  :  -259.3419102 Eh     change       -0.7325525E-03 Eh
 * total energy  :  -259.3424648 Eh     change       -0.5545255E-03 Eh
 * total energy  :  -259.3427587 Eh     change       -0.2939453E-03 Eh
 * total energy  :  -259.3429467 Eh     change       -0.1879750E-03 Eh
 * total energy  :  -259.3430977 Eh     change       -0.1510601E-03 Eh
 * total energy  :  -259.3444726 Eh     change       -0.1264711E-05 Eh
 * total energy  :  -259.3444740 Eh     change       -0.1405918E-05 Eh
 * total energy  :  -259.3444757 Eh     change       -0.1645473E-05 Eh
 * total energy  :  -259.3444771 Eh     change       -0.1488873E-05 Eh
 * total energy  :  -259.3444783 Eh     change       -0.1163882E-05 Eh
 * total energy  :  -259.3444793 Eh     change       -0.9923613E-06 Eh
 * total energy  :  -259.3444804 Eh     change       -0.1131558E-05 Eh
 * total energy  :  -259.3444819 Eh     change       -0.1437350E-05 Eh
 * total energy  :  -259.3444819 Eh     change       -0.1596283E-07 Eh
   *** GEOMETRY OPTIMIZATION CONVERGED AFTER 152 ITERATIONS ***

 final structure:
================
168
 xtb: 6.7.1 (edcfbbe)
C            0.48645869216717        8.42873082797754       -2.96727588321477
C           -0.58736542472320        7.73560155166741       -3.50481013772760
C           -0.81327631714011        6.41802297200476       -3.15715401546227
C            0.03899789766109        5.77593909033086       -2.25738695521767
N           -0.19009540701154        4.44173382855826       -1.89782482685511
C            0.88716099180814        3.57476195143649       -1.72340334660709
C            0.84555412466361        2.57886270266600       -0.74040048127596
C            1.89691507231131        1.70544432399834       -0.58730140406684
C            3.03721890297467        1.79488459609511       -1.39287151014655
C            4.15049203185892        0.86436838027525       -1.21049360721028
C            3.91867833982725       -0.48068471253591       -0.90745264637219
C            4.96591769521238       -1.34844934902277       -0.69068812885846
C            6.28674039792056       -0.89778917543467       -0.74455120684058
C            7.35881761865555       -1.83074905713837       -0.44340530902688
N            7.36829190559829       -3.08592338717640       -0.82404310145557
C            8.52721826697987       -3.61088033209715       -0.34342337796274
C            9.02239341846857       -4.93370413491249       -0.51613405822736
C            8.31599458324290       -5.88150263490152       -1.26528629968308
C            8.82194629781658       -7.14513995142449       -1.44290844990969
C           10.04952524291823       -7.47619347882376       -0.87172332709425
C           10.75038101269145       -6.55459205899779       -0.12905352797064
C           10.26321388673509       -5.25492820001358        0.08203704336329
C           10.96553977131231       -4.26951980553961        0.88634069328099
C           12.16260100453357       -4.57760150887313        1.54932444405729
C           12.81340066382598       -3.66416384487135        2.34478858862893
C           12.28090532194790       -2.39096483083227        2.52584441974938
C           11.11504135322230       -2.04593656732523        1.88815648264698
C           10.44817175862532       -2.95448874944192        1.05260130808378
C            9.23805444068479       -2.64633633107800        0.37075459344527
N            8.47964962668847       -1.50058981877401        0.28829474539855
C            8.69554765201758       -0.22371018054644        0.84620896783671
C            9.76729209407910        0.56534698535555        0.43681194076798
C            9.90174529479335        1.85184749980602        0.91536269673373
C            8.96204440894894        2.38102458670786        1.80437292814195
N            9.05761944076491        3.70025408168137        2.24340510079473
C            7.89028122903315        4.46219288085368        2.40262766272224
C            7.77935522548996        5.38114165520964        3.44514379331385
C            6.62749321930252        6.13123080907183        3.59017060583813
C            5.56913571120313        5.97203139171974        2.71004514448359
C            5.67319654678745        5.05711726156557        1.67451827330314
C            6.82474441572179        4.31073884552016        1.51519040603803
C           10.31271116440561        4.27343118734097        2.49096860749562
C           11.32648094179847        3.51784782285041        3.07979671599769
C           12.56400113203422        4.08233340282817        3.32266451036099
C           12.80803588636581        5.40593552201809        2.99305511450879
C           11.80231750536737        6.16217651148871        2.41284137249153
C           10.56440322786309        5.60369089729211        2.15726641228109
C            7.90727526032685        1.57081119418872        2.23230201025608
C            7.77437486908413        0.28423099668422        1.75682844068240
C            6.52502947580942        0.43322518404891       -1.09212053524923
C            5.47445884093632        1.29404084083990       -1.32495186289001
C            3.07955182455482        2.80390616035779       -2.36045937940092
C            2.02584326386933        3.67324192330641       -2.53091753862991
C           -1.48546386485949        3.98632033010994       -1.70145337399581
C           -2.47769991424771        4.82151635714224       -1.15485881177960
C           -3.73674698738763        4.34972220288657       -0.91066257346500
C           -4.11540165262915        3.01273968258600       -1.20788613075736
C           -5.40985610393990        2.49894941549155       -0.90703930744747
C           -6.31814437150953        3.17045508356591       -0.03590032763828
C           -7.50908783501556        2.62546719097354        0.32315113390708
C           -7.91533921371445        1.33841020757863       -0.13671727964903
C           -9.12168835350502        0.80660962213512        0.35473308927644
N          -10.04760918186536        1.56090425945690        0.96124318523270
C          -11.07262772440524        0.75162145692727        1.24266673010828
C          -12.31217481621965        1.10271629152337        1.85343088427539
C          -12.59133987784659        2.42746726166662        2.20111919293487
C          -13.80048073716466        2.76154235620379        2.76476905962052
C          -14.74862973594930        1.76489004282026        2.97912451636080
C          -14.48279819902541        0.45533043343383        2.64461167742313
C          -13.25676770954225        0.07376840727858        2.07836714327586
C          -12.93391919520571       -1.30166213540010        1.74417182271231
C          -13.81407890437547       -2.35159650576293        2.03104570281694
C          -13.50970358231921       -3.66459262633115        1.75059018770354
C          -12.28183225872257       -3.98678948779921        1.17354300384866
C          -11.39079127403110       -2.99054619874196        0.87130324189661
C          -11.68645016135313       -1.63680214924647        1.12781805311758
C          -10.79736433770789       -0.57630653161206        0.84301719069950
N           -9.54933424814366       -0.52833061250091        0.26879416654489
C           -8.76084152223528       -1.59610668501851       -0.19536419398060
C           -7.58927612348543       -1.93445270978070        0.47955757270050
C           -6.79349946548317       -2.96115565558620        0.02011882822102
C           -7.14252293846703       -3.67198728228837       -1.13205133724787
N           -6.33197996292871       -4.70097091487759       -1.60486325686936
C           -4.93804550084221       -4.62584856353867       -1.46879949233990
C           -4.19626496379745       -5.77081051028548       -1.17920791194443
C           -2.82164620520183       -5.69694103264439       -1.05872067178706
C           -2.16711097568205       -4.48559759818776       -1.21410673022664
C           -2.90027866177043       -3.34428942482007       -1.49728381288271
C           -4.27404206649132       -3.40990173521744       -1.62959443402436
C           -6.90574450944687       -5.82295191108087       -2.22215829639266
C           -8.08499104101975       -6.37749002640464       -1.72545628435745
C           -8.64475035721875       -7.48337110069957       -2.33619376779854
C           -8.03673805777342       -8.05717805004975       -3.44135553458905
C           -6.86221105394904       -7.51257532123502       -3.93556776830580
C           -6.29925232180347       -6.40189420538785       -3.33642652859303
C           -8.32031446465661       -3.32792134373624       -1.80391950378946
C           -9.12055822558720       -2.30565568189294       -1.34095572346531
C           -7.06718992311902        0.71396225583072       -1.09183742488826
C           -5.87974389453929        1.26978780992638       -1.45260452142158
C           -3.10843346597782        2.20257570789415       -1.79888620588666
C           -1.84417873826864        2.66490386787475       -2.02807204465128
C            1.11805785406686        6.47771806680936       -1.71754499502331
C            1.33690219655440        7.79379565838818       -2.07510400569841
H            0.65958198853052        9.45793773290482       -3.24274128305291
H           -1.24954976386662        8.22227251767113       -4.20540075970585
H           -1.64093167390400        5.87186818984370       -3.58529694252508
H           -0.01427052694064        2.51293700544162       -0.09010142750463
H            1.85477438165151        0.95977289633292        0.19236315265535
H            2.90449278479738       -0.84857579453883       -0.85923209494911
H            4.78391761949397       -2.38766081748302       -0.46114541953737
H            7.37340087622195       -5.58144714493000       -1.69752394906971
H            8.27925442471716       -7.87775083666146       -2.02227456746547
H           10.45593481244866       -8.46741432854614       -1.01370333342738
H           11.69705258099675       -6.85549370455229        0.29088916109706
H           12.59356033157032       -5.56047106121972        1.44756165827623
H           13.73342698942326       -3.94000458640952        2.83917594842357
H           12.77994266303541       -1.67885675645777        3.16664918321288
H           10.69529235087734       -1.06441334969546        2.04074724175391
H           10.48024135666671        0.17076613923457       -0.27286833066216
H           10.72487512544142        2.46563420432867        0.58191491226606
H            8.59855461635881        5.50036995137337        4.13910980418590
H            6.55325548997460        6.83866085679972        4.40321366065275
H            4.66971728512647        6.55677436412182        2.83109131646782
H            4.85555291166753        4.92601839635558        0.98065710276407
H            6.90648345685176        3.60365008683266        0.70313158246899
H           11.13459820420162        2.48943246055084        3.34957840274012
H           13.34017715488249        3.48661743493320        3.78072793681216
H           13.77486281992839        5.84499554765622        3.18810486490282
H           11.98518089001063        7.19341131225288        2.14818442094298
H            9.78529972337131        6.19311248958584        1.69645184715986
H            7.18737915278660        1.96139329080127        2.93526770909985
H            6.95255474733615       -0.33556890233541        2.08339279593783
H            7.53826800022713        0.79222880790952       -1.19399733503177
H            5.68080233422558        2.32413916384210       -1.57528109488434
H            3.93693237008219        2.87977578621127       -3.01238791852191
H            2.06459952733903        4.42667612408960       -3.30386652530709
H           -2.22552250857173        5.84108706181306       -0.90086243691914
H           -4.46234684280408        5.02562791246644       -0.48732591722948
H           -6.04132290168974        4.12274363528140        0.38873532683206
H           -8.17179374004304        3.13719465225612        1.00402188693616
H          -11.83164393832230        3.16965336347081        2.00815811982815
H          -14.01690438834977        3.78489375278162        3.03375103154266
H          -15.70497091815218        2.01939115638219        3.41343296000219
H          -15.25074478128146       -0.27978122643237        2.82598748027010
H          -14.76366839751427       -2.14100950904904        2.49636973643366
H          -14.21742861215880       -4.44526333102252        1.98742845106006
H          -12.03224597683191       -5.01784770015875        0.96953253682586
H          -10.43648566048681       -3.24498885188205        0.44061510929257
H           -7.31409367969275       -1.38670726406458        1.36871583609715
H           -5.89500340208501       -3.22512756615610        0.55706811295604
H           -4.70494172504553       -6.71478835066422       -1.04882787241518
H           -2.25907891261656       -6.59104871854090       -0.83304000179021
H           -1.09341169896193       -4.43186115345480       -1.11575592981298
H           -2.39765882725171       -2.39673504250992       -1.62459838147244
H           -4.84264912268395       -2.52156468577172       -1.86124007384148
H           -8.55350373830422       -5.93934931447137       -0.85619744276699
H           -9.55727514644575       -7.90485990818702       -1.94041800892740
H           -8.47495600638083       -8.92353895635259       -3.91352898705677
H           -6.38411176825903       -7.95075257955893       -4.79946485416641
H           -5.38761317327492       -5.97405546948604       -3.72725503106805
H           -8.59717765953432       -3.86094766589784       -2.70101127564834
H          -10.02333140306910       -2.03740927584433       -1.87064534976959
H           -7.39173902032588       -0.19281148008785       -1.57762865335749
H           -5.29932968844921        0.77739007501637       -2.21774969680761
H           -3.33285634698012        1.18072538789823       -2.05879183071380
H           -1.10626916404891        2.01759475455165       -2.47993679994760
H            1.77096996027298        5.98677631075336       -1.01126819502787
H            2.17130947290015        8.33019046722478       -1.64812390173261

          :  Hamiltonian                  GFN2-xTB          :
         :: gradient norm              0.000054674891 Eh/a0 ::
         :: HOMO-LUMO gap              0.226843674206 eV    ::
         :: SCC energy              -264.204346402890 Eh    ::
         :: -> dispersion             -0.251658993018 Eh    ::
         :: -> Gsolv                  -0.110323978191 Eh    ::
         :: repulsion energy           4.859864512225 Eh    ::

    * Orbital Energies and Occupations

         #    Occupation            Energy/Eh            Energy/eV
      -------------------------------------------------------------
         1        2.0000           -0.6864418             -18.6790
       ...           ...                  ...                  ...
       231        2.0000           -0.3976351             -10.8202
       232        2.0000           -0.3959019             -10.7730
       233        2.0000           -0.3855796             -10.4922
       234        2.0000           -0.3827775             -10.4159
       235        2.0000           -0.3806764             -10.3587
       236        2.0000           -0.3791694             -10.3177
       237        2.0000           -0.3737388             -10.1700
       238        2.0000           -0.3655801              -9.9479
       239        2.0000           -0.3605520              -9.8111
       240        1.9934           -0.3553279              -9.6690
       241        1.9889           -0.3548347              -9.6555
       242        1.0178           -0.3467593              -9.4358
       243        0.9877           -0.2728103              -7.4235 (HOMO)
       244        0.0123           -0.2644747              -7.1967 (LUMO)
       245                         -0.2518581              -6.8534
       246                         -0.2499313              -6.8010
       247                         -0.2485690              -6.7639
       248                         -0.2467969              -6.7157
       249                         -0.2414930              -6.5714
       250                         -0.2401514              -6.5349
       251                         -0.2399353              -6.5290
       252                         -0.2371516              -6.4532
       253                         -0.2339799              -6.3669
       254                         -0.2338900              -6.3645
       ...                                ...                  ...
       477                          0.7292611              19.8442
      -------------------------------------------------------------
                  HL-Gap            0.0083356 Eh            0.2268 eV

     #   Z          covCN         q      C6AA      α(0)
     1   6 C        2.919    -0.032    28.797     8.800
     2   6 C        2.919    -0.027    28.670     8.780
     3   6 C        2.921    -0.041    29.016     8.834
     4   6 C        2.927     0.063    26.594     8.457
     5   7 N        2.752    -0.032    21.855     6.943
     6   6 C        2.927     0.058    26.692     8.473
     7   6 C        2.919    -0.043    29.073     8.842
     8   6 C        2.923    -0.033    28.827     8.805
     9   6 C        2.975     0.007    27.863     8.659
    10   6 C        2.975     0.010    27.793     8.648
    11   6 C        2.923    -0.035    28.863     8.810
    12   6 C        2.924    -0.030    28.758     8.794
    13   6 C        2.973    -0.006    28.160     8.704
    14   6 C        3.193     0.137    24.560     8.082
    15   7 N        1.892    -0.322    29.207     8.012
    16   6 C        3.207     0.060    26.066     8.314
    17   6 C        2.985    -0.004    28.110     8.697
    18   6 C        2.921    -0.034    28.842     8.807
    19   6 C        2.917    -0.032    28.808     8.801
    20   6 C        2.917    -0.035    28.865     8.810
    21   6 C        2.921    -0.037    28.917     8.818
    22   6 C        2.978    -0.005    28.153     8.704
    23   6 C        2.979    -0.003    28.084     8.693
    24   6 C        2.922    -0.035    28.880     8.813
    25   6 C        2.916    -0.035    28.871     8.811
    26   6 C        2.916    -0.033    28.822     8.804
    27   6 C        2.919    -0.042    29.034     8.836
    28   6 C        2.978    -0.006    28.165     8.705
    29   6 C        3.071     0.022    27.447     8.590
    30   7 N        2.840    -0.055    22.298     7.013
    31   6 C        2.912     0.056    26.738     8.479
    32   6 C        2.919    -0.038    28.946     8.823
    33   6 C        2.922    -0.047    29.168     8.857
    34   6 C        2.924     0.067    26.494     8.441
    35   7 N        2.752    -0.072    22.643     7.067
    36   6 C        2.924     0.063    26.578     8.454
    37   6 C        2.922    -0.047    29.160     8.855
    38   6 C        2.919    -0.029    28.732     8.790
    39   6 C        2.919    -0.038    28.936     8.821
    40   6 C        2.919    -0.029    28.719     8.788
    41   6 C        2.922    -0.048    29.186     8.859
    42   6 C        2.923     0.064    26.573     8.454
    43   6 C        2.922    -0.048    29.185     8.859
    44   6 C        2.919    -0.029    28.734     8.790
    45   6 C        2.919    -0.038    28.941     8.822
    46   6 C        2.919    -0.029    28.731     8.790
    47   6 C        2.922    -0.047    29.167     8.857
    48   6 C        2.923    -0.046    29.131     8.851
    49   6 C        2.921    -0.039    28.958     8.825
    50   6 C        2.920    -0.036    28.908     8.817
    51   6 C        2.923    -0.036    28.885     8.814
    52   6 C        2.922    -0.033    28.825     8.804
    53   6 C        2.918    -0.044    29.103     8.847
    54   6 C        2.926     0.050    26.888     8.504
    55   6 C        2.913    -0.045    29.113     8.848
    56   6 C        2.919    -0.039    28.963     8.825
    57   6 C        2.967     0.005    27.913     8.666
    58   6 C        2.968    -0.004    28.125     8.699
    59   6 C        2.915    -0.040    28.983     8.828
    60   6 C        2.920    -0.037    28.923     8.819
    61   6 C        2.968    -0.017    28.441     8.748
    62   6 C        3.148     0.131    24.894     8.162
    63   7 N        1.884    -0.330    29.411     8.040
    64   6 C        3.177     0.076    25.922     8.313
    65   6 C        2.984    -0.008    28.202     8.711
    66   6 C        2.922    -0.031    28.775     8.797
    67   6 C        2.916    -0.034    28.851     8.808
    68   6 C        2.917    -0.032    28.808     8.802
    69   6 C        2.921    -0.037    28.929     8.820
    70   6 C        2.977    -0.004    28.125     8.699
    71   6 C        2.978    -0.006    28.161     8.705
    72   6 C        2.921    -0.035    28.872     8.811
    73   6 C        2.916    -0.037    28.921     8.819
    74   6 C        2.915    -0.034    28.855     8.809
    75   6 C        2.918    -0.041    29.030     8.835
    76   6 C        2.974    -0.013    28.328     8.730
    77   6 C        3.044     0.032    27.249     8.562
    78   7 N        2.823    -0.070    22.599     7.061
    79   6 C        2.909     0.060    26.662     8.467
    80   6 C        2.920    -0.038    28.947     8.823
    81   6 C        2.921    -0.046    29.151     8.854
    82   6 C        2.922     0.065    26.538     8.448
    83   7 N        2.752    -0.070    22.597     7.060
    84   6 C        2.924     0.064    26.575     8.454
    85   6 C        2.922    -0.046    29.152     8.854
    86   6 C        2.919    -0.029    28.724     8.789
    87   6 C        2.919    -0.037    28.923     8.819
    88   6 C        2.919    -0.029    28.720     8.788
    89   6 C        2.922    -0.047    29.157     8.855
    90   6 C        2.924     0.064    26.570     8.453
    91   6 C        2.922    -0.046    29.151     8.854
    92   6 C        2.919    -0.029    28.726     8.789
    93   6 C        2.919    -0.037    28.917     8.818
    94   6 C        2.919    -0.029    28.722     8.788
    95   6 C        2.922    -0.046    29.139     8.852
    96   6 C        2.921    -0.048    29.190     8.860
    97   6 C        2.919    -0.039    28.974     8.827
    98   6 C        2.911    -0.045    29.114     8.848
    99   6 C        2.917    -0.039    28.969     8.826
   100   6 C        2.920    -0.039    28.979     8.828
   101   6 C        2.914    -0.045    29.110     8.847
   102   6 C        2.921    -0.042    29.038     8.837
   103   6 C        2.919    -0.027    28.673     8.781
   104   1 H        0.926     0.040     2.443     2.444
   105   1 H        0.926     0.041     2.430     2.438
   106   1 H        0.926     0.041     2.431     2.438
   107   1 H        0.926     0.041     2.436     2.441
   108   1 H        0.926     0.042     2.426     2.436
   109   1 H        0.926     0.041     2.436     2.440
   110   1 H        0.926     0.041     2.442     2.444
   111   1 H        0.926     0.043     2.414     2.430
   112   1 H        0.926     0.032     2.563     2.503
   113   1 H        0.926     0.031     2.571     2.507
   114   1 H        0.926     0.034     2.536     2.490
   115   1 H        0.926     0.036     2.508     2.476
   116   1 H        0.926     0.031     2.565     2.505
   117   1 H        0.926     0.031     2.576     2.510
   118   1 H        0.926     0.029     2.604     2.523
   119   1 H        0.926     0.043     2.409     2.427
   120   1 H        0.926     0.045     2.377     2.411
   121   1 H        0.926     0.034     2.531     2.488
   122   1 H        0.926     0.036     2.508     2.477
   123   1 H        0.926     0.035     2.520     2.483
   124   1 H        0.926     0.035     2.514     2.479
   125   1 H        0.926     0.032     2.552     2.498
   126   1 H        0.926     0.031     2.567     2.506
   127   1 H        0.926     0.035     2.521     2.483
   128   1 H        0.926     0.034     2.535     2.490
   129   1 H        0.926     0.036     2.507     2.476
   130   1 H        0.926     0.035     2.520     2.482
   131   1 H        0.926     0.045     2.381     2.413
   132   1 H        0.926     0.038     2.474     2.460
   133   1 H        0.926     0.025     2.653     2.547
   134   1 H        0.926     0.038     2.472     2.459
   135   1 H        0.926     0.042     2.428     2.437
   136   1 H        0.926     0.040     2.450     2.448
   137   1 H        0.926     0.034     2.533     2.489
   138   1 H        0.926     0.035     2.511     2.478
   139   1 H        0.926     0.031     2.574     2.509
   140   1 H        0.926     0.038     2.474     2.460
   141   1 H        0.926     0.043     2.411     2.428
   142   1 H        0.926     0.032     2.552     2.498
   143   1 H        0.926     0.033     2.549     2.496
   144   1 H        0.926     0.034     2.528     2.487
   145   1 H        0.926     0.034     2.526     2.485
   146   1 H        0.926     0.030     2.587     2.515
   147   1 H        0.926     0.029     2.607     2.525
   148   1 H        0.926     0.027     2.629     2.535
   149   1 H        0.926     0.037     2.490     2.468
   150   1 H        0.926     0.044     2.398     2.422
   151   1 H        0.926     0.034     2.529     2.487
   152   1 H        0.926     0.036     2.498     2.472
   153   1 H        0.926     0.036     2.508     2.477
   154   1 H        0.926     0.037     2.494     2.470
   155   1 H        0.926     0.033     2.550     2.497
   156   1 H        0.926     0.032     2.558     2.501
   157   1 H        0.926     0.036     2.505     2.475
   158   1 H        0.926     0.035     2.514     2.479
   159   1 H        0.926     0.037     2.489     2.467
   160   1 H        0.926     0.035     2.512     2.479
   161   1 H        0.926     0.043     2.404     2.425
   162   1 H        0.926     0.040     2.444     2.445
   163   1 H        0.926     0.017     2.782     2.608
   164   1 H        0.926     0.028     2.617     2.530
   165   1 H        0.926     0.035     2.514     2.480
   166   1 H        0.926     0.035     2.520     2.483
   167   1 H        0.926     0.041     2.431     2.438
   168   1 H        0.926     0.042     2.416     2.431

molecular dipole:
                 x           y           z       tot (Debye)
 q only:        2.819       1.888      -0.664
   full:        2.992       1.623      -0.500       8.744

 projected vibrational frequencies (cm⁻¹)
eigval :       -0.00    -0.00    -0.00     0.00     0.00     0.00
eigval :       -2.43     2.50     3.43     4.70     9.19    11.22
eigval :       12.44    14.05    15.63    18.12    19.56    21.96
eigval :       24.20    30.05    37.03    38.02    41.46    42.78
eigval :       46.63    50.43    50.70    54.02    58.63    60.25
eigval :       60.70    63.55    65.92    71.04    71.88    73.77
eigval :       78.34    79.69    83.17    85.43    88.08    90.96
eigval :       96.40   101.18   109.99   111.48   112.64   121.64
eigval :      134.13   141.05   147.91   154.02   157.89   162.97
eigval :      170.61   172.88   180.10   181.50   205.50   212.20
eigval :      213.49   218.24   226.96   230.55   232.71   232.91
eigval :      242.22   246.46   257.30   260.53   263.52   282.56
eigval :      286.71   299.33   305.42   305.59   306.07   308.14
eigval :      319.05   324.29   334.08   345.53   346.92   353.90
eigval :      356.71   362.42   372.28   374.38   375.38   376.50
eigval :      376.72   377.76   379.84   380.69   381.79   382.96
eigval :      388.51   389.52   390.08   392.78   395.46   396.46
eigval :      400.13   404.14   409.96   415.41   418.41   429.22
eigval :      436.70   437.88   439.00   444.19   449.77   453.39
eigval :      456.44   470.08   472.05   482.20   488.07   491.18
eigval :      493.55   498.37   503.04   505.55   508.86   517.47
eigval :      522.88   523.79   528.41   528.72   533.21   536.86
eigval :      545.81   580.51   580.96   583.14   584.46   585.62
eigval :      586.05   586.78   587.98   591.88   591.96   595.57
eigval :      599.09   603.51   604.37   611.13   614.24   618.70
eigval :      623.20   626.51   628.26   641.83   642.23   650.71
eigval :      653.33   658.81   659.55   659.73   661.83   662.46
eigval :      662.62   666.13   670.81   671.42   672.42   674.03
eigval :      675.09   678.98   683.14   684.91   690.39   700.98
eigval :      708.41   715.38   727.84   730.37   733.70   738.32
eigval :      745.34   755.58   756.12   756.44   759.51   760.12
eigval :      762.21   763.26   764.91   773.82   780.44   786.26
eigval :      791.01   796.30   801.41   804.24   809.43   819.63
eigval :      821.31   824.43   829.28   852.47   858.29   861.66
eigval :      865.44   866.97   868.37   870.24   871.66   873.16
eigval :      873.25   874.08   875.83   879.00   891.77   892.04
eigval :      893.26   893.35   896.64   897.18   899.87   902.67
eigval :      904.39   906.73   907.64   908.97   909.20   909.44
eigval :      909.91   910.91   911.15   911.82   912.01   912.59
eigval :      914.34   914.69   915.16   919.64   920.15   922.48
eigval :      922.63   924.39   924.69   924.76   925.76   926.38
eigval :      926.55   927.12   927.56   927.70   929.26   930.08
eigval :      930.09   931.07   932.99   933.09   939.02   944.22
eigval :      954.66   961.37   978.97   984.72   986.05   998.64
eigval :     1000.65  1003.98  1004.26  1004.53  1011.30  1014.89
eigval :     1015.55  1028.89  1030.36  1062.70  1069.53  1073.51
eigval :     1080.42  1081.19  1081.35  1082.44  1083.47  1083.55
eigval :     1084.92  1101.10  1104.11  1106.32  1120.17  1120.26
eigval :     1121.43  1122.77  1123.05  1132.08  1133.10  1133.31
eigval :     1134.11  1136.39  1138.93  1146.65  1151.04  1157.39
eigval :     1158.40  1167.48  1172.68  1176.47  1177.55  1178.64
eigval :     1179.45  1179.70  1180.66  1181.09  1181.36  1181.62
eigval :     1181.86  1184.19  1186.64  1188.34  1189.00  1192.04
eigval :     1193.79  1194.19  1195.94  1201.71  1204.50  1207.13
eigval :     1214.48  1214.86  1227.65  1241.57  1251.67  1253.00
eigval :     1253.51  1256.06  1262.19  1262.62  1263.12  1265.86
eigval :     1270.68  1275.44  1276.25  1276.56  1276.64  1279.67
eigval :     1280.72  1281.33  1281.58  1282.22  1289.47  1294.96
eigval :     1299.96  1303.62  1304.56  1306.96  1308.39  1310.98
eigval :     1312.25  1313.83  1317.82  1320.90  1321.06  1322.13
eigval :     1323.27  1323.88  1324.34  1325.12  1327.39  1334.99
eigval :     1335.26  1338.40  1339.04  1340.73  1346.03  1364.47
eigval :     1379.69  1387.90  1396.55  1399.99  1404.37  1405.54
eigval :     1411.70  1414.24  1415.97  1417.28  1418.52  1425.63
eigval :     1430.02  1431.96  1433.85  1434.37  1435.21  1436.74
eigval :     1439.15  1441.00  1441.42  1446.47  1452.68  1455.64
eigval :     1458.77  1467.93  1468.46  1469.80  1470.63  1472.38
eigval :     1476.40  1477.81  1483.42  1489.11  1491.05  1507.51
eigval :     1511.59  1516.76  1523.74  1534.96  1537.78  1540.75
eigval :     1542.11  1542.72  1547.74  1553.99  1559.99  1565.03
eigval :     1566.54  1569.73  1571.80  1575.17  1576.19  1579.18
eigval :     1580.14  1581.77  1583.71  1586.07  1589.32  1589.52
eigval :     1590.93  1591.06  1591.31  1592.05  1595.37  1598.07
eigval :     1602.04  3068.66  3069.25  3071.27  3071.82  3072.30
eigval :     3073.67  3073.91  3074.35  3074.69  3074.77  3075.28
eigval :     3075.29  3076.61  3077.43  3077.84  3078.78  3079.06
eigval :     3079.59  3079.87  3080.23  3080.35  3080.60  3081.20
eigval :     3081.26  3081.50  3082.32  3082.39  3082.52  3084.01
eigval :     3084.24  3084.62  3085.42  3085.83  3086.14  3086.58
eigval :     3086.98  3088.43  3088.60  3088.73  3090.45  3091.30
eigval :     3091.95  3093.17  3094.06  3094.20  3094.46  3094.66
eigval :     3095.08  3095.56  3096.10  3096.55  3096.61  3096.88
eigval :     3097.21  3097.73  3099.08  3099.30  3099.88  3102.99
eigval :     3104.09  3105.68  3107.91  3108.13  3112.75  3123.98

   temp. (K)  partition function   enthalpy   heat capacity  entropy
                                   cal/mol     cal/K/mol   cal/K/mol   J/K/mol
 298.15  VIB  0.497E+45            50377.429    309.658    324.711
         ROT  0.132E+10              888.752      2.981     44.715
         INT  0.656E+54            51266.182    312.639    369.427
         TR   0.462E+29             1481.254      4.968     47.380
         TOT                       52747.4356   317.6067   416.8066  1743.9189

       T/K    H(0)-H(T)+PV         H(T)/Eh          T*S/Eh         G(T)/Eh
   ------------------------------------------------------------------------
    298.15    0.840584E-01    0.137728E+01    0.198038E+00    0.117924E+01
   ------------------------------------------------------------------------

         :::::::::::::::::::::::::::::::::::::::::::::::::::::
         ::                  THERMODYNAMIC                  ::
         :::::::::::::::::::::::::::::::::::::::::::::::::::::
         :: total free energy        -258.165241219196 Eh   ::
         ::.................................................::
         :: total energy             -259.344481893649 Eh   ::
         :: zero point energy           1.293220559119 Eh   ::
         :: G(RRHO) w/o ZPVE           -0.113979884666 Eh   ::
         :: G(RRHO) contrib.            1.179240674453 Eh   ::
         :::::::::::::::::::::::::::::::::::::::::::::::::::::

           -------------------------------------------------
          | TOTAL ENERGY             -259.344481893649 Eh   |
          | TOTAL ENTHALPY           -257.967202945329 Eh   |
          | TOTAL FREE ENERGY        -258.165241219196 Eh   |
          | GRADIENT NORM               0.000055657151 Eh/α |
          | HOMO-LUMO GAP               0.226822622701 eV   |
           -------------------------------------------------

 * finished run on 2025/09/07 at 09:20:03.889
