   * xtb version 6.7.1 (edcfbbe) compiled by 'albert@albert-system' on 2024-07-22

   ID    Z sym.   atoms
    1    6 C      1-9, 11-14, 18-29, 31-44
    2    7 N      10, 30
    3   16 S      15
    4    8 O      16, 17
    5    1 H      45-74

          program call               : xtb data2507/toluene/3CP-DPS-DMAC/3CP-DPS-DMAC_toluene_S0_crest.xyz --gfn 2 --gbsa toluene --ohess vtight --parallel 40 --molden --ceasefiles --namespace data2507/toluene/3CP-DPS-DMAC/3CP-DPS-DMAC_toluene_S0_finalOpt
      * Solvation model:               GBSA
        Solvent                        toluene
        Solvent mass                       9.2140E+01 g/mol
          :  Hamiltonian                  GFN2-xTB          :
 * total energy  :  -116.1258528 Eh     change       -0.7117933E-09 Eh
 * total energy  :  -116.1259724 Eh     change       -0.1195334E-03 Eh
 * total energy  :  -116.1260451 Eh     change       -0.7274545E-04 Eh
 * total energy  :  -116.1260666 Eh     change       -0.2146090E-04 Eh
 * total energy  :  -116.1260824 Eh     change       -0.1580581E-04 Eh
 * total energy  :  -116.1261021 Eh     change       -0.1973006E-04 Eh
 * total energy  :  -116.1261229 Eh     change       -0.2074117E-04 Eh
 * total energy  :  -116.1261418 Eh     change       -0.1894799E-04 Eh
 * total energy  :  -116.1261715 Eh     change       -0.2969842E-04 Eh
 * total energy  :  -116.1262041 Eh     change       -0.3262855E-04 Eh
 * total energy  :  -116.1272261 Eh     change       -0.6625949E-06 Eh
 * total energy  :  -116.1272267 Eh     change       -0.6610239E-06 Eh
 * total energy  :  -116.1272275 Eh     change       -0.7571128E-06 Eh
 * total energy  :  -116.1272283 Eh     change       -0.8090369E-06 Eh
 * total energy  :  -116.1272291 Eh     change       -0.8555787E-06 Eh
 * total energy  :  -116.1272300 Eh     change       -0.9013951E-06 Eh
 * total energy  :  -116.1272308 Eh     change       -0.7968672E-06 Eh
 * total energy  :  -116.1272315 Eh     change       -0.6255026E-06 Eh
 * total energy  :  -116.1272315 Eh     change       -0.1568237E-07 Eh
   *** GEOMETRY OPTIMIZATION CONVERGED AFTER 68 ITERATIONS ***

 final structure:
================
74
 xtb: 6.7.1 (edcfbbe)
C           -6.77419647376034        2.42712447929577        1.74259714176000
C           -6.15486518081151        1.90036327130036        0.43441589437224
C           -6.89489058189789        2.49075632644978       -0.78082411814279
C           -6.29756159565231        0.38995524882891        0.40441106394768
C           -7.56311758396139       -0.17832050285288        0.46791302411125
C           -7.75554817626650       -1.54759872604950        0.46538723259774
C           -6.65526641404136       -2.38459632147770        0.41311192045622
C           -5.38653232719818       -1.84702541735467        0.34876510293207
C           -5.19190029391745       -0.46280157157494        0.32544568583872
N           -3.90213447623900        0.04696008814876        0.25404143849845
C           -2.81189150176560       -0.84723616822492        0.10608472145688
C           -1.96251873821338       -1.09580074221098        1.18295889085242
C           -0.87095930260192       -1.92962079366621        1.02148739173792
C           -0.64288757603571       -2.51495263546561       -0.21054311607071
S            0.85263029684673       -3.48707500352851       -0.43107422937167
O            0.96534922099176       -4.44647329257219        0.64857758227676
O            0.85206830264332       -4.02986142798313       -1.77498657755541
C            2.16112265171224       -2.27453326249357       -0.27908647405169
C            3.30997200458828       -2.59177873104225        0.43671568051646
C            4.33404578331969       -1.67417366786195        0.56537643068666
C            4.16758068208990       -0.42560576967395       -0.02604743349310
C            2.99461393829970       -0.11014436644436       -0.76389589047968
C            1.98513866857394       -1.05232618765319       -0.89367811641736
C            3.16493888054609        1.23103106234755       -1.24550030555844
C            2.36447110002181        2.09002962927998       -1.98991730713293
C            2.83756273644299        3.35700528032037       -2.26553254246127
C            4.08431717568285        3.77509189830447       -1.80110758483541
C            4.89596521782968        2.94023498105485       -1.05734575527892
C            4.43331837711139        1.65874969263042       -0.79061163087538
N            5.02250499638218        0.64617368362429       -0.05735626745252
C            6.29245520638469        0.70775384892340        0.54985404765579
C            7.40758568046720        1.05357322746762       -0.20603541595510
C            8.65225827955333        1.11870955225653        0.39442589042917
C            8.79279874499311        0.83296143527279        1.74271925890600
C            7.68224677817031        0.48455601538478        2.49406192319321
C            6.43201357796200        0.42553837101460        1.90456778419613
C           -1.48957036911922       -2.29655717939539       -1.28061250603977
C           -2.58052789013259       -1.45998487953404       -1.12314624809124
C           -3.65144415177171        1.41408518006464        0.27362796878857
C           -2.33779023358996        1.88152489888752        0.16908311876410
C           -2.05853990533814        3.23228953057547        0.19013884356488
C           -3.09047178869443        4.14588071468180        0.30869473255653
C           -4.39219289250968        3.68675217166975        0.39045681241583
C           -4.70167704405875        2.33281656777506        0.37136630788022
H           -6.25250879417264        2.00135701045552        2.59812920963293
H           -6.69913797633331        3.50941339336669        1.79888370459897
H           -7.82374286787602        2.15556597281008        1.81172112512234
H           -6.44973081544940        2.11980804857364       -1.70258868200326
H           -6.83399309986521        3.57547477761448       -0.78266484331282
H           -7.94397872959392        2.20869273301932       -0.76926424444857
H           -8.43013335208544        0.46236635642363        0.52190542315563
H           -8.75409156446346       -1.95545211448487        0.51241533035223
H           -6.78030224714389       -3.45741065548747        0.42607269236624
H           -4.53312519988700       -2.50737438831542        0.32090422794240
H           -2.15767706747519       -0.62206388266704        2.13308194236469
H           -0.19468522656755       -2.13648803624350        1.83599039519209
H            3.37356981435699       -3.57043561808089        0.88607094695000
H            5.23535763788451       -1.92403835543815        1.10246097011957
H            1.08980697768660       -0.84877468831444       -1.45891000397513
H            1.39457105725400        1.76933016145419       -2.33847749366261
H            2.23347312777454        4.04066352299756       -2.84324149777143
H            4.42127497867975        4.77653320579515       -2.02456178397835
H            5.85249707698518        3.27746005776583       -0.68872075344767
H            7.29490780006818        1.25807410248865       -1.26028508989441
H            9.51609660939430        1.38704020937642       -0.19543032353597
H            9.76617370645981        0.88160161236231        2.20720743831230
H            7.78720108544681        0.26430055482538        3.54597696814170
H            5.56038178101107        0.17207034545565        2.48928399216728
H           -1.27120205178250       -2.77754189114132       -2.22160877187739
H           -3.25110392020723       -1.26951838544981       -1.94746218343100
H           -1.52583002878818        1.17856362719196        0.06767606945235
H           -1.03427395889118        3.56606994629577        0.11083089316226
H           -2.88672998659455        5.20592028948110        0.32878583538466
H           -5.18888712278782        4.41079645488271        0.46840723598251

          :  Hamiltonian                  GFN2-xTB          :
         :: gradient norm              0.000092995500 Eh/a0 ::
         :: HOMO-LUMO gap              2.249530368726 eV    ::
         :: SCC energy              -118.130213318196 Eh    ::
         :: -> dispersion             -0.104792825459 Eh    ::
         :: -> Gsolv                  -0.054462452034 Eh    ::
         :: repulsion energy           2.002981835023 Eh    ::

    * Orbital Energies and Occupations

         #    Occupation            Energy/Eh            Energy/eV
      -------------------------------------------------------------
         1        2.0000           -0.7742167             -21.0675
       ...           ...                  ...                  ...
        95        2.0000           -0.4248148             -11.5598
        96        2.0000           -0.4219704             -11.4824
        97        2.0000           -0.4164612             -11.3325
        98        2.0000           -0.4152712             -11.3001
        99        2.0000           -0.4103743             -11.1669
       100        2.0000           -0.4095307             -11.1439
       101        2.0000           -0.4067277             -11.0676
       102        2.0000           -0.4042537             -11.0003
       103        2.0000           -0.3984303             -10.8418
       104        2.0000           -0.3932773             -10.7016
       105        2.0000           -0.3930535             -10.6955
       106        2.0000           -0.3756432             -10.2218
       107        2.0000           -0.3487170              -9.4891 (HOMO)
       108                         -0.2660484              -7.2395 (LUMO)
       109                         -0.2610987              -7.1049
       110                         -0.2537165              -6.9040
       111                         -0.2477920              -6.7428
       112                         -0.2367826              -6.4432
       113                         -0.2349294              -6.3928
       114                         -0.2250528              -6.1240
       115                         -0.2197866              -5.9807
       116                         -0.2188540              -5.9553
       117                         -0.2094129              -5.6984
       118                         -0.1989830              -5.4146
       ...                                ...                  ...
       211                          1.1692425              31.8167
      -------------------------------------------------------------
                  HL-Gap            0.0826687 Eh            2.2495 eV

     #   Z          covCN         q      C6AA      α(0)
     1   6 C        3.761    -0.105    22.545     6.769
     2   6 C        3.908     0.021    20.164     6.383
     3   6 C        3.761    -0.104    22.540     6.768
     4   6 C        2.979    -0.012    28.317     8.729
     5   6 C        2.928    -0.037    28.920     8.819
     6   6 C        2.917    -0.045    29.128     8.850
     7   6 C        2.919    -0.034    28.850     8.808
     8   6 C        2.924    -0.060    29.496     8.906
     9   6 C        2.927     0.057    26.729     8.479
    10   7 N        2.754    -0.068    22.554     7.053
    11   6 C        2.927     0.079    26.242     8.401
    12   6 C        2.923    -0.032    28.794     8.800
    13   6 C        2.959    -0.025    28.628     8.776
    14   6 C        2.971    -0.072    29.800     8.954
    15  16 S        3.825     0.935   108.524    17.533
    16   8 O        0.860    -0.580    25.621     6.786
    17   8 O        0.860    -0.583    25.698     6.797
    18   6 C        2.972    -0.084    30.106     9.000
    19   6 C        2.957    -0.029    28.724     8.791
    20   6 C        2.911    -0.045    29.126     8.850
    21   6 C        3.074     0.052    26.759     8.481
    22   6 C        3.073    -0.010    28.187     8.705
    23   6 C        2.959    -0.035    28.878     8.814
    24   6 C        3.064    -0.016    28.333     8.729
    25   6 C        2.912    -0.031    28.777     8.796
    26   6 C        2.920    -0.038    28.949     8.823
    27   6 C        2.924    -0.030    28.759     8.794
    28   6 C        2.909    -0.047    29.176     8.857
    29   6 C        3.081     0.048    26.841     8.494
    30   7 N        2.803    -0.028    21.784     6.932
    31   6 C        2.914     0.060    26.648     8.465
    32   6 C        2.922    -0.040    28.993     8.830
    33   6 C        2.920    -0.026    28.657     8.779
    34   6 C        2.919    -0.030    28.753     8.793
    35   6 C        2.920    -0.026    28.658     8.779
    36   6 C        2.922    -0.041    29.026     8.835
    37   6 C        2.951    -0.023    28.570     8.767
    38   6 C        2.923    -0.032    28.808     8.802
    39   6 C        2.927     0.056    26.736     8.480
    40   6 C        2.924    -0.061    29.512     8.909
    41   6 C        2.919    -0.034    28.847     8.808
    42   6 C        2.917    -0.045    29.124     8.850
    43   6 C        2.928    -0.037    28.917     8.819
    44   6 C        2.979    -0.012    28.313     8.728
    45   1 H        0.925     0.031     2.573     2.508
    46   1 H        0.925     0.043     2.410     2.428
    47   1 H        0.925     0.042     2.418     2.432
    48   1 H        0.925     0.031     2.575     2.509
    49   1 H        0.925     0.043     2.411     2.428
    50   1 H        0.925     0.042     2.417     2.431
    51   1 H        0.926     0.035     2.517     2.481
    52   1 H        0.926     0.027     2.626     2.534
    53   1 H        0.926     0.027     2.629     2.536
    54   1 H        0.926     0.022     2.699     2.569
    55   1 H        0.926     0.069     2.096     2.264
    56   1 H        0.926     0.059     2.212     2.326
    57   1 H        0.926     0.051     2.311     2.377
    58   1 H        0.926     0.057     2.235     2.338
    59   1 H        0.926     0.044     2.396     2.420
    60   1 H        0.926     0.038     2.478     2.462
    61   1 H        0.926     0.038     2.479     2.462
    62   1 H        0.926     0.040     2.445     2.445
    63   1 H        0.926     0.041     2.438     2.442
    64   1 H        0.926     0.046     2.368     2.407
    65   1 H        0.926     0.045     2.386     2.416
    66   1 H        0.926     0.043     2.403     2.424
    67   1 H        0.926     0.044     2.390     2.417
    68   1 H        0.926     0.045     2.385     2.415
    69   1 H        0.926     0.065     2.144     2.290
    70   1 H        0.926     0.067     2.118     2.276
    71   1 H        0.926     0.024     2.676     2.558
    72   1 H        0.926     0.030     2.587     2.515
    73   1 H        0.926     0.028     2.614     2.528
    74   1 H        0.926     0.035     2.519     2.482

molecular dipole:
                 x           y           z       tot (Debye)
 q only:        0.981       3.634       0.730
   full:        1.045       3.296       0.714       8.974

 projected vibrational frequencies (cm⁻¹)
eigval :       -0.00    -0.00    -0.00     0.00     0.00     0.00
eigval :       -4.85     9.99    12.83    25.51    33.95    36.67
eigval :       43.62    52.32    54.24    60.37    79.34    96.56
eigval :       99.80   103.58   114.29   119.24   137.50   145.49
eigval :      153.58   172.31   198.15   205.69   207.51   217.39
eigval :      220.53   234.85   241.76   255.16   270.49   295.65
eigval :      304.27   311.82   331.56   340.11   345.85   351.96
eigval :      370.76   376.75   378.28   379.21   392.50   400.07
eigval :      407.36   411.36   414.57   429.01   448.15   452.22
eigval :      474.42   488.57   493.21   506.14   515.66   526.82
eigval :      537.89   547.66   556.20   560.77   576.04   580.78
eigval :      587.38   590.95   593.05   604.03   612.03   638.02
eigval :      647.30   670.68   678.05   683.62   687.08   694.79
eigval :      695.44   710.12   724.10   751.38   763.60   774.42
eigval :      777.64   780.06   800.91   812.34   822.24   826.87
eigval :      868.02   868.76   869.34   873.08   877.81   881.33
eigval :      898.70   903.65   907.00   912.70   914.20   914.45
eigval :      914.75   915.60   919.30   921.83   922.55   923.17
eigval :      923.48   930.59   932.42   934.65   937.94   956.39
eigval :      996.96  1003.50  1014.16  1015.14  1064.57  1067.57
eigval :     1075.95  1077.77  1082.82  1093.42  1111.24  1113.10
eigval :     1115.54  1116.21  1119.06  1122.73  1139.62  1140.77
eigval :     1158.29  1165.70  1173.73  1174.82  1176.57  1177.65
eigval :     1184.30  1186.08  1188.03  1194.69  1203.43  1216.05
eigval :     1237.19  1243.10  1243.73  1249.64  1268.12  1270.22
eigval :     1273.40  1293.20  1302.50  1309.09  1310.92  1314.74
eigval :     1323.00  1332.02  1334.63  1352.37  1355.29  1367.40
eigval :     1392.16  1399.49  1413.16  1417.77  1426.45  1432.87
eigval :     1434.56  1438.90  1456.01  1462.43  1476.68  1478.68
eigval :     1481.93  1486.83  1487.27  1493.52  1496.88  1502.30
eigval :     1561.74  1569.96  1573.33  1576.29  1580.23  1583.13
eigval :     1586.62  1589.42  1590.49  1592.33  1599.89  1607.67
eigval :     3020.85  3023.96  3040.01  3042.05  3048.41  3052.51
eigval :     3073.34  3074.52  3077.66  3078.90  3080.64  3081.33
eigval :     3081.73  3083.89  3089.13  3090.34  3092.32  3092.53
eigval :     3093.33  3093.40  3094.51  3095.88  3096.83  3098.14
eigval :     3099.21  3101.38  3103.12  3103.38  3105.04  3105.79

   temp. (K)  partition function   enthalpy   heat capacity  entropy
                                   cal/mol     cal/K/mol   cal/K/mol   J/K/mol
 298.15  VIB  0.125E+18            21472.360    135.104    134.235
         ROT  0.716E+08              888.752      2.981     38.922
         INT  0.897E+25            22361.112    138.085    173.157
         TR   0.139E+29             1481.254      4.968     44.992
         TOT                       23842.3660   143.0528   218.1494   912.7369

       T/K    H(0)-H(T)+PV         H(T)/Eh          T*S/Eh         G(T)/Eh
   ------------------------------------------------------------------------
    298.15    0.379952E-01    0.608709E+00    0.103650E+00    0.505059E+00
   ------------------------------------------------------------------------

         :::::::::::::::::::::::::::::::::::::::::::::::::::::
         ::                  THERMODYNAMIC                  ::
         :::::::::::::::::::::::::::::::::::::::::::::::::::::
         :: total free energy        -115.622172772281 Eh   ::
         ::.................................................::
         :: total energy             -116.127231486341 Eh   ::
         :: zero point energy           0.570713285776 Eh   ::
         :: G(RRHO) w/o ZPVE           -0.065654571716 Eh   ::
         :: G(RRHO) contrib.            0.505058714060 Eh   ::
         :::::::::::::::::::::::::::::::::::::::::::::::::::::

           -------------------------------------------------
          | TOTAL ENERGY             -116.127231486341 Eh   |
          | TOTAL ENTHALPY           -115.518522971893 Eh   |
          | TOTAL FREE ENERGY        -115.622172772281 Eh   |
          | GRADIENT NORM               0.000092917020 Eh/α |
          | HOMO-LUMO GAP               2.249529027962 eV   |
           -------------------------------------------------

 * finished run on 2025/07/20 at 13:38:24.350
