   * xtb version 6.7.1 (edcfbbe) compiled by 'albert@albert-system' on 2024-07-22

   ID    Z sym.   atoms
    1    6 C      1-9, 11-14, 18-29, 31-44
    2    7 N      10, 30
    3   16 S      15
    4    8 O      16, 17
    5    1 H      45-74

          program call               : xtb data2507/toluene/3CP-DPS-DMAC/3CP-DPS-DMAC.xyz --gfn 2 --gbsa toluene --ohess vtight --parallel 40 --molden --ceasefiles --namespace data2507/toluene/3CP-DPS-DMAC/3CP-DPS-DMAC_toluene_S0_preOpt
      * Solvation model:               GBSA
        Solvent                        toluene
        Solvent mass                       9.2140E+01 g/mol
          :  Hamiltonian                  GFN2-xTB          :
 * total energy  :  -116.1053386 Eh     change       -0.8009380E-09 Eh
 * total energy  :  -116.1210854 Eh     change       -0.1574676E-01 Eh
 * total energy  :  -116.1254250 Eh     change       -0.4339566E-02 Eh
 * total energy  :  -116.1261030 Eh     change       -0.6780072E-03 Eh
 * total energy  :  -116.1265057 Eh     change       -0.4027483E-03 Eh
 * total energy  :  -116.1266513 Eh     change       -0.1455546E-03 Eh
 * total energy  :  -116.1267543 Eh     change       -0.1030083E-03 Eh
 * total energy  :  -116.1268288 Eh     change       -0.7454960E-04 Eh
 * total energy  :  -116.1268870 Eh     change       -0.5812886E-04 Eh
 * total energy  :  -116.1269217 Eh     change       -0.3473399E-04 Eh
 * total energy  :  -116.1271361 Eh     change       -0.9612946E-06 Eh
 * total energy  :  -116.1271372 Eh     change       -0.1081266E-05 Eh
 * total energy  :  -116.1271383 Eh     change       -0.1119071E-05 Eh
 * total energy  :  -116.1271393 Eh     change       -0.9711685E-06 Eh
 * total energy  :  -116.1271400 Eh     change       -0.6676292E-06 Eh
 * total energy  :  -116.1271404 Eh     change       -0.4553554E-06 Eh
 * total energy  :  -116.1271408 Eh     change       -0.3440133E-06 Eh
 * total energy  :  -116.1271410 Eh     change       -0.2047505E-06 Eh
 * total energy  :  -116.1271410 Eh     change       -0.3937522E-07 Eh
   *** GEOMETRY OPTIMIZATION CONVERGED AFTER 62 ITERATIONS ***

 final structure:
================
74
 xtb: 6.7.1 (edcfbbe)
C           -7.04810896816659        2.10184257122773        0.43350488236467
C           -6.15629179995948        1.34378848978148       -0.56784874861951
C           -6.70747888102095        1.50196092604207       -1.99745221439001
C           -6.16202321769292       -0.12976477661536       -0.20534119973460
C           -7.36000275668267       -0.83202812565977       -0.21850401932938
C           -7.42573414641651       -2.18015426974873        0.08209028303055
C           -6.26245397763095       -2.86019638534283        0.39529278397826
C           -5.05884532925602       -2.18664519664493        0.41899236584368
C           -4.99397256068575       -0.81877534665049        0.13711293585706
N           -3.76828466279509       -0.16747703777161        0.17650027646889
C           -2.61653740169778       -0.89371448241555        0.57620103016721
C           -2.40632890062065       -1.17281328197651        1.92404317842115
C           -1.28245733357984       -1.88051613000890        2.31363773501675
C           -0.38241755342220       -2.30449624158334        1.35556821440882
S            1.08419721249740       -3.22543195189093        1.84157948592432
O            1.09471828122898       -3.33198552027716        3.28635589261438
O            1.10026860972963       -4.46924030239835        1.09778110295011
C            2.45100709707467       -2.20825211516988        1.30557054871440
C            2.74344912370268       -1.06457467206016        2.04305251159475
C            3.77243439903824       -0.22859512283672        1.66071824869749
C            4.49841200591365       -0.56808729971171        0.52195802434617
C            4.17689261445871       -1.72219828549841       -0.24245759908070
C            3.14025939874307       -2.55080388039928        0.16176718500408
C            5.08927389056892       -1.74296678528425       -1.35019810147031
C            5.27966555722620       -2.61289028956201       -2.41785257877703
C            6.29037649274339       -2.33987950629826       -3.31718119711208
C            7.11260206716394       -1.22486362865669       -3.15718061628744
C            6.94247069660978       -0.34642410796538       -2.10452154603613
C            5.91540075793860       -0.60457869247957       -1.20692046008781
N            5.54279817630313        0.09140205535597       -0.07210562343681
C            6.16373854859366        1.26115615998859        0.40961971386630
C            6.64317614774243        1.30768724413554        1.71445341163110
C            7.25939381859018        2.45552272003702        2.17995832918856
C            7.40744937119192        3.55449655356824        1.34935487592133
C            6.93100119294269        3.50678781702885        0.04939575545360
C            6.30595004083523        2.36630195331926       -0.42272821896778
C           -0.57663352022734       -2.03260138087249        0.01373063321076
C           -1.69910092784699       -1.32625558660379       -0.37916229879314
C           -3.64194049144881        1.17774597800439       -0.14464176878652
C           -2.38774748766046        1.79157788602870       -0.07593791241586
C           -2.23071164207718        3.12469562560525       -0.39421657180077
C           -3.32757716144997        3.87403779621878       -0.77994739130528
C           -4.57216895191316        3.27351421288322       -0.82887714573917
C           -4.75907574456963        1.93359985058063       -0.51529137365572
H           -7.07198879486702        3.16370615323081        0.20504547023980
H           -8.06664039232373        1.72465536413175        0.40686672918813
H           -6.66155042972638        1.97606345900216        1.44352102988067
H           -6.07125246292552        0.96828886233512       -2.70144868866104
H           -6.73809795187962        2.54833006029674       -2.28779841363595
H           -7.71367764178180        1.09944573138150       -2.07215656663007
H           -8.27411084977984       -0.31670090094607       -0.47137190265772
H           -8.37478821740131       -2.69455053414945        0.06456084124168
H           -6.28705985378478       -3.91667452875405        0.61915397474074
H           -4.15495362711052       -2.72743600123218        0.65487995947492
H           -3.12564548204761       -0.83763267118704        2.65596497727472
H           -1.08888473020135       -2.11577564343477        3.34868561130396
H            2.15784888313292       -0.86069503866937        2.92532848572584
H            4.00169612086019        0.66188417204139        2.22447960992919
H            2.87069338713979       -3.44695224423022       -0.37407828578256
H            4.65210941401635       -3.48373084268447       -2.53154312407487
H            6.45611524762821       -3.00148370351627       -4.15427065291838
H            7.90318239181831       -1.04650316103642       -3.87095388086653
H            7.59259715120962        0.50587155152818       -1.98070549488188
H            6.54116884570939        0.44153118044679        2.35131979279509
H            7.63233769958553        2.48784047830775        3.19285644068230
H            7.89311971836610        4.44666198198179        1.71502194846078
H            7.04094744266462        4.36308074444338       -0.59929688129209
H            5.91843921845504        2.32883943789603       -1.42981077860559
H            0.14195245506332       -2.38678451179124       -0.70819032452932
H           -1.87317157826737       -1.10464222815598       -1.42124692753939
H           -1.52848724283414        1.21727818128521        0.23461649676408
H           -1.25066243457830        3.57510908940986       -0.33651725462180
H           -3.21891632034370        4.91783934344856       -1.03352715430594
H           -5.42136204992212        3.87323378118143       -1.11925685557855

          :  Hamiltonian                  GFN2-xTB          :
         :: gradient norm              0.000099694841 Eh/a0 ::
         :: HOMO-LUMO gap              2.231707131667 eV    ::
         :: SCC energy              -118.130515065374 Eh    ::
         :: -> dispersion             -0.103367990192 Eh    ::
         :: -> Gsolv                  -0.054565344181 Eh    ::
         :: repulsion energy           2.003374039738 Eh    ::

    * Orbital Energies and Occupations

         #    Occupation            Energy/Eh            Energy/eV
      -------------------------------------------------------------
         1        2.0000           -0.7738015             -21.0562
       ...           ...                  ...                  ...
        95        2.0000           -0.4246326             -11.5548
        96        2.0000           -0.4220693             -11.4851
        97        2.0000           -0.4166406             -11.3374
        98        2.0000           -0.4153354             -11.3019
        99        2.0000           -0.4100974             -11.1593
       100        2.0000           -0.4091993             -11.1349
       101        2.0000           -0.4063495             -11.0573
       102        2.0000           -0.4040179             -10.9939
       103        2.0000           -0.3982417             -10.8367
       104        2.0000           -0.3930741             -10.6961
       105        2.0000           -0.3928677             -10.6905
       106        2.0000           -0.3759814             -10.2310
       107        2.0000           -0.3482695              -9.4769 (HOMO)
       108                         -0.2662557              -7.2452 (LUMO)
       109                         -0.2607674              -7.0958
       110                         -0.2530346              -6.8854
       111                         -0.2471697              -6.7258
       112                         -0.2368691              -6.4455
       113                         -0.2351667              -6.3992
       114                         -0.2248008              -6.1171
       115                         -0.2195787              -5.9750
       116                         -0.2186357              -5.9494
       117                         -0.2106449              -5.7319
       118                         -0.1990690              -5.4169
       ...                                ...                  ...
       211                          1.1652567              31.7082
      -------------------------------------------------------------
                  HL-Gap            0.0820137 Eh            2.2317 eV

     #   Z          covCN         q      C6AA      α(0)
     1   6 C        3.761    -0.104    22.539     6.768
     2   6 C        3.908     0.021    20.165     6.383
     3   6 C        3.761    -0.105    22.546     6.769
     4   6 C        2.979    -0.013    28.321     8.729
     5   6 C        2.928    -0.037    28.922     8.820
     6   6 C        2.917    -0.046    29.132     8.851
     7   6 C        2.919    -0.034    28.851     8.808
     8   6 C        2.924    -0.060    29.498     8.907
     9   6 C        2.927     0.057    26.725     8.478
    10   7 N        2.754    -0.069    22.571     7.056
    11   6 C        2.927     0.079    26.246     8.402
    12   6 C        2.923    -0.032    28.802     8.801
    13   6 C        2.951    -0.022    28.557     8.765
    14   6 C        2.971    -0.073    29.823     8.958
    15  16 S        3.827     0.932   108.624    17.541
    16   8 O        0.860    -0.579    25.614     6.786
    17   8 O        0.860    -0.581    25.664     6.792
    18   6 C        2.972    -0.085    30.135     9.005
    19   6 C        2.967    -0.034    28.850     8.810
    20   6 C        2.911    -0.045    29.120     8.849
    21   6 C        3.075     0.052    26.761     8.482
    22   6 C        3.073    -0.011    28.207     8.708
    23   6 C        2.952    -0.030    28.740     8.793
    24   6 C        3.065    -0.015    28.323     8.727
    25   6 C        2.912    -0.031    28.777     8.797
    26   6 C        2.920    -0.038    28.948     8.823
    27   6 C        2.924    -0.030    28.761     8.795
    28   6 C        2.909    -0.048    29.179     8.858
    29   6 C        3.081     0.048    26.847     8.494
    30   7 N        2.803    -0.027    21.772     6.930
    31   6 C        2.914     0.060    26.649     8.465
    32   6 C        2.922    -0.041    29.018     8.834
    33   6 C        2.920    -0.026    28.654     8.778
    34   6 C        2.919    -0.030    28.750     8.793
    35   6 C        2.920    -0.026    28.656     8.778
    36   6 C        2.922    -0.040    28.992     8.830
    37   6 C        2.959    -0.026    28.648     8.779
    38   6 C        2.923    -0.032    28.801     8.801
    39   6 C        2.927     0.057    26.728     8.478
    40   6 C        2.924    -0.061    29.514     8.909
    41   6 C        2.919    -0.034    28.854     8.809
    42   6 C        2.917    -0.046    29.134     8.851
    43   6 C        2.928    -0.037    28.920     8.819
    44   6 C        2.979    -0.012    28.319     8.729
    45   1 H        0.925     0.043     2.412     2.429
    46   1 H        0.925     0.042     2.417     2.431
    47   1 H        0.925     0.031     2.577     2.510
    48   1 H        0.925     0.031     2.573     2.508
    49   1 H        0.925     0.043     2.409     2.427
    50   1 H        0.925     0.042     2.418     2.432
    51   1 H        0.926     0.035     2.516     2.481
    52   1 H        0.926     0.027     2.626     2.534
    53   1 H        0.926     0.027     2.633     2.538
    54   1 H        0.926     0.021     2.712     2.575
    55   1 H        0.926     0.067     2.122     2.278
    56   1 H        0.926     0.064     2.149     2.292
    57   1 H        0.926     0.049     2.329     2.386
    58   1 H        0.926     0.058     2.226     2.333
    59   1 H        0.926     0.054     2.265     2.354
    60   1 H        0.926     0.037     2.486     2.465
    61   1 H        0.926     0.037     2.488     2.466
    62   1 H        0.926     0.040     2.444     2.445
    63   1 H        0.926     0.041     2.432     2.439
    64   1 H        0.926     0.044     2.401     2.423
    65   1 H        0.926     0.044     2.394     2.419
    66   1 H        0.926     0.044     2.400     2.423
    67   1 H        0.926     0.045     2.378     2.412
    68   1 H        0.926     0.047     2.353     2.399
    69   1 H        0.926     0.059     2.214     2.327
    70   1 H        0.926     0.068     2.103     2.268
    71   1 H        0.926     0.024     2.679     2.560
    72   1 H        0.926     0.029     2.602     2.522
    73   1 H        0.926     0.028     2.618     2.530
    74   1 H        0.926     0.035     2.521     2.483

molecular dipole:
                 x           y           z       tot (Debye)
 q only:        0.993       3.530      -1.494
   full:        1.029       3.294      -1.315       9.387

 projected vibrational frequencies (cm⁻¹)
eigval :       -0.00    -0.00     0.00     0.00     0.00     0.00
eigval :       -2.03     7.43     8.92    22.75    29.23    36.34
eigval :       44.65    51.32    54.40    57.55    82.41    93.87
eigval :       98.73   102.14   112.94   118.60   136.62   139.27
eigval :      158.71   183.73   190.83   197.85   207.07   211.68
eigval :      219.38   234.01   247.72   256.33   271.62   302.90
eigval :      306.17   314.08   330.45   333.96   344.44   354.81
eigval :      374.20   377.30   378.77   381.56   391.04   402.23
eigval :      408.41   410.43   414.84   426.22   450.33   451.25
eigval :      471.99   487.50   491.57   506.95   515.63   520.68
eigval :      538.27   547.49   555.61   558.72   575.84   580.66
eigval :      589.01   590.80   592.79   603.93   611.60   638.05
eigval :      648.00   669.78   677.34   682.89   689.49   693.75
eigval :      694.41   709.90   723.75   750.52   762.97   773.67
eigval :      775.44   780.05   802.96   810.03   821.23   826.28
eigval :      866.99   870.71   871.15   875.35   880.89   885.43
eigval :      899.17   902.70   905.60   911.84   912.82   914.02
eigval :      914.46   915.17   918.25   919.88   921.24   922.30
eigval :      923.37   930.24   933.01   935.18   938.54   957.33
eigval :      996.83  1003.53  1013.38  1015.22  1062.03  1068.81
eigval :     1075.86  1078.40  1083.34  1093.23  1111.60  1112.79
eigval :     1114.45  1115.79  1118.23  1121.49  1139.83  1139.95
eigval :     1158.61  1166.77  1173.46  1175.58  1177.47  1179.12
eigval :     1184.88  1185.94  1186.43  1194.41  1202.73  1212.80
eigval :     1237.99  1243.22  1243.55  1249.43  1267.44  1270.55
eigval :     1273.58  1293.13  1302.43  1308.57  1311.70  1314.42
eigval :     1323.13  1332.25  1335.09  1352.38  1354.54  1367.39
eigval :     1391.04  1399.82  1414.50  1418.19  1426.79  1432.96
eigval :     1434.52  1439.08  1456.69  1463.27  1476.75  1478.53
eigval :     1481.95  1486.76  1487.74  1493.70  1496.89  1502.88
eigval :     1561.11  1570.48  1573.70  1577.24  1579.42  1582.63
eigval :     1586.02  1589.52  1590.20  1591.99  1599.70  1607.67
eigval :     3022.13  3024.61  3039.71  3041.95  3048.20  3052.44
eigval :     3072.68  3073.50  3079.11  3079.93  3079.93  3080.08
eigval :     3082.04  3084.79  3089.50  3090.24  3090.47  3092.64
eigval :     3093.27  3093.74  3094.01  3096.94  3097.11  3098.25
eigval :     3098.79  3099.74  3103.40  3104.26  3105.62  3108.24

   temp. (K)  partition function   enthalpy   heat capacity  entropy
                                   cal/mol     cal/K/mol   cal/K/mol   J/K/mol
 298.15  VIB  0.786E+18            21508.409    134.993    136.010
         ROT  0.800E+08              888.752      2.981     39.144
         INT  0.629E+26            22397.162    137.974    175.154
         TR   0.139E+29             1481.254      4.968     44.992
         TOT                       23878.4156   142.9418   220.1462   921.0915

       T/K    H(0)-H(T)+PV         H(T)/Eh          T*S/Eh         G(T)/Eh
   ------------------------------------------------------------------------
    298.15    0.380527E-01    0.608687E+00    0.104599E+00    0.504088E+00
   ------------------------------------------------------------------------

         :::::::::::::::::::::::::::::::::::::::::::::::::::::
         ::                  THERMODYNAMIC                  ::
         :::::::::::::::::::::::::::::::::::::::::::::::::::::
         :: total free energy        -115.623052562703 Eh   ::
         ::.................................................::
         :: total energy             -116.127141023029 Eh   ::
         :: zero point energy           0.570634326111 Eh   ::
         :: G(RRHO) w/o ZPVE           -0.066545865786 Eh   ::
         :: G(RRHO) contrib.            0.504088460326 Eh   ::
         :::::::::::::::::::::::::::::::::::::::::::::::::::::

           -------------------------------------------------
          | TOTAL ENERGY             -116.127141023029 Eh   |
          | TOTAL ENTHALPY           -115.518454019512 Eh   |
          | TOTAL FREE ENERGY        -115.623052562703 Eh   |
          | GRADIENT NORM               0.000099685020 Eh/α |
          | HOMO-LUMO GAP               2.231707444692 eV   |
           -------------------------------------------------

 * finished run on 2025/07/20 at 13:28:04.042
