   * xtb version 6.7.1 (edcfbbe) compiled by 'albert@albert-system' on 2024-07-22

   ID    Z sym.   atoms
    1    6 C      1-9, 11-14, 18-29, 31-44
    2    7 N      10, 30
    3   16 S      15
    4    8 O      16, 17
    5    1 H      45-74

          program call               : xtb data2507/toluene/3CP-DPS-DMAC/3CP-DPS-DMAC_toluene_T1_crest.xyz --gfn 2 --uhf 2 --gbsa toluene --ohess vtight --parallel 40 --molden --ceasefiles --namespace data2507/toluene/3CP-DPS-DMAC/3CP-DPS-DMAC_toluene_T1_finalOpt
      * Solvation model:               GBSA
        Solvent                        toluene
        Solvent mass                       9.2140E+01 g/mol
          :  Hamiltonian                  GFN2-xTB          :
 * total energy  :  -116.0226525 Eh     change       -0.1172424E-08 Eh
 * total energy  :  -116.0230632 Eh     change       -0.4107352E-03 Eh
 * total energy  :  -116.0233782 Eh     change       -0.3149868E-03 Eh
 * total energy  :  -116.0234086 Eh     change       -0.3039574E-04 Eh
 * total energy  :  -116.0234492 Eh     change       -0.4065713E-04 Eh
 * total energy  :  -116.0234679 Eh     change       -0.1867973E-04 Eh
 * total energy  :  -116.0235096 Eh     change       -0.4164619E-04 Eh
 * total energy  :  -116.0235392 Eh     change       -0.2967909E-04 Eh
 * total energy  :  -116.0235521 Eh     change       -0.1290897E-04 Eh
 * total energy  :  -116.0235772 Eh     change       -0.2506195E-04 Eh
 * total energy  :  -116.0237724 Eh     change       -0.1718529E-06 Eh
 * total energy  :  -116.0237725 Eh     change       -0.1592827E-06 Eh
 * total energy  :  -116.0237727 Eh     change       -0.1289848E-06 Eh
 * total energy  :  -116.0237729 Eh     change       -0.2088986E-06 Eh
 * total energy  :  -116.0237730 Eh     change       -0.1413742E-06 Eh
 * total energy  :  -116.0237732 Eh     change       -0.2170798E-06 Eh
 * total energy  :  -116.0237732 Eh     change        0.4240803E-09 Eh
 * total energy  :  -116.0237732 Eh     change        0.4206564E-07 Eh
 * total energy  :  -116.0237732 Eh     change       -0.4223030E-07 Eh
   *** GEOMETRY OPTIMIZATION CONVERGED AFTER 154 ITERATIONS ***

 final structure:
================
74
 xtb: 6.7.1 (edcfbbe)
C           -4.70607710884957        3.34559543271628        0.87596249531150
C           -4.58011760771807        2.29313502973646       -0.24487431212010
C           -5.43941667436190        2.70632676491556       -1.45740147433667
C           -5.08679367120464        0.96537822884161        0.26898385407902
C           -6.40001692734294        0.85026302542648        0.70443401298464
C           -6.92447458578976       -0.35510651773370        1.13627135116316
C           -6.13338909145895       -1.49652017931799        1.11155356797582
C           -4.82827292880296       -1.41488874128956        0.68680797202587
C           -4.27501048941457       -0.18387507861462        0.29046943577151
N           -2.95524739613473       -0.13148101504731       -0.10086770982781
C           -2.16240401401620       -1.30007617781321       -0.04395018133278
C           -1.81008136417435       -1.86674605771553        1.20492037298343
C           -0.93686252846663       -2.91427478032689        1.25637525877134
C           -0.41122868572141       -3.46647476511641        0.06796550887765
S            1.13767099993658       -4.28536950227355        0.13648339659844
O            1.26826056807349       -5.05550585116926        1.36524953624880
O            1.38040128907986       -5.00389080227990       -1.10693015833703
C            2.16715346244189       -2.84355878362710        0.21874856292795
C            2.48577033777088       -2.32217871440263        1.48028645164286
C            2.96354515276229       -1.03794271159129        1.62195710171879
C            3.10051224811907       -0.26030209086179        0.46994612940546
C            2.74515564128518       -0.77044760628803       -0.80957967742162
C            2.28605877397078       -2.06634208399194       -0.93793871582089
C            2.93563743537086        0.30893677510230       -1.74182916012976
C            2.76460227523557        0.42400165120500       -3.11363069424766
C            3.05929282820471        1.63558958030449       -3.71961335210128
C            3.53351208421321        2.71268667494312       -2.97642468927829
C            3.71130292483211        2.62166430282922       -1.60510183777731
C            3.39043847742596        1.41925835597031       -0.98750564431319
N            3.48802463576042        1.05915301837863        0.34129381153146
C            3.94248973634372        1.88325450198950        1.37774671580555
C            4.93388233681217        1.43049934162355        2.24851679479833
C            5.38396030365147        2.24947226477897        3.26615809970463
C            4.85744531065779        3.52250662648820        3.42661976678724
C            3.87027463761546        3.97315327019203        2.56311342107182
C            3.40908311057936        3.16131872332165        1.54465175289454
C           -0.81165185574098       -2.93492885660638       -1.18059502561680
C           -1.66348067214600       -1.87054882388428       -1.23557470249374
C           -2.37710099967701        1.03806159889286       -0.54929724909805
C           -1.00559704151450        1.05972899141249       -0.86519502583177
C           -0.41218785304815        2.19869278182970       -1.35591015861846
C           -1.16637762785600        3.35271255737810       -1.52529455849082
C           -2.50281691179090        3.35434874659885       -1.16678495825375
C           -3.13154445699710        2.22056416456302       -0.66995850447490
H           -4.09465982877863        3.05538364769655        1.72805883121019
H           -4.37318132358559        4.31850916958334        0.52825378585512
H           -5.73675813000758        3.43462586558592        1.20481624579970
H           -5.11533558655667        3.66597305452426       -1.84774984086198
H           -6.48521762592276        2.78652057282013       -1.17770854813115
H           -5.34935627873092        1.96366189768278       -2.24768148187041
H           -7.03865486485731        1.71921589299329        0.70354584157826
H           -7.94865614356241       -0.40967217223267        1.47154149244313
H           -6.53860502598669       -2.44918114455577        1.41618222374131
H           -4.21836151018598       -2.30282316808823        0.64402498668658
H           -2.20550352476921       -1.42982938951805        2.11008803913527
H           -0.61222704069470       -3.33841630168954        2.19389483148606
H            2.34281340482674       -2.96511366067690        2.33485114502969
H            3.20250805690852       -0.64204821587718        2.59676594729836
H            2.00986636214977       -2.49288639312737       -1.88827280693016
H            2.41428484114525       -0.41716676871689       -3.69195463621888
H            2.93041138306371        1.74349381521091       -4.78623542986320
H            3.77288075867691        3.63816541876401       -3.47856960194981
H            4.09972043849375        3.45522069021537       -1.04105572886549
H            5.35854997588974        0.44825216130532        2.10452495453892
H            6.15639776371449        1.89527747872809        3.93269721742144
H            5.21439835596197        4.15910643902738        4.22189461568790
H            3.45127696374887        4.96034587771536        2.68996663292793
H            2.62080968351687        3.49889924160297        0.88922427664077
H           -0.42293261187645       -3.40078847745755       -2.07253437281216
H           -1.97865421069871       -1.46013871875093       -2.18404488946941
H           -0.41191643651727        0.17288653517080       -0.71474486910304
H            0.63758982085732        2.18689697748919       -1.60442648940152
H           -0.71038760056008        4.24858994973293       -1.91736761476233
H           -3.06491783599832        4.26806662865569       -1.27676845017433

          :  Hamiltonian                  GFN2-xTB          :
         :: gradient norm              0.000098058955 Eh/a0 ::
         :: HOMO-LUMO gap              0.136429563284 eV    ::
         :: SCC energy              -118.004744330200 Eh    ::
         :: -> dispersion             -0.109764537783 Eh    ::
         :: -> Gsolv                  -0.065401480446 Eh    ::
         :: repulsion energy           1.980971094078 Eh    ::

    * Orbital Energies and Occupations

         #    Occupation            Energy/Eh            Energy/eV
      -------------------------------------------------------------
         1        2.0000           -0.7481499             -20.3582
       ...           ...                  ...                  ...
        96        2.0000           -0.4187635             -11.3951
        97        2.0000           -0.4186825             -11.3929
        98        2.0000           -0.4152054             -11.2983
        99        2.0000           -0.4135740             -11.2539
       100        2.0000           -0.4123352             -11.2202
       101        2.0000           -0.4104055             -11.1677
       102        2.0000           -0.4092043             -11.1350
       103        2.0000           -0.3967462             -10.7960
       104        2.0000           -0.3872814             -10.5385
       105        2.0000           -0.3859453             -10.5021
       106        1.8524           -0.3701476             -10.0722
       107        1.1476           -0.3668160              -9.9816
       108        0.9325           -0.2573617              -7.0032 (HOMO)
       109        0.0659           -0.2523483              -6.8667 (LUMO)
       110        0.0015           -0.2487095              -6.7677
       111                         -0.2388452              -6.4993
       112                         -0.2382300              -6.4826
       113                         -0.2375164              -6.4632
       114                         -0.2332401              -6.3468
       115                         -0.2313636              -6.2957
       116                         -0.2222657              -6.0482
       117                         -0.2121186              -5.7720
       118                         -0.2019485              -5.4953
       119                         -0.1934557              -5.2642
       ...                                ...                  ...
       211                          1.1592586              31.5450
      -------------------------------------------------------------
                  HL-Gap            0.0050135 Eh            0.1364 eV

     #   Z          covCN         q      C6AA      α(0)
     1   6 C        3.761    -0.110    22.648     6.784
     2   6 C        3.909     0.025    20.089     6.371
     3   6 C        3.761    -0.110    22.644     6.784
     4   6 C        2.978     0.004    27.918     8.667
     5   6 C        2.924    -0.031    28.784     8.798
     6   6 C        2.917    -0.026    28.647     8.777
     7   6 C        2.917    -0.025    28.628     8.774
     8   6 C        2.922    -0.043    29.060     8.840
     9   6 C        2.930     0.060    26.660     8.468
    10   7 N        2.753     0.014    21.012     6.808
    11   6 C        2.929     0.014    27.698     8.631
    12   6 C        2.912    -0.043    29.079     8.843
    13   6 C        2.959    -0.042    29.049     8.840
    14   6 C        2.962    -0.112    30.842     9.109
    15  16 S        3.865     0.866   110.592    17.700
    16   8 O        0.860    -0.596    26.009     6.838
    17   8 O        0.860    -0.597    26.039     6.842
    18   6 C        2.966    -0.094    30.357     9.037
    19   6 C        2.963    -0.042    29.039     8.839
    20   6 C        2.907    -0.046    29.146     8.852
    21   6 C        3.067     0.033    27.190     8.550
    22   6 C        3.059    -0.013    28.283     8.721
    23   6 C        2.960    -0.044    29.083     8.845
    24   6 C        3.062    -0.014    28.298     8.723
    25   6 C        2.911    -0.032    28.806     8.801
    26   6 C        2.919    -0.036    28.888     8.814
    27   6 C        2.922    -0.035    28.860     8.810
    28   6 C        2.909    -0.047    29.174     8.857
    29   6 C        3.068     0.046    26.894     8.504
    30   7 N        2.799    -0.016    21.561     6.896
    31   6 C        2.913     0.060    26.663     8.467
    32   6 C        2.921    -0.041    29.009     8.832
    33   6 C        2.919    -0.026    28.664     8.780
    34   6 C        2.919    -0.032    28.791     8.799
    35   6 C        2.919    -0.027    28.675     8.781
    36   6 C        2.921    -0.041    29.022     8.834
    37   6 C        2.966    -0.044    29.090     8.847
    38   6 C        2.912    -0.041    29.014     8.833
    39   6 C        2.932     0.059    26.673     8.470
    40   6 C        2.921    -0.042    29.038     8.837
    41   6 C        2.917    -0.025    28.634     8.775
    42   6 C        2.917    -0.026    28.646     8.777
    43   6 C        2.924    -0.032    28.786     8.799
    44   6 C        2.978     0.004    27.919     8.667
    45   1 H        0.925     0.040     2.444     2.445
    46   1 H        0.925     0.057     2.238     2.339
    47   1 H        0.925     0.057     2.239     2.340
    48   1 H        0.925     0.057     2.236     2.339
    49   1 H        0.925     0.056     2.244     2.343
    50   1 H        0.925     0.040     2.449     2.447
    51   1 H        0.926     0.058     2.228     2.334
    52   1 H        0.926     0.051     2.309     2.376
    53   1 H        0.926     0.047     2.355     2.400
    54   1 H        0.926     0.050     2.316     2.380
    55   1 H        0.926     0.042     2.419     2.432
    56   1 H        0.926     0.030     2.593     2.518
    57   1 H        0.926     0.034     2.531     2.488
    58   1 H        0.926     0.045     2.380     2.412
    59   1 H        0.926     0.033     2.549     2.497
    60   1 H        0.926     0.034     2.536     2.490
    61   1 H        0.926     0.037     2.488     2.467
    62   1 H        0.926     0.040     2.449     2.447
    63   1 H        0.926     0.042     2.420     2.432
    64   1 H        0.926     0.042     2.426     2.436
    65   1 H        0.926     0.042     2.420     2.433
    66   1 H        0.926     0.043     2.415     2.430
    67   1 H        0.926     0.046     2.369     2.407
    68   1 H        0.926     0.049     2.331     2.387
    69   1 H        0.926     0.030     2.584     2.514
    70   1 H        0.926     0.042     2.426     2.436
    71   1 H        0.926     0.045     2.383     2.414
    72   1 H        0.926     0.046     2.376     2.410
    73   1 H        0.926     0.052     2.295     2.369
    74   1 H        0.926     0.059     2.216     2.328

molecular dipole:
                 x           y           z       tot (Debye)
 q only:       -3.601       7.810       0.157
   full:       -3.368       7.337       0.230      20.528

 projected vibrational frequencies (cm⁻¹)
eigval :       -0.00     0.00     0.00     0.00     0.00     0.00
eigval :        7.80    12.41    18.42    26.04    28.07    43.41
eigval :       53.84    57.54    61.88    66.43    77.30    94.77
eigval :       97.54   107.07   118.15   127.10   131.86   133.39
eigval :      160.16   183.30   191.38   197.61   209.71   212.87
eigval :      215.32   236.40   240.47   261.82   273.77   295.84
eigval :      304.46   306.09   312.59   324.16   333.94   341.00
eigval :      365.71   369.75   376.43   379.25   381.98   394.60
eigval :      400.58   406.78   408.29   411.44   429.11   447.10
eigval :      448.46   463.54   494.25   496.80   503.91   532.00
eigval :      532.28   537.77   541.43   554.33   556.93   570.12
eigval :      582.14   584.36   587.72   600.25   606.99   617.41
eigval :      634.19   645.13   655.34   667.24   681.70   689.28
eigval :      697.53   704.13   716.14   737.66   758.49   766.71
eigval :      767.11   770.86   777.76   790.26   798.33   819.20
eigval :      824.32   833.57   857.14   871.35   872.71   874.25
eigval :      881.57   888.50   890.47   893.74   894.91   896.57
eigval :      904.60   905.67   911.22   914.12   915.55   916.29
eigval :      925.72   927.98   930.63   934.23   935.02   956.97
eigval :      967.31   989.89  1003.78  1010.41  1018.56  1027.10
eigval :     1051.59  1067.54  1068.15  1075.73  1077.40  1101.59
eigval :     1108.19  1113.18  1115.86  1117.14  1128.27  1134.75
eigval :     1139.80  1152.34  1158.15  1164.45  1172.08  1172.95
eigval :     1177.20  1177.96  1180.69  1192.43  1196.80  1203.05
eigval :     1209.62  1222.74  1231.97  1233.83  1245.07  1249.89
eigval :     1267.96  1281.90  1284.44  1289.11  1292.61  1295.54
eigval :     1317.39  1318.59  1328.75  1334.90  1336.67  1339.78
eigval :     1343.75  1364.51  1391.15  1394.50  1396.62  1398.96
eigval :     1406.36  1412.62  1415.75  1420.63  1431.66  1446.32
eigval :     1450.48  1455.59  1459.35  1464.06  1474.72  1478.05
eigval :     1479.84  1489.00  1493.54  1516.18  1528.62  1537.05
eigval :     1550.22  1554.21  1556.22  1558.23  1570.67  1576.08
eigval :     3030.61  3032.37  3053.04  3054.97  3059.47  3063.29
eigval :     3072.00  3075.60  3078.70  3079.43  3080.77  3085.52
eigval :     3087.29  3087.89  3091.12  3092.02  3092.20  3092.91
eigval :     3094.46  3094.54  3095.32  3099.08  3099.54  3099.57
eigval :     3100.24  3104.82  3106.10  3106.85  3113.46  3117.11

   temp. (K)  partition function   enthalpy   heat capacity  entropy
                                   cal/mol     cal/K/mol   cal/K/mol   J/K/mol
 298.15  VIB  0.387E+17            21733.731    137.962    134.701
         ROT  0.555E+08              888.752      2.981     38.416
         INT  0.215E+25            22622.483    140.943    173.117
         TR   0.139E+29             1481.254      4.968     44.992
         TOT                       24103.7370   145.9114   218.1092   912.5687

       T/K    H(0)-H(T)+PV         H(T)/Eh          T*S/Eh         G(T)/Eh
   ------------------------------------------------------------------------
    298.15    0.384117E-01    0.603352E+00    0.103631E+00    0.499721E+00
   ------------------------------------------------------------------------

         :::::::::::::::::::::::::::::::::::::::::::::::::::::
         ::                  THERMODYNAMIC                  ::
         :::::::::::::::::::::::::::::::::::::::::::::::::::::
         :: total free energy        -115.524052106539 Eh   ::
         ::.................................................::
         :: total energy             -116.023773243208 Eh   ::
         :: zero point energy           0.564940085002 Eh   ::
         :: G(RRHO) w/o ZPVE           -0.065218948333 Eh   ::
         :: G(RRHO) contrib.            0.499721136669 Eh   ::
         :::::::::::::::::::::::::::::::::::::::::::::::::::::

           -------------------------------------------------
          | TOTAL ENERGY             -116.023773243208 Eh   |
          | TOTAL ENTHALPY           -115.420421408216 Eh   |
          | TOTAL FREE ENERGY        -115.524052106539 Eh   |
          | GRADIENT NORM               0.000096050753 Eh/α |
          | HOMO-LUMO GAP               0.136423510577 eV   |
           -------------------------------------------------

 * finished run on 2025/07/20 at 13:49:32.429
