   * xtb version 6.7.1 (edcfbbe) compiled by 'albert@albert-system' on 2024-07-22

   ID    Z sym.   atoms
    1    6 C      1-9, 11-14, 18-29, 31-44
    2    7 N      10, 30
    3   16 S      15
    4    8 O      16, 17
    5    1 H      45-74

          program call               : xtb data2507/toluene/3CP-DPS-DMAC/3CP-DPS-DMAC_toluene_S0_finalOpt.xtbopt.xyz --gfn 2 --uhf 2 --gbsa toluene --ohess vtight --parallel 40 --molden --ceasefiles --namespace data2507/toluene/3CP-DPS-DMAC/3CP-DPS-DMAC_toluene_T1_preOpt
      * Solvation model:               GBSA
        Solvent                        toluene
        Solvent mass                       9.2140E+01 g/mol
          :  Hamiltonian                  GFN2-xTB          :
 * total energy  :  -116.0197926 Eh     change       -0.3307619E-08 Eh
 * total energy  :  -116.0224380 Eh     change       -0.2645354E-02 Eh
 * total energy  :  -116.0231312 Eh     change       -0.6932207E-03 Eh
 * total energy  :  -116.0232157 Eh     change       -0.8450651E-04 Eh
 * total energy  :  -116.0232659 Eh     change       -0.5016571E-04 Eh
 * total energy  :  -116.0232903 Eh     change       -0.2439552E-04 Eh
 * total energy  :  -116.0233228 Eh     change       -0.3255831E-04 Eh
 * total energy  :  -116.0233608 Eh     change       -0.3800207E-04 Eh
 * total energy  :  -116.0233922 Eh     change       -0.3135325E-04 Eh
 * total energy  :  -116.0234150 Eh     change       -0.2281395E-04 Eh
 * total energy  :  -116.0244376 Eh     change       -0.4018684E-06 Eh
 * total energy  :  -116.0244379 Eh     change       -0.3477969E-06 Eh
 * total energy  :  -116.0244383 Eh     change       -0.3496740E-06 Eh
 * total energy  :  -116.0244386 Eh     change       -0.3500963E-06 Eh
 * total energy  :  -116.0244390 Eh     change       -0.3542517E-06 Eh
 * total energy  :  -116.0244393 Eh     change       -0.3427124E-06 Eh
 * total energy  :  -116.0244396 Eh     change       -0.3008189E-06 Eh
 * total energy  :  -116.0244399 Eh     change       -0.2549062E-06 Eh
 * total energy  :  -116.0244399 Eh     change       -0.2089422E-08 Eh
   *** GEOMETRY OPTIMIZATION CONVERGED AFTER 221 ITERATIONS ***

 final structure:
================
74
 xtb: 6.7.1 (edcfbbe)
C           -5.76126178587502        2.52872694232532        2.35469752258787
C           -5.53218983036764        1.99062521537909        0.92726757304149
C           -6.50874646652231        2.66846566239440       -0.05587514075192
C           -5.79771800443698        0.50274123235112        0.91603593293089
C           -7.04803838072657        0.02324873583404        1.28276643238312
C           -7.35261572493060       -1.32576329930275        1.24948806446465
C           -6.39614778992300       -2.23543621783955        0.81675877548015
C           -5.14844935967239       -1.79190355447893        0.44626517798795
C           -4.82070611995949       -0.42601345752073        0.51153531293618
N           -3.55600574304216       -0.01559274410173        0.15272429382776
C           -2.60464064692473       -0.97620011907467       -0.27376338093028
C           -2.02427404452195       -1.86911219708308        0.65295880600284
C           -1.06006547276104       -2.74786838139867        0.24217471675858
C           -0.66816196869661       -2.78634863590028       -1.10843880177835
S            0.79518746471522       -3.64194646868701       -1.55999882368923
O            0.95880424752641       -4.83104314550429       -0.73504230550786
O            0.80999130205690       -3.84610459299206       -3.00252389300356
C            2.04487382698589       -2.45653563178576       -1.12210905264322
C            2.71379609087485       -2.58485724451343        0.09857759659408
C            3.54927791809559       -1.57942887577045        0.55556849209267
C            3.67322887275895       -0.43202188627252       -0.22009962710239
C            3.00164181818470       -0.30391083953685       -1.47234938589424
C            2.17592005390297       -1.32324662753607       -1.91724788131770
C            3.38787144203846        0.96609300000249       -2.01409337383821
C            3.04927450029749        1.65494234431690       -3.17361942215171
C            3.59034133291969        2.91560207972897       -3.37796051694706
C            4.44354188220946        3.49396809603342       -2.44445825333747
C            4.79764724605898        2.82377815284998       -1.27918480546865
C            4.28042047844666        1.55256908610382       -1.08025444516415
N            4.44270147405416        0.69677739471528       -0.00711806856960
C            5.24909240757245        0.93732555640321        1.10914653201131
C            6.56994590522132        1.35862467523614        0.94317740901943
C            7.36146708142845        1.59981415243759        2.04887507345726
C            6.85302288456073        1.42379064882404        3.32762186806422
C            5.54140140697138        1.00323899804032        3.49494821630289
C            4.73963667186658        0.76084944502041        2.39696539552135
C           -1.25906456799187       -1.90795605760443       -2.03666298395023
C           -2.21177643885050       -1.01703808056613       -1.62798932851851
C           -3.18937916321416        1.31236165550133        0.17328198628884
C           -1.86263777186609        1.66956842116050       -0.13079818642527
C           -1.47487672296793        2.98825809409240       -0.15237786521907
C           -2.39867967822961        3.98499488960951        0.13735675660824
C           -3.69527311337063        3.63880788118915        0.47474111356234
C           -4.11624080738474        2.31667476592008        0.51174748430018
H           -5.08623972238300        2.03535393638935        3.05111580430520
H           -5.57824048515792        3.59784620477657        2.39637961311407
H           -6.78203414230599        2.34471788895800        2.67483118523475
H           -6.34187241088574        2.29382110000313       -1.06389511340072
H           -6.36364892361364        3.74431418248226       -0.05933011096813
H           -7.53783503044327        2.46255349801581        0.22178424238269
H           -7.81151648190211        0.71624527195716        1.59861566576713
H           -8.33327159936653       -1.66581312021139        1.54440319164856
H           -6.62727696693291       -3.28826867679854        0.76372795533433
H           -4.41006019943031       -2.49352128207502        0.09303155095800
H           -2.33357673316958       -1.82895588693174        1.68695764256808
H           -0.58270275894283       -3.43088690373581        0.92721970085124
H            2.57579859630504       -3.49798222380423        0.65523639984072
H            4.09453798802796       -1.69725342435724        1.47894052536256
H            1.65277088970965       -1.27406183224040       -2.85844957410983
H            2.37617331761488        1.21441506514660       -3.89302673876848
H            3.33868350590714        3.46313300380456       -4.27448579185776
H            4.83679408583625        4.48326821235960       -2.62335835973230
H            5.44471111618269        3.28805729357138       -0.55136156704522
H            6.97132051780167        1.46574649231462       -0.05324753123181
H            8.38473860262250        1.91719991483392        1.91299936729478
H            7.47585787906044        1.61196575938631        4.18878245676891
H            5.13908128085299        0.87092343394857        4.48839362373278
H            3.71091494995714        0.45891298692405        2.52308783225595
H           -0.94706693386159       -1.97736541167281       -3.06681889446844
H           -2.68270982339950       -0.34667842130181       -2.33184418647403
H           -1.14264837460796        0.89521603061410       -0.34156235550473
H           -0.45303968429092        3.24066391941248       -0.39163992330222
H           -2.10514272813673        5.02302386626779        0.11468488046909
H           -4.39178354661060        4.42548012838972        0.71770960390503

          :  Hamiltonian                  GFN2-xTB          :
         :: gradient norm              0.000037712440 Eh/a0 ::
         :: HOMO-LUMO gap              0.076125577154 eV    ::
         :: SCC energy              -118.006078143283 Eh    ::
         :: -> dispersion             -0.104363682930 Eh    ::
         :: -> Gsolv                  -0.066765918240 Eh    ::
         :: repulsion energy           1.981638269583 Eh    ::

    * Orbital Energies and Occupations

         #    Occupation            Energy/Eh            Energy/eV
      -------------------------------------------------------------
         1        2.0000           -0.7495285             -20.3957
       ...           ...                  ...                  ...
        96        2.0000           -0.4191156             -11.4047
        97        2.0000           -0.4184185             -11.3857
        98        2.0000           -0.4147931             -11.2871
        99        2.0000           -0.4130727             -11.2403
       100        2.0000           -0.4122859             -11.2189
       101        2.0000           -0.4116928             -11.2027
       102        2.0000           -0.4096615             -11.1475
       103        2.0000           -0.4004431             -10.8966
       104        2.0000           -0.3884518             -10.5703
       105        2.0000           -0.3830919             -10.4245
       106        1.7479           -0.3695808             -10.0568
       107        1.2521           -0.3675141             -10.0006
       108        0.8099           -0.2543302              -6.9207 (HOMO)
       109        0.1831           -0.2515325              -6.8445 (LUMO)
       110        0.0069           -0.2482366              -6.7549
       111        0.0000           -0.2384367              -6.4882
       112        0.0000           -0.2378311              -6.4717
       113                         -0.2373891              -6.4597
       114                         -0.2327218              -6.3327
       115                         -0.2305416              -6.2734
       116                         -0.2247589              -6.1160
       117                         -0.2118634              -5.7651
       118                         -0.2011823              -5.4744
       119                         -0.1916126              -5.2140
       ...                                ...                  ...
       211                          1.1521500              31.3516
      -------------------------------------------------------------
                  HL-Gap            0.0027977 Eh            0.0761 eV

     #   Z          covCN         q      C6AA      α(0)
     1   6 C        3.761    -0.110    22.645     6.784
     2   6 C        3.909     0.025    20.089     6.371
     3   6 C        3.761    -0.109    22.636     6.782
     4   6 C        2.978     0.004    27.929     8.669
     5   6 C        2.924    -0.031    28.784     8.798
     6   6 C        2.917    -0.026    28.654     8.778
     7   6 C        2.917    -0.025    28.630     8.774
     8   6 C        2.922    -0.043    29.074     8.842
     9   6 C        2.930     0.060    26.647     8.466
    10   7 N        2.753     0.011    21.071     6.818
    11   6 C        2.929     0.017    27.632     8.621
    12   6 C        2.914    -0.043    29.069     8.841
    13   6 C        2.956    -0.041    29.011     8.834
    14   6 C        2.965    -0.106    30.671     9.084
    15  16 S        3.846     0.866   110.582    17.699
    16   8 O        0.860    -0.596    26.025     6.840
    17   8 O        0.860    -0.598    26.076     6.846
    18   6 C        2.967    -0.086    30.145     9.006
    19   6 C        2.958    -0.047    29.172     8.859
    20   6 C        2.908    -0.046    29.154     8.854
    21   6 C        3.061     0.036    27.146     8.544
    22   6 C        3.060    -0.016    28.339     8.730
    23   6 C        2.958    -0.042    29.037     8.838
    24   6 C        3.059    -0.016    28.349     8.731
    25   6 C        2.911    -0.037    28.913     8.817
    26   6 C        2.918    -0.034    28.839     8.806
    27   6 C        2.921    -0.040    28.982     8.828
    28   6 C        2.909    -0.048    29.184     8.858
    29   6 C        3.064     0.046    26.899     8.505
    30   7 N        2.799    -0.014    21.524     6.891
    31   6 C        2.913     0.059    26.668     8.468
    32   6 C        2.921    -0.041    29.008     8.832
    33   6 C        2.918    -0.027    28.670     8.781
    34   6 C        2.919    -0.032    28.800     8.800
    35   6 C        2.919    -0.027    28.672     8.781
    36   6 C        2.921    -0.041    29.019     8.834
    37   6 C        2.959    -0.040    29.000     8.833
    38   6 C        2.914    -0.042    29.039     8.837
    39   6 C        2.932     0.059    26.667     8.469
    40   6 C        2.921    -0.043    29.061     8.840
    41   6 C        2.916    -0.025    28.626     8.774
    42   6 C        2.917    -0.026    28.660     8.779
    43   6 C        2.924    -0.031    28.785     8.798
    44   6 C        2.978     0.004    27.930     8.669
    45   1 H        0.925     0.040     2.444     2.445
    46   1 H        0.925     0.056     2.245     2.343
    47   1 H        0.925     0.056     2.243     2.342
    48   1 H        0.925     0.040     2.453     2.449
    49   1 H        0.925     0.056     2.242     2.341
    50   1 H        0.925     0.056     2.250     2.346
    51   1 H        0.926     0.057     2.232     2.336
    52   1 H        0.926     0.050     2.314     2.379
    53   1 H        0.926     0.047     2.363     2.404
    54   1 H        0.926     0.049     2.334     2.389
    55   1 H        0.926     0.044     2.397     2.421
    56   1 H        0.926     0.032     2.551     2.498
    57   1 H        0.926     0.035     2.520     2.483
    58   1 H        0.926     0.045     2.379     2.412
    59   1 H        0.926     0.034     2.533     2.489
    60   1 H        0.926     0.032     2.560     2.502
    61   1 H        0.926     0.036     2.508     2.477
    62   1 H        0.926     0.037     2.495     2.470
    63   1 H        0.926     0.040     2.453     2.449
    64   1 H        0.926     0.045     2.378     2.411
    65   1 H        0.926     0.044     2.393     2.419
    66   1 H        0.926     0.043     2.413     2.429
    67   1 H        0.926     0.044     2.395     2.420
    68   1 H        0.926     0.045     2.385     2.415
    69   1 H        0.926     0.033     2.543     2.494
    70   1 H        0.926     0.043     2.411     2.428
    71   1 H        0.926     0.047     2.357     2.401
    72   1 H        0.926     0.047     2.362     2.403
    73   1 H        0.926     0.051     2.310     2.377
    74   1 H        0.926     0.057     2.233     2.337

molecular dipole:
                 x           y           z       tot (Debye)
 q only:       -3.366       6.321       3.180
   full:       -3.165       5.917       3.057      18.743

 projected vibrational frequencies (cm⁻¹)
eigval :       -0.00    -0.00     0.00     0.00     0.00     0.00
eigval :       -3.15     6.74    13.16    24.02    28.78    43.85
eigval :       52.62    56.85    61.99    63.76    83.54    95.04
eigval :       96.65   101.22   117.36   125.26   134.31   140.04
eigval :      153.16   175.17   194.51   198.59   209.63   214.92
eigval :      216.44   235.07   238.29   261.01   268.88   295.56
eigval :      305.88   309.04   317.50   323.97   334.62   341.30
eigval :      368.08   371.30   377.28   380.00   381.51   390.11
eigval :      403.76   406.39   409.11   413.00   431.71   446.11
eigval :      448.17   465.60   492.91   497.60   500.88   529.50
eigval :      533.18   538.37   541.31   551.30   557.19   569.31
eigval :      581.38   583.41   586.06   601.45   606.74   623.46
eigval :      633.86   642.71   650.44   664.30   682.31   688.89
eigval :      692.20   702.87   716.24   740.32   757.88   761.91
eigval :      770.57   773.27   775.27   787.05   795.41   825.33
eigval :      827.03   834.14   848.98   868.65   871.03   873.38
eigval :      878.41   884.11   887.54   893.60   895.43   899.97
eigval :      903.14   905.53   907.01   911.39   916.80   917.61
eigval :      924.19   927.75   928.43   934.94   935.70   959.44
eigval :      971.72   984.46   999.85  1012.24  1023.39  1035.33
eigval :     1039.96  1065.81  1068.35  1074.66  1078.22  1096.43
eigval :     1105.99  1112.27  1113.66  1116.80  1119.30  1135.95
eigval :     1139.82  1146.34  1156.73  1162.67  1167.92  1172.21
eigval :     1175.44  1178.70  1180.05  1190.75  1193.67  1203.05
eigval :     1207.59  1216.46  1230.08  1232.57  1240.45  1246.88
eigval :     1262.09  1276.74  1286.49  1287.02  1291.56  1295.14
eigval :     1300.07  1309.79  1319.58  1328.56  1332.28  1337.05
eigval :     1346.20  1372.74  1381.35  1395.62  1396.03  1398.95
eigval :     1401.54  1410.45  1414.16  1420.10  1428.73  1436.61
eigval :     1446.02  1446.79  1453.22  1461.42  1468.47  1478.19
eigval :     1479.82  1488.91  1493.84  1515.11  1518.85  1526.75
eigval :     1535.70  1539.11  1547.78  1551.79  1560.51  1572.47
eigval :     3030.63  3032.79  3052.97  3054.79  3059.33  3063.11
eigval :     3075.81  3076.93  3078.90  3079.46  3081.15  3085.02
eigval :     3088.09  3088.45  3089.81  3091.58  3092.12  3094.86
eigval :     3095.07  3095.49  3095.57  3097.84  3098.23  3100.02
eigval :     3102.90  3104.75  3104.92  3105.71  3113.56  3114.28

   temp. (K)  partition function   enthalpy   heat capacity  entropy
                                   cal/mol     cal/K/mol   cal/K/mol   J/K/mol
 298.15  VIB  0.264E+18            21775.814    138.069    136.658
         ROT  0.679E+08              888.752      2.981     38.819
         INT  0.179E+26            22664.566    141.050    175.477
         TR   0.139E+29             1481.254      4.968     44.992
         TOT                       24145.8203   146.0180   220.4689   922.4417

       T/K    H(0)-H(T)+PV         H(T)/Eh          T*S/Eh         G(T)/Eh
   ------------------------------------------------------------------------
    298.15    0.384788E-01    0.602728E+00    0.104752E+00    0.497976E+00
   ------------------------------------------------------------------------

         :::::::::::::::::::::::::::::::::::::::::::::::::::::
         ::                  THERMODYNAMIC                  ::
         :::::::::::::::::::::::::::::::::::::::::::::::::::::
         :: total free energy        -115.526464042862 Eh   ::
         ::.................................................::
         :: total energy             -116.024439876340 Eh   ::
         :: zero point energy           0.564248888095 Eh   ::
         :: G(RRHO) w/o ZPVE           -0.066273054617 Eh   ::
         :: G(RRHO) contrib.            0.497975833478 Eh   ::
         :::::::::::::::::::::::::::::::::::::::::::::::::::::

           -------------------------------------------------
          | TOTAL ENERGY             -116.024439876340 Eh   |
          | TOTAL ENTHALPY           -115.421712174328 Eh   |
          | TOTAL FREE ENERGY        -115.526464042862 Eh   |
          | GRADIENT NORM               0.000037919059 Eh/α |
          | HOMO-LUMO GAP               0.076128663475 eV   |
           -------------------------------------------------

 * finished run on 2025/07/20 at 13:38:45.796
