   * xtb version 6.7.1 (edcfbbe) compiled by 'albert@albert-system' on 2024-07-22

   ID    Z sym.   atoms
    1    6 C      1-12, 14-33
    2    7 N      13
    3    1 H      34-66

          program call               : xtb data2507/toluene/t-BuPCz/t-BuPCz_toluene_S0_crest.xyz --gfn 2 --gbsa toluene --ohess vtight --parallel 40 --molden --ceasefiles --namespace data2507/toluene/t-BuPCz/t-BuPCz_toluene_S0_finalOpt
      * Solvation model:               GBSA
        Solvent                        toluene
        Solvent mass                       9.2140E+01 g/mol
          :  Hamiltonian                  GFN2-xTB          :
 * total energy  :   -88.3635201 Eh     change       -0.2376069E-08 Eh
 * total energy  :   -88.3635384 Eh     change       -0.1823243E-04 Eh
 * total energy  :   -88.3635427 Eh     change       -0.4381658E-05 Eh
 * total energy  :   -88.3635453 Eh     change       -0.2573380E-05 Eh
 * total energy  :   -88.3635477 Eh     change       -0.2355095E-05 Eh
 * total energy  :   -88.3635508 Eh     change       -0.3130023E-05 Eh
 * total energy  :   -88.3635536 Eh     change       -0.2839600E-05 Eh
 * total energy  :   -88.3635549 Eh     change       -0.1229713E-05 Eh
 * total energy  :   -88.3635551 Eh     change       -0.2079081E-06 Eh
 * total energy  :   -88.3635556 Eh     change       -0.5126794E-06 Eh
 * total energy  :   -88.3635577 Eh     change       -0.5613245E-06 Eh
 * total energy  :   -88.3635584 Eh     change       -0.6742742E-06 Eh
 * total energy  :   -88.3635592 Eh     change       -0.7330372E-06 Eh
 * total energy  :   -88.3635599 Eh     change       -0.7768432E-06 Eh
 * total energy  :   -88.3635609 Eh     change       -0.1011461E-05 Eh
 * total energy  :   -88.3635622 Eh     change       -0.1303952E-05 Eh
 * total energy  :   -88.3635638 Eh     change       -0.1513543E-05 Eh
 * total energy  :   -88.3635652 Eh     change       -0.1407839E-05 Eh
 * total energy  :   -88.3635652 Eh     change       -0.5707278E-08 Eh
   *** GEOMETRY OPTIMIZATION CONVERGED AFTER 22 ITERATIONS ***

 final structure:
================
66
 xtb: 6.7.1 (edcfbbe)
C           -6.42109618318171        4.02662651711185       -0.37367777590504
C           -7.08400279092259        2.70680508428822        0.04860819686759
C           -8.26112991751049        2.44145380571562       -0.89499753494347
C           -7.63557515338215        2.83543032058637        1.47650559234481
C           -6.04331938351621        1.59759241564667        0.01587115093864
C           -6.15733092177904        0.47153968439455       -0.79095587056001
C           -5.18794920838469       -0.51556867989079       -0.79114263384424
C           -4.05824266604756       -0.41538888226377        0.01380907544660
C           -3.02321347818755       -1.46079124089698        0.01029809198838
C           -3.39396335602248       -2.81312403919177        0.00179884733628
C           -2.45911743267046       -3.82844716806530        0.00101547216837
C           -1.11795228702112       -3.47553235255921        0.00090601942270
N            0.00102872514943       -4.26962556085912       -0.00503860026062
C            1.11909756965033       -3.47424515915207       -0.00615407139217
C            2.46065062790040       -3.82565119008894       -0.01039364979753
C            3.39435130580567       -2.80929277215251       -0.00681453085758
C            3.02212180059756       -1.45732466348233       -0.00648568048417
C            4.05628028755169       -0.41107116454312       -0.00906424781735
C            5.19053085205498       -0.51467049656117        0.78903580833335
C            6.16024796053276        0.47211480572352        0.78703638069441
C            6.04193144106201        1.60138219507302       -0.01466907454635
C            7.08303655189765        2.71011770996695       -0.04957932694677
C            7.62092112127336        2.84888333578011       -1.48177667776446
C            6.42483838699935        4.02708350141603        0.38873422167640
C            8.26918544568413        2.43700488171388        0.88043792237286
C            4.90418182468289        1.69917738517773       -0.81343504520283
C            3.93131418980933        0.72023096272709       -0.81192130605502
C            1.67587482625448       -1.11295544147012       -0.00593716186019
C            0.71907417364617       -2.11687382304685       -0.00187387527843
C           -0.71943318003390       -2.11771729681980        0.00608542008467
C           -1.67737056554125       -1.11491884422177        0.01512441751577
C           -3.93799419593596        0.71222274260139        0.82251764882088
C           -4.91070568772818        1.69134971498951        0.82240249847682
H           -7.15374627332503        4.83121414434248       -0.37335060353781
H           -6.00808269105770        3.93562674278981       -1.37666391393062
H           -5.61530587400140        4.29961387125805        0.30232023615474
H           -8.97118517203530        3.26366961688494       -0.82827194236048
H           -7.92681951252655        2.36988469397784       -1.92768077862718
H           -8.78173811179895        1.52563461461429       -0.62390296163471
H           -8.08414613944238        1.89542207374930        1.79274762297346
H           -6.85090096899803        3.09246070264394        2.18284108160553
H           -8.39690687360145        3.61199267594186        1.51556270566734
H           -7.00904273338661        0.34523729286315       -1.43994641346292
H           -5.30245400870607       -1.36934519793210       -1.44435130071606
H           -4.44467418742219       -3.06380420450608        0.01707788214880
H           -2.76407701067337       -4.86481426279515        0.00268000277371
H            0.00165346577209       -5.27552855229199       -0.00883742860536
H            2.76677005112253       -4.86164061625783       -0.01912141213952
H            4.44529189045477       -3.05871493735030       -0.02605027380232
H            5.30873864536319       -1.37116541323612        1.43801680962959
H            7.01583156742057        0.34283071322832        1.43032692754374
H            8.06092264024238        1.90933235427290       -1.81114828530910
H            8.38625309614406        3.62146855002074       -1.52132160644635
H            6.83083619791723        3.11702896829176       -2.17786622325658
H            5.61236596426434        4.30490590883139       -0.27726539032903
H            6.02182018745601        3.92902253308627        1.39511660355074
H            7.15769223292463        4.83148787777546        0.38679072001923
H            8.78598440661113        1.52253000929000        0.59768058844970
H            8.97941897348087        3.25896959005952        0.81245234730314
H            7.94517094044852        2.35856462743094        1.91588442902846
H            4.76774886599780        2.55597136655496       -1.45694187981129
H            3.06973561921009        0.82311231789103       -1.45671293206900
H            1.37792809635394       -0.07511584289246        0.01176380287406
H           -1.38059374189523       -0.07664609439450        0.00464474314589
H           -3.08024554601162        0.81214274754927        1.47286430495291
H           -4.77812641989057        2.54519979476128        1.47062157734431

          :  Hamiltonian                  GFN2-xTB          :
         :: gradient norm              0.000053328004 Eh/a0 ::
         :: HOMO-LUMO gap              3.135808949609 eV    ::
         :: SCC energy               -89.960539455485 Eh    ::
         :: -> dispersion             -0.075151396543 Eh    ::
         :: -> Gsolv                  -0.035434306788 Eh    ::
         :: repulsion energy           1.596974285352 Eh    ::

    * Orbital Energies and Occupations

         #    Occupation            Energy/Eh            Energy/eV
      -------------------------------------------------------------
         1        2.0000           -0.6749103             -18.3652
       ...           ...                  ...                  ...
        71        2.0000           -0.4196577             -11.4195
        72        2.0000           -0.4189134             -11.3992
        73        2.0000           -0.4109515             -11.1826
        74        2.0000           -0.4085845             -11.1182
        75        2.0000           -0.4077545             -11.0956
        76        2.0000           -0.4054084             -11.0317
        77        2.0000           -0.4016235             -10.9287
        78        2.0000           -0.3959095             -10.7732
        79        2.0000           -0.3958792             -10.7724
        80        2.0000           -0.3906710             -10.6307
        81        2.0000           -0.3831323             -10.4256
        82        2.0000           -0.3715442             -10.1102
        83        2.0000           -0.3574957              -9.7280 (HOMO)
        84                         -0.2422569              -6.5921 (LUMO)
        85                         -0.2379997              -6.4763
        86                         -0.2263988              -6.1606
        87                         -0.2137986              -5.8178
        88                         -0.2137733              -5.8171
        89                         -0.2006161              -5.4590
        90                         -0.1775629              -4.8317
        91                         -0.1761252              -4.7926
        92                         -0.0983117              -2.6752
        93                         -0.0864388              -2.3521
        94                         -0.0707608              -1.9255
       ...                                ...                  ...
       165                          0.7502095              20.4142
      -------------------------------------------------------------
                  HL-Gap            0.1152389 Eh            3.1358 eV

     #   Z          covCN         q      C6AA      α(0)
     1   6 C        3.761    -0.104    22.536     6.767
     2   6 C        3.902     0.025    20.106     6.374
     3   6 C        3.761    -0.106    22.580     6.774
     4   6 C        3.761    -0.104    22.536     6.767
     5   6 C        2.972     0.005    27.908     8.665
     6   6 C        2.924    -0.042    29.044     8.838
     7   6 C        2.924    -0.039    28.981     8.828
     8   6 C        2.976     0.004    27.934     8.670
     9   6 C        2.976    -0.004    28.111     8.697
    10   6 C        2.929    -0.039    28.969     8.827
    11   6 C        2.908    -0.057    29.420     8.894
    12   6 C        3.072     0.052    26.751     8.480
    13   7 N        2.754    -0.123    23.665     7.225
    14   6 C        3.072     0.052    26.751     8.480
    15   6 C        2.908    -0.057    29.420     8.894
    16   6 C        2.929    -0.039    28.969     8.827
    17   6 C        2.975    -0.004    28.111     8.697
    18   6 C        2.976     0.004    27.934     8.670
    19   6 C        2.924    -0.039    28.982     8.828
    20   6 C        2.924    -0.042    29.044     8.838
    21   6 C        2.972     0.005    27.908     8.665
    22   6 C        3.902     0.025    20.106     6.374
    23   6 C        3.761    -0.104    22.536     6.767
    24   6 C        3.761    -0.104    22.536     6.767
    25   6 C        3.761    -0.106    22.580     6.774
    26   6 C        2.926    -0.038    28.934     8.821
    27   6 C        2.924    -0.039    28.970     8.827
    28   6 C        2.918    -0.039    28.978     8.828
    29   6 C        3.068    -0.018    28.398     8.738
    30   6 C        3.068    -0.018    28.398     8.738
    31   6 C        2.918    -0.039    28.978     8.828
    32   6 C        2.924    -0.039    28.970     8.827
    33   6 C        2.926    -0.038    28.934     8.821
    34   1 H        0.925     0.038     2.473     2.459
    35   1 H        0.925     0.032     2.557     2.501
    36   1 H        0.925     0.036     2.502     2.474
    37   1 H        0.925     0.037     2.491     2.468
    38   1 H        0.925     0.035     2.512     2.478
    39   1 H        0.925     0.035     2.512     2.478
    40   1 H        0.925     0.032     2.557     2.501
    41   1 H        0.925     0.036     2.501     2.473
    42   1 H        0.925     0.038     2.473     2.459
    43   1 H        0.926     0.035     2.519     2.482
    44   1 H        0.926     0.026     2.644     2.543
    45   1 H        0.926     0.032     2.562     2.503
    46   1 H        0.926     0.028     2.611     2.527
    47   1 H        0.860     0.161     1.327     1.804
    48   1 H        0.926     0.028     2.611     2.527
    49   1 H        0.926     0.032     2.562     2.503
    50   1 H        0.926     0.026     2.644     2.543
    51   1 H        0.926     0.035     2.519     2.482
    52   1 H        0.925     0.032     2.557     2.501
    53   1 H        0.925     0.038     2.473     2.459
    54   1 H        0.925     0.036     2.501     2.473
    55   1 H        0.925     0.036     2.502     2.474
    56   1 H        0.925     0.032     2.557     2.501
    57   1 H        0.925     0.038     2.473     2.459
    58   1 H        0.925     0.035     2.511     2.478
    59   1 H        0.925     0.037     2.491     2.468
    60   1 H        0.925     0.035     2.511     2.478
    61   1 H        0.926     0.028     2.620     2.531
    62   1 H        0.926     0.026     2.647     2.544
    63   1 H        0.926     0.031     2.574     2.509
    64   1 H        0.926     0.031     2.574     2.509
    65   1 H        0.926     0.026     2.647     2.544
    66   1 H        0.926     0.028     2.621     2.531

molecular dipole:
                 x           y           z       tot (Debye)
 q only:        0.000      -0.212      -0.002
   full:        0.001      -0.478      -0.004       1.214

 projected vibrational frequencies (cm⁻¹)
eigval :       -0.00    -0.00     0.00     0.00     0.00     0.00
eigval :       14.75    16.70    18.11    32.19    34.29    51.12
eigval :       59.80    67.75    80.28    99.06   127.17   132.11
eigval :      159.87   175.88   181.66   191.76   197.22   202.90
eigval :      219.38   225.98   231.11   243.58   263.18   291.94
eigval :      298.68   309.33   309.77   314.87   320.47   362.32
eigval :      365.87   368.85   375.66   376.47   383.05   392.07
eigval :      395.53   406.90   429.10   430.87   444.62   453.88
eigval :      461.63   466.23   480.78   513.61   528.91   544.51
eigval :      547.64   574.00   581.85   601.03   610.42   613.50
eigval :      631.73   658.94   671.09   684.47   700.46   704.38
eigval :      709.27   738.55   764.55   805.55   805.62   826.48
eigval :      828.34   838.44   866.16   869.07   870.63   873.18
eigval :      878.18   879.86   887.78   899.60   907.34   907.77
eigval :      916.87   916.97   929.31   929.46   958.41   958.70
eigval :      960.67   960.68   962.91   963.40   985.35  1001.87
eigval :     1022.53  1033.16  1033.20  1035.09  1035.19  1076.70
eigval :     1078.44  1142.79  1143.72  1144.59  1150.71  1152.74
eigval :     1155.14  1164.15  1199.72  1214.98  1217.46  1224.90
eigval :     1225.01  1225.16  1231.23  1231.80  1233.00  1274.37
eigval :     1279.09  1281.97  1282.18  1289.78  1298.57  1313.17
eigval :     1317.48  1321.46  1327.15  1344.88  1378.64  1393.75
eigval :     1395.21  1402.52  1402.59  1404.59  1406.03  1420.44
eigval :     1426.19  1426.43  1431.11  1473.56  1473.65  1488.11
eigval :     1488.50  1492.15  1492.28  1495.48  1495.63  1500.80
eigval :     1501.08  1509.16  1509.62  1510.67  1510.85  1516.81
eigval :     1516.94  1564.50  1564.99  1571.63  1579.76  1600.23
eigval :     1603.20  1608.23  1617.71  3018.19  3018.23  3019.05
eigval :     3019.15  3022.26  3022.28  3023.87  3023.90  3026.08
eigval :     3026.09  3029.49  3029.54  3034.40  3034.45  3042.06
eigval :     3042.11  3045.81  3046.23  3064.45  3064.59  3067.44
eigval :     3067.44  3071.05  3071.27  3079.04  3079.26  3081.47
eigval :     3082.75  3084.88  3086.97  3105.19  3105.23  3481.65

   temp. (K)  partition function   enthalpy   heat capacity  entropy
                                   cal/mol     cal/K/mol   cal/K/mol   J/K/mol
 298.15  VIB  0.924E+13            17571.803    111.907    107.088
         ROT  0.254E+08              888.752      2.981     36.863
         INT  0.235E+21            18460.555    114.887    143.951
         TR   0.868E+28             1481.254      4.968     44.057
         TOT                       19941.8091   119.8556   188.0082   786.6264

       T/K    H(0)-H(T)+PV         H(T)/Eh          T*S/Eh         G(T)/Eh
   ------------------------------------------------------------------------
    298.15    0.317793E-01    0.581325E+00    0.893288E-01    0.491996E+00
   ------------------------------------------------------------------------

         :::::::::::::::::::::::::::::::::::::::::::::::::::::
         ::                  THERMODYNAMIC                  ::
         :::::::::::::::::::::::::::::::::::::::::::::::::::::
         :: total free energy         -87.871568924522 Eh   ::
         ::.................................................::
         :: total energy              -88.363565166875 Eh   ::
         :: zero point energy           0.549545720963 Eh   ::
         :: G(RRHO) w/o ZPVE           -0.057549478610 Eh   ::
         :: G(RRHO) contrib.            0.491996242353 Eh   ::
         :::::::::::::::::::::::::::::::::::::::::::::::::::::

           -------------------------------------------------
          | TOTAL ENERGY              -88.363565166875 Eh   |
          | TOTAL ENTHALPY            -87.782240150283 Eh   |
          | TOTAL FREE ENERGY         -87.871568924522 Eh   |
          | GRADIENT NORM               0.000053327320 Eh/α |
          | HOMO-LUMO GAP               3.135808966857 eV   |
           -------------------------------------------------

 * finished run on 2025/09/13 at 19:25:14.602
