   * xtb version 6.7.1 (edcfbbe) compiled by 'albert@albert-system' on 2024-07-22

   ID    Z sym.   atoms
    1    6 C      1-12, 14-33
    2    7 N      13
    3    1 H      34-66

          program call               : xtb data2507/toluene/t-BuPCz/t-BuPCz_toluene_T1_crest.xyz --gfn 2 --uhf 2 --gbsa toluene --ohess vtight --parallel 40 --molden --ceasefiles --namespace data2507/toluene/t-BuPCz/t-BuPCz_toluene_T1_finalOpt
      * Solvation model:               GBSA
        Solvent                        toluene
        Solvent mass                       9.2140E+01 g/mol
          :  Hamiltonian                  GFN2-xTB          :
 * total energy  :   -88.2548557 Eh     change       -0.5402157E-08 Eh
 * total energy  :   -88.2548736 Eh     change       -0.1788705E-04 Eh
 * total energy  :   -88.2548802 Eh     change       -0.6623066E-05 Eh
 * total energy  :   -88.2548832 Eh     change       -0.2978150E-05 Eh
 * total energy  :   -88.2548879 Eh     change       -0.4667948E-05 Eh
 * total energy  :   -88.2548922 Eh     change       -0.4360722E-05 Eh
 * total energy  :   -88.2548980 Eh     change       -0.5775672E-05 Eh
 * total energy  :   -88.2549040 Eh     change       -0.5963005E-05 Eh
 * total energy  :   -88.2549078 Eh     change       -0.3798535E-05 Eh
 * total energy  :   -88.2549106 Eh     change       -0.2858326E-05 Eh
 * total energy  :   -88.2549471 Eh     change       -0.4114369E-06 Eh
 * total energy  :   -88.2549475 Eh     change       -0.4735255E-06 Eh
 * total energy  :   -88.2549481 Eh     change       -0.5343823E-06 Eh
 * total energy  :   -88.2549486 Eh     change       -0.5454891E-06 Eh
 * total energy  :   -88.2549492 Eh     change       -0.5563509E-06 Eh
 * total energy  :   -88.2549497 Eh     change       -0.5083067E-06 Eh
 * total energy  :   -88.2549500 Eh     change       -0.3498905E-06 Eh
 * total energy  :   -88.2549502 Eh     change       -0.1748817E-06 Eh
 * total energy  :   -88.2549503 Eh     change       -0.9970434E-07 Eh
   *** GEOMETRY OPTIMIZATION CONVERGED AFTER 38 ITERATIONS ***

 final structure:
================
66
 xtb: 6.7.1 (edcfbbe)
C           -8.42574544150330        2.11092847218958       -0.61106303632254
C           -7.15692577890111        2.67794076040291        0.04401069739091
C           -7.44661412965119        3.03740858841196        1.50959226013549
C           -6.77227364394312        3.96328892412871       -0.69513625321543
C           -6.06214761951260        1.62467119322402       -0.00132988308567
C           -6.26064564605037        0.39315372388504        0.62592261052465
C           -5.30079306717864       -0.59378073171310        0.60962106412456
C           -4.07275829335037       -0.40107614839400       -0.03542740566173
C           -3.05030337762242       -1.43800353333526       -0.05456081637481
C           -3.40927378020442       -2.79771832523805       -0.08124180630173
C           -2.47348510090122       -3.80834815053758       -0.10119293076387
C           -1.12673733900898       -3.45077024480165       -0.08502804458390
N           -0.00654979627357       -4.23470004328995       -0.08797567620555
C            1.10952145201265       -3.45660326025216       -0.06122056423092
C            2.47325587041343       -3.81212525104312       -0.04259806767296
C            3.40195776581747       -2.81944862465400       -0.00452599513730
C            3.06422691989492       -1.41656298012833        0.00259308720717
C            4.05227536686134       -0.41660854480254        0.02107564359619
C            5.43484120042278       -0.68935284564519        0.29642357239135
C            6.37839486159073        0.29294716518825        0.30936353519713
C            6.07093177816793        1.64395956713762        0.03956760083580
C            7.16641736447952        2.68731690346605        0.05744156962533
C            8.23447763316398        2.31594596856781       -0.98564882570892
C            6.65170311431246        4.09325876572703       -0.26654361293478
C            7.80854454674229        2.72290262446919        1.45508512960701
C            4.72224216978475        1.93177409906970       -0.23537770214181
C            3.75792630046923        0.96513301311895       -0.23852949796479
C            1.65124424812978       -1.08811938986164       -0.01588225666362
C            0.71922437960695       -2.08222635111684       -0.04168327616405
C           -0.73338290208406       -2.08597037836882       -0.05597062689423
C           -1.68265310593217       -1.09278176663542       -0.04549288880016
C           -3.87206270067037        0.83455669681482       -0.65976377882405
C           -4.84230354745391        1.81602056418290       -0.64493662976879
H           -9.21914018762572        2.85560545798140       -0.59795496041010
H           -8.78018853256462        1.22662312466726       -0.08842097668823
H           -8.22492371716946        1.83759683436899       -1.64538560583023
H           -8.21435737028082        3.80685043200281        1.56227941276581
H           -7.79270139329367        2.17240137122285        2.06885355036634
H           -6.54547161941154        3.41478867593389        1.98947689642841
H           -5.89202886093085        4.42212830082222       -0.25021006660502
H           -6.57895857546329        3.76683183008360       -1.74746634598954
H           -7.59165652481335        4.67694168670725       -0.63178244099803
H           -7.18683003235992        0.19767734873489        1.14650892039435
H           -5.48946965287204       -1.52059488735140        1.13201085162157
H           -4.45666728666593       -3.05750617365558       -0.11672523116093
H           -2.77393783073414       -4.84523365237713       -0.13446322274761
H           -0.00805865665185       -5.24316502090490       -0.10109335624845
H            2.76696791547492       -4.85167756454186       -0.06457095013779
H            4.44355910202151       -3.09579510345683       -0.01591927204900
H            5.73915032594390       -1.69535377609572        0.53927115945056
H            7.39843678954333        0.02007620552254        0.53996918248381
H            8.68095276963849        1.34948826647420       -0.76812529438415
H            9.02511763126598        3.06363150838228       -0.99346027742509
H            7.79028885987714        2.27047965789133       -1.97828412599036
H            6.21242247845195        4.12922050513479       -1.26113327601609
H            5.91118765995333        4.41628739479328        0.46190365659716
H            7.48025862238735        4.79849705101931       -0.23906341454538
H            8.23955992503179        1.76046109510462        1.71710998640511
H            8.59865964393022        3.47061743341505        1.48435013183760
H            7.06202172015965        2.97762984956563        2.20503819153342
H            4.42490995171712        2.94486515684825       -0.45761716502807
H            2.74847681982966        1.25303258731346       -0.48572647640939
H            1.33596203338784       -0.05979338511726        0.02995129634762
H           -1.38727893741570       -0.05603800114502        0.00210715478106
H           -2.95082125231379        1.01774764148718       -1.19400547678939
H           -4.63182492027281        2.74348366610184       -1.15337204057193

          :  Hamiltonian                  GFN2-xTB          :
         :: gradient norm              0.000027759279 Eh/a0 ::
         :: HOMO-LUMO gap              0.367245763253 eV    ::
         :: SCC energy               -89.830153222906 Eh    ::
         :: -> dispersion             -0.075123739004 Eh    ::
         :: -> Gsolv                  -0.035881146872 Eh    ::
         :: repulsion energy           1.575202907138 Eh    ::

    * Orbital Energies and Occupations

         #    Occupation            Energy/Eh            Energy/eV
      -------------------------------------------------------------
         1        2.0000           -0.6808728             -18.5275
       ...           ...                  ...                  ...
        72        2.0000           -0.4177046             -11.3663
        73        2.0000           -0.4108101             -11.1787
        74        2.0000           -0.4107315             -11.1766
        75        2.0000           -0.4089272             -11.1275
        76        2.0000           -0.4031358             -10.9699
        77        2.0000           -0.3965537             -10.7908
        78        2.0000           -0.3952259             -10.7546
        79        2.0000           -0.3945571             -10.7364
        80        2.0000           -0.3923119             -10.6753
        81        2.0000           -0.3852047             -10.4820
        82        1.9999           -0.3675189             -10.0007
        83        1.0001           -0.3498810              -9.5207
        84        0.9992           -0.2534689              -6.8972 (HOMO)
        85        0.0008           -0.2399731              -6.5300 (LUMO)
        86        0.0000           -0.2349981              -6.3946
        87                         -0.2118828              -5.7656
        88                         -0.2054614              -5.5909
        89                         -0.1997414              -5.4352
        90                         -0.1763272              -4.7981
        91                         -0.1713951              -4.6639
        92                         -0.1043602              -2.8398
        93                         -0.0886978              -2.4136
        94                         -0.0649957              -1.7686
        95                         -0.0499343              -1.3588
       ...                                ...                  ...
       165                          0.7553491              20.5541
      -------------------------------------------------------------
                  HL-Gap            0.0134958 Eh            0.3672 eV

     #   Z          covCN         q      C6AA      α(0)
     1   6 C        3.761    -0.104    22.532     6.767
     2   6 C        3.902     0.025    20.102     6.373
     3   6 C        3.761    -0.104    22.529     6.766
     4   6 C        3.761    -0.106    22.573     6.773
     5   6 C        2.972     0.003    27.962     8.674
     6   6 C        2.924    -0.038    28.944     8.823
     7   6 C        2.922    -0.041    29.014     8.833
     8   6 C        2.973     0.001    27.991     8.678
     9   6 C        2.973    -0.003    28.084     8.693
    10   6 C        2.926    -0.040    28.987     8.829
    11   6 C        2.905    -0.053    29.307     8.877
    12   6 C        3.064     0.041    27.010     8.522
    13   7 N        2.753    -0.082    22.826     7.096
    14   6 C        3.062     0.035    27.150     8.545
    15   6 C        2.900    -0.049    29.221     8.863
    16   6 C        2.919    -0.043    29.065     8.841
    17   6 C        2.963    -0.002    28.067     8.690
    18   6 C        2.964    -0.004    28.126     8.699
    19   6 C        2.914    -0.044    29.087     8.844
    20   6 C        2.915    -0.038    28.935     8.821
    21   6 C        2.970    -0.004    28.111     8.697
    22   6 C        3.902     0.026    20.074     6.369
    23   6 C        3.761    -0.103    22.517     6.764
    24   6 C        3.761    -0.106    22.564     6.772
    25   6 C        3.761    -0.103    22.515     6.764
    26   6 C        2.913    -0.042    29.031     8.835
    27   6 C        2.915    -0.044    29.087     8.844
    28   6 C        2.909    -0.048    29.192     8.860
    29   6 C        3.047    -0.010    28.210     8.711
    30   6 C        3.057    -0.014    28.315     8.726
    31   6 C        2.915    -0.038    28.949     8.823
    32   6 C        2.923    -0.041    29.008     8.832
    33   6 C        2.922    -0.042    29.047     8.838
    34   1 H        0.925     0.038     2.477     2.461
    35   1 H        0.925     0.036     2.503     2.474
    36   1 H        0.925     0.032     2.558     2.501
    37   1 H        0.925     0.038     2.477     2.461
    38   1 H        0.925     0.036     2.503     2.474
    39   1 H        0.925     0.032     2.560     2.502
    40   1 H        0.925     0.035     2.515     2.480
    41   1 H        0.925     0.035     2.515     2.480
    42   1 H        0.925     0.036     2.496     2.471
    43   1 H        0.926     0.026     2.643     2.542
    44   1 H        0.926     0.025     2.652     2.547
    45   1 H        0.926     0.034     2.524     2.484
    46   1 H        0.926     0.032     2.561     2.503
    47   1 H        0.860     0.169     1.276     1.770
    48   1 H        0.926     0.030     2.585     2.514
    49   1 H        0.926     0.033     2.541     2.493
    50   1 H        0.926     0.023     2.692     2.566
    51   1 H        0.926     0.022     2.696     2.568
    52   1 H        0.925     0.036     2.499     2.472
    53   1 H        0.925     0.038     2.471     2.458
    54   1 H        0.925     0.032     2.556     2.500
    55   1 H        0.925     0.035     2.517     2.481
    56   1 H        0.925     0.035     2.517     2.481
    57   1 H        0.925     0.036     2.500     2.473
    58   1 H        0.925     0.036     2.500     2.473
    59   1 H        0.925     0.038     2.471     2.458
    60   1 H        0.925     0.032     2.555     2.500
    61   1 H        0.926     0.029     2.594     2.519
    62   1 H        0.926     0.023     2.681     2.561
    63   1 H        0.926     0.031     2.567     2.505
    64   1 H        0.926     0.034     2.532     2.488
    65   1 H        0.926     0.025     2.654     2.547
    66   1 H        0.926     0.033     2.545     2.495

molecular dipole:
                 x           y           z       tot (Debye)
 q only:       -0.267      -0.676      -0.015
   full:       -0.256      -0.951      -0.011       2.504

 projected vibrational frequencies (cm⁻¹)
eigval :       -0.00    -0.00    -0.00     0.00     0.00     0.00
eigval :       20.08    22.11    24.11    29.39    40.66    53.07
eigval :       62.10    67.16    82.18    94.43   115.37   136.66
eigval :      147.43   161.55   179.60   189.46   191.80   195.65
eigval :      217.28   223.87   226.83   244.48   254.31   276.28
eigval :      300.47   302.24   309.63   314.27   319.77   328.49
eigval :      358.43   363.90   365.04   368.56   373.11   377.08
eigval :      384.36   394.63   396.10   417.05   433.76   458.41
eigval :      462.36   478.00   479.31   506.98   514.82   524.86
eigval :      540.00   559.98   568.28   591.38   594.94   604.53
eigval :      610.03   652.34   654.56   659.82   664.59   684.84
eigval :      695.46   725.04   742.16   768.34   774.40   776.50
eigval :      787.60   797.38   816.26   822.66   832.58   852.71
eigval :      861.28   867.85   872.26   883.90   889.65   897.89
eigval :      900.72   910.82   912.41   925.74   953.70   957.75
eigval :      959.43   960.34   960.72   962.08   963.44   976.88
eigval :      982.59  1000.38  1027.08  1032.00  1034.47  1035.24
eigval :     1058.77  1106.78  1109.02  1131.48  1141.37  1144.91
eigval :     1154.16  1161.53  1175.74  1189.07  1194.26  1211.57
eigval :     1220.81  1223.33  1225.13  1229.06  1231.58  1241.70
eigval :     1262.17  1273.52  1280.70  1284.12  1290.93  1295.33
eigval :     1318.31  1322.04  1324.19  1346.21  1355.14  1369.51
eigval :     1376.00  1396.81  1397.58  1400.90  1401.52  1407.49
eigval :     1413.74  1422.97  1425.51  1426.77  1455.36  1463.61
eigval :     1469.20  1485.91  1487.77  1488.65  1491.59  1492.36
eigval :     1497.84  1499.17  1500.06  1502.12  1509.00  1510.75
eigval :     1512.98  1516.40  1517.38  1519.54  1529.22  1530.84
eigval :     1562.08  1590.34  1616.94  3017.18  3017.96  3018.11
eigval :     3019.12  3022.41  3022.62  3023.36  3024.17  3025.91
eigval :     3026.33  3029.39  3029.74  3034.06  3034.43  3042.85
eigval :     3043.66  3045.45  3046.76  3064.05  3066.30  3069.16
eigval :     3070.96  3073.92  3079.49  3086.22  3089.20  3089.74
eigval :     3092.80  3099.97  3103.45  3108.93  3116.69  3445.01

   temp. (K)  partition function   enthalpy   heat capacity  entropy
                                   cal/mol     cal/K/mol   cal/K/mol   J/K/mol
 298.15  VIB  0.623E+13            17933.006    114.463    108.798
         ROT  0.511E+08              888.752      2.981     38.252
         INT  0.318E+21            18821.758    117.444    147.050
         TR   0.868E+28             1481.254      4.968     44.057
         TOT                       20303.0120   122.4120   191.1070   799.5918

       T/K    H(0)-H(T)+PV         H(T)/Eh          T*S/Eh         G(T)/Eh
   ------------------------------------------------------------------------
    298.15    0.323549E-01    0.577208E+00    0.908011E-01    0.486407E+00
   ------------------------------------------------------------------------

         :::::::::::::::::::::::::::::::::::::::::::::::::::::
         ::                  THERMODYNAMIC                  ::
         :::::::::::::::::::::::::::::::::::::::::::::::::::::
         :: total free energy         -87.768543646700 Eh   ::
         ::.................................................::
         :: total energy              -88.254950314574 Eh   ::
         :: zero point energy           0.544852879292 Eh   ::
         :: G(RRHO) w/o ZPVE           -0.058446211417 Eh   ::
         :: G(RRHO) contrib.            0.486406667874 Eh   ::
         :::::::::::::::::::::::::::::::::::::::::::::::::::::

           -------------------------------------------------
          | TOTAL ENERGY              -88.254950314574 Eh   |
          | TOTAL ENTHALPY            -87.677742526163 Eh   |
          | TOTAL FREE ENERGY         -87.768543646700 Eh   |
          | GRADIENT NORM               0.000027869503 Eh/α |
          | HOMO-LUMO GAP               0.367239435081 eV   |
           -------------------------------------------------

 * finished run on 2025/09/13 at 19:28:29.205
