   * xtb version 6.7.1 (edcfbbe) compiled by 'albert@albert-system' on 2024-07-22

   ID    Z sym.   atoms
    1    6 C      1-12, 14-33
    2    7 N      13
    3    1 H      34-66

          program call               : xtb data2507/toluene/t-BuPCz/t-BuPCz.xyz --gfn 2 --gbsa toluene --ohess vtight --parallel 40 --molden --ceasefiles --namespace data2507/toluene/t-BuPCz/t-BuPCz_toluene_S0_preOpt
      * Solvation model:               GBSA
        Solvent                        toluene
        Solvent mass                       9.2140E+01 g/mol
          :  Hamiltonian                  GFN2-xTB          :
 * total energy  :   -88.3512101 Eh     change       -0.3715925E-08 Eh
 * total energy  :   -88.3598315 Eh     change       -0.8621351E-02 Eh
 * total energy  :   -88.3617574 Eh     change       -0.1925947E-02 Eh
 * total energy  :   -88.3623237 Eh     change       -0.5662714E-03 Eh
 * total energy  :   -88.3626347 Eh     change       -0.3109834E-03 Eh
 * total energy  :   -88.3627298 Eh     change       -0.9506174E-04 Eh
 * total energy  :   -88.3628351 Eh     change       -0.1053168E-03 Eh
 * total energy  :   -88.3629455 Eh     change       -0.1104512E-03 Eh
 * total energy  :   -88.3630577 Eh     change       -0.1121600E-03 Eh
 * total energy  :   -88.3631586 Eh     change       -0.1008614E-03 Eh
 * total energy  :   -88.3635552 Eh     change       -0.1472356E-05 Eh
 * total energy  :   -88.3635567 Eh     change       -0.1551829E-05 Eh
 * total energy  :   -88.3635583 Eh     change       -0.1599969E-05 Eh
 * total energy  :   -88.3635599 Eh     change       -0.1604823E-05 Eh
 * total energy  :   -88.3635614 Eh     change       -0.1426273E-05 Eh
 * total energy  :   -88.3635625 Eh     change       -0.1150258E-05 Eh
 * total energy  :   -88.3635633 Eh     change       -0.8172776E-06 Eh
 * total energy  :   -88.3635640 Eh     change       -0.6287752E-06 Eh
 * total energy  :   -88.3635640 Eh     change       -0.3476316E-08 Eh
   *** GEOMETRY OPTIMIZATION CONVERGED AFTER 44 ITERATIONS ***

 final structure:
================
66
 xtb: 6.7.1 (edcfbbe)
C           -7.19095061111596        2.74492543630409       -1.35320486307925
C           -7.11173778222966        2.11699610764733        0.04644801225430
C           -8.45425538146323        1.45812599266428        0.39727154617450
C           -6.85307020449186        3.23699170248463        1.05898818943683
C           -6.02032558471927        1.05715368450079        0.05146896416269
C           -6.12371081438674       -0.04253757471711       -0.79828138650859
C           -5.16169118556360       -1.03208798201510       -0.82363303877777
C           -4.04117453963045       -0.96016059422094        0.00005801543044
C           -3.01097290780249       -2.01035703612293       -0.01675044156782
C           -3.38832444233226       -3.36045497183815       -0.04441582019692
C           -2.45830733734247       -4.38036603851290       -0.04119877229397
C           -1.11557062645960       -4.03399855993351       -0.01973679883551
N           -0.00012199462132       -4.83319756414773       -0.01075508766281
C            1.12155125045634       -4.04292377142419        0.00758750962317
C            2.46156633217529       -4.39992673795325        0.02517203043327
C            3.39953099495994       -3.38741924023546        0.04055604359921
C            3.03272305968604       -2.03419815537092        0.02885910034711
C            4.07017746854825       -0.99107737526908        0.02594536183262
C            5.18960650446767       -1.08025708180265        0.84602892943164
C            6.16126342534885       -0.09518452456896        0.84025072618563
C            6.06038922896478        1.01599808162350        0.01129465901164
C            7.10751564222751        2.11867675012060       -0.03453613146413
C            7.69554701026192        2.18841820442823       -1.45198321725532
C            6.44393470597101        3.45813042640801        0.31903617183075
C            8.25775244960269        1.88351397777722        0.94933538711286
C            4.93827324981759        1.09790082652792       -0.81104647568465
C            3.96230108270056        0.12218792561799       -0.80405180609393
C            1.68826971795277       -1.68395501973816        0.01213563531292
C            0.72740947329271       -2.68384916498548        0.00711744262962
C           -0.71086052751598       -2.67812121685880       -0.00358185354051
C           -1.66388730169283       -1.67072961567931        0.00368177561262
C           -3.92834731249943        0.13939555405200        0.84413604388866
C           -4.89952372288256        1.12423872191819        0.87084833150927
H           -7.95493486723073        3.51956471339618       -1.37397148238310
H           -7.43806492379895        2.00190889068051       -2.10673154885339
H           -6.23575277431309        3.19435625732947       -1.61862975035954
H           -8.72677442810069        0.69926272199384       -0.33108941696152
H           -8.39675655036731        0.98581960564279        1.37627533359240
H           -9.24397909785143        2.20642306633196        0.42044781915262
H           -6.80543891179249        2.84470484525117        2.07253530509864
H           -5.92693015440368        3.76178223539944        0.83536537202198
H           -7.66643285881312        3.95894603367246        1.01595817022028
H           -6.97189762537878       -0.13553382404734       -1.46063541860637
H           -5.26961928683291       -1.86390556744423       -1.50566216679564
H           -4.44050331719766       -3.60561516078646       -0.04512939021150
H           -2.76826256869670       -5.41520313697366       -0.05132258970627
H           -0.00410751472230       -5.83908845432521       -0.01613139781245
H            2.76344499892820       -5.43720026703557        0.02355387611823
H            4.44975272802011       -3.64077331644533        0.03867751270282
H            5.29411578987768       -1.92342999770155        1.51458008314270
H            7.00468066788324       -0.21155672247607        1.50184125718094
H            8.15147260682053        1.23635373077741       -1.71764791015124
H            8.45788938470518        2.96319154974252       -1.50418003663814
H            6.92845133682048        2.41478850578789       -2.18763095749081
H            5.66095872261280        3.71300225210652       -0.38991366311176
H            6.00111560408424        3.40785239060484        1.31211161990710
H            7.18345744396583        4.25636771426078        0.31040630676534
H            8.78536129048239        0.95979453051361        0.72232808820994
H            8.97007003998395        2.70322299241322        0.87627609928314
H            7.89421557849035        1.84467358414513        1.97390673382844
H            4.81706925677232        1.93888787239574       -1.47801915195262
H            3.11233659095848        0.21205649559756       -1.46602106381485
H            1.39496901460706       -0.64467233232671        0.02156414296355
H           -1.36267475224921       -0.63367297913591        0.00660221766468
H           -3.07712187590703        0.21581400295212        1.50626848429205
H           -4.76508886704088        1.95002860102248        1.55097033984398

          :  Hamiltonian                  GFN2-xTB          :
         :: gradient norm              0.000046311618 Eh/a0 ::
         :: HOMO-LUMO gap              3.138214794098 eV    ::
         :: SCC energy               -89.960655366203 Eh    ::
         :: -> dispersion             -0.075147292718 Eh    ::
         :: -> Gsolv                  -0.035485560263 Eh    ::
         :: repulsion energy           1.597091399581 Eh    ::

    * Orbital Energies and Occupations

         #    Occupation            Energy/Eh            Energy/eV
      -------------------------------------------------------------
         1        2.0000           -0.6748734             -18.3642
       ...           ...                  ...                  ...
        71        2.0000           -0.4198916             -11.4258
        72        2.0000           -0.4186226             -11.3913
        73        2.0000           -0.4110448             -11.1851
        74        2.0000           -0.4082964             -11.1103
        75        2.0000           -0.4074495             -11.0873
        76        2.0000           -0.4058184             -11.0429
        77        2.0000           -0.4015293             -10.9262
        78        2.0000           -0.3959527             -10.7744
        79        2.0000           -0.3958670             -10.7721
        80        2.0000           -0.3905161             -10.6265
        81        2.0000           -0.3831535             -10.4261
        82        2.0000           -0.3716179             -10.1122
        83        2.0000           -0.3575897              -9.7305 (HOMO)
        84                         -0.2422624              -6.5923 (LUMO)
        85                         -0.2376542              -6.4669
        86                         -0.2261204              -6.1530
        87                         -0.2138312              -5.8186
        88                         -0.2138044              -5.8179
        89                         -0.2007066              -5.4615
        90                         -0.1778534              -4.8396
        91                         -0.1764066              -4.8003
        92                         -0.0981627              -2.6711
        93                         -0.0864702              -2.3530
        94                         -0.0712670              -1.9393
       ...                                ...                  ...
       165                          0.7503476              20.4180
      -------------------------------------------------------------
                  HL-Gap            0.1153273 Eh            3.1382 eV

     #   Z          covCN         q      C6AA      α(0)
     1   6 C        3.761    -0.104    22.534     6.767
     2   6 C        3.902     0.025    20.106     6.374
     3   6 C        3.761    -0.104    22.538     6.768
     4   6 C        3.761    -0.106    22.580     6.774
     5   6 C        2.972     0.005    27.908     8.665
     6   6 C        2.926    -0.038    28.937     8.822
     7   6 C        2.924    -0.039    28.975     8.827
     8   6 C        2.976     0.004    27.933     8.669
     9   6 C        2.976    -0.004    28.110     8.697
    10   6 C        2.929    -0.039    28.967     8.826
    11   6 C        2.908    -0.057    29.420     8.894
    12   6 C        3.072     0.052    26.751     8.480
    13   7 N        2.754    -0.123    23.667     7.225
    14   6 C        3.072     0.052    26.751     8.480
    15   6 C        2.908    -0.057    29.420     8.894
    16   6 C        2.929    -0.039    28.968     8.827
    17   6 C        2.976    -0.004    28.110     8.697
    18   6 C        2.976     0.004    27.933     8.669
    19   6 C        2.924    -0.039    28.980     8.828
    20   6 C        2.924    -0.042    29.043     8.838
    21   6 C        2.972     0.005    27.908     8.665
    22   6 C        3.902     0.025    20.106     6.374
    23   6 C        3.761    -0.104    22.535     6.767
    24   6 C        3.761    -0.104    22.538     6.768
    25   6 C        3.761    -0.106    22.580     6.774
    26   6 C        2.926    -0.038    28.934     8.821
    27   6 C        2.924    -0.039    28.969     8.827
    28   6 C        2.918    -0.039    28.978     8.828
    29   6 C        3.068    -0.018    28.397     8.738
    30   6 C        3.068    -0.018    28.397     8.738
    31   6 C        2.918    -0.039    28.979     8.828
    32   6 C        2.925    -0.039    28.974     8.827
    33   6 C        2.924    -0.042    29.040     8.837
    34   1 H        0.925     0.038     2.472     2.459
    35   1 H        0.925     0.036     2.502     2.474
    36   1 H        0.925     0.032     2.557     2.501
    37   1 H        0.925     0.036     2.501     2.473
    38   1 H        0.925     0.032     2.557     2.500
    39   1 H        0.925     0.038     2.474     2.460
    40   1 H        0.925     0.035     2.512     2.479
    41   1 H        0.925     0.035     2.511     2.478
    42   1 H        0.925     0.037     2.491     2.468
    43   1 H        0.926     0.028     2.619     2.531
    44   1 H        0.926     0.026     2.648     2.545
    45   1 H        0.926     0.032     2.565     2.504
    46   1 H        0.926     0.028     2.611     2.527
    47   1 H        0.860     0.161     1.327     1.804
    48   1 H        0.926     0.028     2.611     2.527
    49   1 H        0.926     0.032     2.564     2.504
    50   1 H        0.926     0.026     2.645     2.543
    51   1 H        0.926     0.035     2.519     2.482
    52   1 H        0.925     0.032     2.557     2.501
    53   1 H        0.925     0.038     2.472     2.459
    54   1 H        0.925     0.036     2.502     2.474
    55   1 H        0.925     0.036     2.501     2.473
    56   1 H        0.925     0.032     2.556     2.500
    57   1 H        0.925     0.038     2.475     2.460
    58   1 H        0.925     0.035     2.511     2.478
    59   1 H        0.925     0.037     2.490     2.468
    60   1 H        0.925     0.035     2.512     2.478
    61   1 H        0.926     0.028     2.620     2.531
    62   1 H        0.926     0.026     2.648     2.545
    63   1 H        0.926     0.031     2.574     2.509
    64   1 H        0.926     0.031     2.574     2.509
    65   1 H        0.926     0.026     2.645     2.543
    66   1 H        0.926     0.035     2.519     2.482

molecular dipole:
                 x           y           z       tot (Debye)
 q only:       -0.000      -0.211      -0.001
   full:       -0.010      -0.485      -0.015       1.234

 projected vibrational frequencies (cm⁻¹)
eigval :       -0.00    -0.00     0.00     0.00     0.00     0.00
eigval :       16.71    19.81    22.70    31.78    35.26    50.69
eigval :       63.40    67.82    79.19   100.44   124.72   130.71
eigval :      152.75   166.71   176.73   191.16   193.74   203.84
eigval :      208.54   219.21   230.71   245.50   262.18   289.42
eigval :      299.01   310.03   310.44   316.27   319.56   363.53
eigval :      366.67   368.88   375.68   377.16   383.87   391.70
eigval :      395.39   407.04   428.95   430.59   445.07   453.52
eigval :      461.63   465.91   480.73   513.66   529.05   545.65
eigval :      548.39   574.06   581.54   600.65   610.52   613.50
eigval :      631.89   658.83   671.08   684.13   701.70   705.33
eigval :      708.89   738.53   764.58   805.90   806.47   826.42
eigval :      828.51   838.69   866.33   869.63   871.58   873.37
eigval :      878.75   880.59   887.79   899.69   908.16   908.55
eigval :      916.79   917.20   929.25   930.54   958.40   959.41
eigval :      959.86   961.34   961.62   962.25   985.46  1002.00
eigval :     1022.59  1032.30  1034.15  1034.33  1034.67  1077.09
eigval :     1078.81  1142.71  1143.62  1144.46  1150.78  1152.73
eigval :     1155.08  1164.18  1200.06  1214.88  1217.33  1224.57
eigval :     1225.05  1225.27  1231.28  1231.78  1232.73  1274.33
eigval :     1279.16  1282.01  1282.39  1289.92  1298.33  1314.23
eigval :     1316.04  1320.58  1328.09  1345.59  1378.95  1393.81
eigval :     1395.27  1401.24  1401.36  1404.75  1406.18  1420.38
eigval :     1425.81  1426.03  1431.15  1472.61  1473.67  1487.29
eigval :     1488.04  1490.39  1491.58  1494.68  1495.92  1499.89
eigval :     1500.55  1509.24  1510.13  1510.58  1510.85  1516.68
eigval :     1517.07  1564.50  1565.15  1571.77  1579.85  1600.41
eigval :     1603.43  1608.31  1617.84  3018.24  3018.36  3018.97
eigval :     3019.04  3022.31  3022.48  3023.61  3024.09  3026.11
eigval :     3026.21  3029.60  3029.88  3034.62  3034.88  3042.10
eigval :     3043.28  3045.27  3046.71  3064.17  3064.26  3067.01
eigval :     3067.50  3070.88  3071.10  3079.08  3079.30  3081.31
eigval :     3082.60  3084.69  3086.82  3105.13  3105.43  3481.62

   temp. (K)  partition function   enthalpy   heat capacity  entropy
                                   cal/mol     cal/K/mol   cal/K/mol   J/K/mol
 298.15  VIB  0.619E+13            17596.030    112.028    107.048
         ROT  0.508E+08              888.752      2.981     38.241
         INT  0.314E+21            18484.782    115.009    145.289
         TR   0.868E+28             1481.254      4.968     44.057
         TOT                       19966.0361   119.9773   189.3463   792.2249

       T/K    H(0)-H(T)+PV         H(T)/Eh          T*S/Eh         G(T)/Eh
   ------------------------------------------------------------------------
    298.15    0.318179E-01    0.581301E+00    0.899645E-01    0.491336E+00
   ------------------------------------------------------------------------

         :::::::::::::::::::::::::::::::::::::::::::::::::::::
         ::                  THERMODYNAMIC                  ::
         :::::::::::::::::::::::::::::::::::::::::::::::::::::
         :: total free energy         -87.872227802755 Eh   ::
         ::.................................................::
         :: total energy              -88.363563962801 Eh   ::
         :: zero point energy           0.549482785619 Eh   ::
         :: G(RRHO) w/o ZPVE           -0.058146625573 Eh   ::
         :: G(RRHO) contrib.            0.491336160046 Eh   ::
         :::::::::::::::::::::::::::::::::::::::::::::::::::::

           -------------------------------------------------
          | TOTAL ENERGY              -88.363563962801 Eh   |
          | TOTAL ENTHALPY            -87.782263273370 Eh   |
          | TOTAL FREE ENERGY         -87.872227802755 Eh   |
          | GRADIENT NORM               0.000046309785 Eh/α |
          | HOMO-LUMO GAP               3.138214777949 eV   |
           -------------------------------------------------

 * finished run on 2025/09/13 at 19:22:26.680
