   * xtb version 6.7.1 (edcfbbe) compiled by 'albert@albert-system' on 2024-07-22

   ID    Z sym.   atoms
    1    6 C      1-12, 14-33
    2    7 N      13
    3    1 H      34-66

          program call               : xtb data2507/toluene/t-BuPCz/t-BuPCz_toluene_S0_finalOpt.xtbopt.xyz --gfn 2 --uhf 2 --gbsa toluene --ohess vtight --parallel 40 --molden --ceasefiles --namespace data2507/toluene/t-BuPCz/t-BuPCz_toluene_T1_preOpt
      * Solvation model:               GBSA
        Solvent                        toluene
        Solvent mass                       9.2140E+01 g/mol
          :  Hamiltonian                  GFN2-xTB          :
 * total energy  :   -88.2449430 Eh     change       -0.1768825E-08 Eh
 * total energy  :   -88.2480916 Eh     change       -0.3148642E-02 Eh
 * total energy  :   -88.2494160 Eh     change       -0.1324386E-02 Eh
 * total energy  :   -88.2503257 Eh     change       -0.9097057E-03 Eh
 * total energy  :   -88.2509504 Eh     change       -0.6247397E-03 Eh
 * total energy  :   -88.2515156 Eh     change       -0.5651707E-03 Eh
 * total energy  :   -88.2520483 Eh     change       -0.5326691E-03 Eh
 * total energy  :   -88.2523700 Eh     change       -0.3217162E-03 Eh
 * total energy  :   -88.2527287 Eh     change       -0.3586756E-03 Eh
 * total energy  :   -88.2530654 Eh     change       -0.3367440E-03 Eh
 * total energy  :   -88.2549343 Eh     change       -0.9422154E-06 Eh
 * total energy  :   -88.2549350 Eh     change       -0.7097011E-06 Eh
 * total energy  :   -88.2549356 Eh     change       -0.5498698E-06 Eh
 * total energy  :   -88.2549360 Eh     change       -0.3881587E-06 Eh
 * total energy  :   -88.2549363 Eh     change       -0.3598841E-06 Eh
 * total energy  :   -88.2549368 Eh     change       -0.4032305E-06 Eh
 * total energy  :   -88.2549372 Eh     change       -0.4485871E-06 Eh
 * total energy  :   -88.2549377 Eh     change       -0.5151854E-06 Eh
 * total energy  :   -88.2549377 Eh     change       -0.3987722E-08 Eh
   *** GEOMETRY OPTIMIZATION CONVERGED AFTER 68 ITERATIONS ***

 final structure:
================
66
 xtb: 6.7.1 (edcfbbe)
C           -6.50104020281434        3.95697713073687       -0.68492554847895
C           -7.09228115916858        2.70996862412554       -0.00973326578815
C           -8.38064192666435        2.33344266504814       -0.74775677261639
C           -7.45343886766156        3.03260150820417        1.44853439318899
C           -6.05763034231582        1.59678482675113       -0.02914036455431
C           -6.26629658666147        0.36843986001392       -0.65092460655168
C           -5.30232198761133       -0.61937203634889       -0.64031110485531
C           -4.06836588175665       -0.42921894344917       -0.00985250531066
C           -3.04800626466627       -1.46850896637444        0.00725194375924
C           -3.40903213767159       -2.82711401721732        0.04760978494143
C           -2.47468728426143       -3.83901593097432        0.07943169921023
C           -1.12734466262032       -3.48383511625714        0.06048312201405
N           -0.00812021463948       -4.26914564885168        0.07804608367291
C            1.10915922891466       -3.49291026872384        0.04429121051817
C            2.47268880439131       -3.84920077853789        0.04948135130668
C            3.40252990852797       -2.85713645218879        0.02785582374754
C            3.06601747338052       -1.45410721928398       -0.01317912309755
C            4.05430950754507       -0.45444966168557       -0.02488023942612
C            5.43704139211877       -0.71980270068405        0.25869941105180
C            6.38375523326444        0.26370226828212        0.26723616212684
C            6.07352621843161        1.60607671658494       -0.01750002353871
C            7.09415036846032        2.72291822806056       -0.01577353521551
C            7.15975832361991        3.34860470741387       -1.41980710596527
C            6.66885899038584        3.79566764182129        1.00152715807401
C            8.49933815829385        2.24198267840834        0.35929199360922
C            4.72299450071164        1.88410237799911       -0.31705730326476
C            3.75964551723548        0.92089669645725       -0.31591489616636
C            1.65328030183202       -1.12565173594246       -0.03703551953668
C            0.72041785215418       -2.11846847948892       -0.00022069026972
C           -0.73208865140483       -2.12023889553076        0.01354022057830
C           -1.67979179734613       -1.12577258319183       -0.00878194796782
C           -3.85671629327665        0.80875709900883        0.60987711060493
C           -4.82625701347032        1.78626345727196        0.60086829302321
H           -7.23253147756633        4.76263572672884       -0.69028608667819
H           -6.22574034802260        3.73289256157477       -1.71393512478727
H           -5.61368915800775        4.30645659861532       -0.16411658973045
H           -9.08158777082597        3.16478478530630       -0.70042740962008
H           -8.18320672172458        2.12015208244194       -1.79602179742141
H           -8.85496178674663        1.46784269655363       -0.29051758881978
H           -7.85262583358245        2.14819446496361        1.94170833556983
H           -6.58421194870032        3.36972614232768        2.00671627920084
H           -8.20645640256081        3.81745654153726        1.48357671787574
H           -7.19387913683214        0.16510405767898       -1.16199572286682
H           -5.49856567548339       -1.54711422738598       -1.15838059053229
H           -4.45682149275535       -3.08488951127886        0.08587326860306
H           -2.77690496314911       -4.87494917148307        0.12418818789995
H           -0.01102198511011       -5.27715842520118        0.11066860122092
H            2.76538906375062       -4.88916180541181        0.06537290632441
H            4.44357368564671       -3.13504854899786        0.00754377777756
H            5.74222841295681       -1.72212202967518        0.51476169701747
H            7.39873637384560       -0.01207708325108        0.50770817471255
H            7.45425375310629        2.59898544449656       -2.15187633772574
H            7.89031365602085        4.15499940973352       -1.43602108083351
H            6.19640135966569        3.75416561026580       -1.71686556839237
H            5.70069588124228        4.21927354893883        0.74914259014456
H            6.60222270916989        3.36291336607833        1.99800557921039
H            7.39939765995306        4.60195153474533        1.02172811043111
H            8.86435984216551        1.50523788979333       -0.35292297734844
H            9.18621588898803        3.08624431162158        0.35124510945176
H            8.51048970852254        1.80903431161149        1.35725812686346
H            4.43413273695479        2.89664357771028       -0.56110111044767
H            2.75287339075490        1.20237871677891       -0.58112847623603
H            1.33860465764911       -0.09617998499548       -0.04460196315697
H           -1.38245642158162       -0.09015455355354       -0.06728881566342
H           -2.92936536157360        0.99158822001875        1.13345824720731
H           -4.61668377812721        2.71932176430859        1.10346222091690

          :  Hamiltonian                  GFN2-xTB          :
         :: gradient norm              0.000046916778 Eh/a0 ::
         :: HOMO-LUMO gap              0.368023807422 eV    ::
         :: SCC energy               -89.830138814521 Eh    ::
         :: -> dispersion             -0.075121938009 Eh    ::
         :: -> Gsolv                  -0.035901922461 Eh    ::
         :: repulsion energy           1.575201095696 Eh    ::

    * Orbital Energies and Occupations

         #    Occupation            Energy/Eh            Energy/eV
      -------------------------------------------------------------
         1        2.0000           -0.6808651             -18.5273
       ...           ...                  ...                  ...
        72        2.0000           -0.4184346             -11.3862
        73        2.0000           -0.4109060             -11.1813
        74        2.0000           -0.4108199             -11.1790
        75        2.0000           -0.4089317             -11.1276
        76        2.0000           -0.4031559             -10.9704
        77        2.0000           -0.3956507             -10.7662
        78        2.0000           -0.3953182             -10.7572
        79        2.0000           -0.3946316             -10.7385
        80        2.0000           -0.3930382             -10.6951
        81        2.0000           -0.3852325             -10.4827
        82        1.9999           -0.3674944             -10.0000
        83        1.0001           -0.3498957              -9.5211
        84        0.9992           -0.2535163              -6.8985 (HOMO)
        85        0.0008           -0.2399915              -6.5305 (LUMO)
        86        0.0000           -0.2350743              -6.3967
        87                         -0.2119406              -5.7672
        88                         -0.2055749              -5.5940
        89                         -0.1995808              -5.4309
        90                         -0.1763416              -4.7985
        91                         -0.1714089              -4.6643
        92                         -0.1044026              -2.8409
        93                         -0.0886710              -2.4129
        94                         -0.0650914              -1.7712
        95                         -0.0498577              -1.3567
       ...                                ...                  ...
       165                          0.7555502              20.5596
      -------------------------------------------------------------
                  HL-Gap            0.0135247 Eh            0.3680 eV

     #   Z          covCN         q      C6AA      α(0)
     1   6 C        3.761    -0.104    22.530     6.766
     2   6 C        3.902     0.025    20.102     6.373
     3   6 C        3.761    -0.106    22.574     6.773
     4   6 C        3.761    -0.104    22.530     6.766
     5   6 C        2.972     0.003    27.962     8.674
     6   6 C        2.922    -0.042    29.048     8.838
     7   6 C        2.923    -0.041    29.020     8.834
     8   6 C        2.973     0.001    27.990     8.678
     9   6 C        2.973    -0.003    28.085     8.693
    10   6 C        2.926    -0.040    28.986     8.829
    11   6 C        2.905    -0.053    29.309     8.877
    12   6 C        3.064     0.041    27.008     8.522
    13   7 N        2.753    -0.082    22.828     7.096
    14   6 C        3.062     0.035    27.151     8.545
    15   6 C        2.900    -0.049    29.218     8.863
    16   6 C        2.919    -0.043    29.069     8.841
    17   6 C        2.963    -0.002    28.067     8.690
    18   6 C        2.964    -0.004    28.126     8.699
    19   6 C        2.915    -0.044    29.098     8.846
    20   6 C        2.913    -0.042    29.031     8.835
    21   6 C        2.970    -0.004    28.111     8.697
    22   6 C        3.902     0.026    20.074     6.369
    23   6 C        3.761    -0.103    22.514     6.764
    24   6 C        3.761    -0.103    22.518     6.765
    25   6 C        3.761    -0.106    22.564     6.772
    26   6 C        2.915    -0.038    28.934     8.821
    27   6 C        2.915    -0.043    29.077     8.842
    28   6 C        2.909    -0.048    29.188     8.859
    29   6 C        3.047    -0.010    28.210     8.711
    30   6 C        3.057    -0.014    28.315     8.726
    31   6 C        2.915    -0.038    28.951     8.823
    32   6 C        2.923    -0.040    29.002     8.832
    33   6 C        2.924    -0.038    28.943     8.823
    34   1 H        0.925     0.038     2.478     2.462
    35   1 H        0.925     0.032     2.559     2.502
    36   1 H        0.925     0.036     2.505     2.475
    37   1 H        0.925     0.036     2.496     2.471
    38   1 H        0.925     0.035     2.515     2.480
    39   1 H        0.925     0.035     2.514     2.479
    40   1 H        0.925     0.032     2.558     2.501
    41   1 H        0.925     0.036     2.504     2.475
    42   1 H        0.925     0.038     2.477     2.461
    43   1 H        0.926     0.033     2.542     2.493
    44   1 H        0.926     0.026     2.649     2.545
    45   1 H        0.926     0.035     2.523     2.484
    46   1 H        0.926     0.032     2.561     2.503
    47   1 H        0.860     0.169     1.277     1.770
    48   1 H        0.926     0.030     2.585     2.514
    49   1 H        0.926     0.033     2.541     2.493
    50   1 H        0.926     0.023     2.686     2.563
    51   1 H        0.926     0.030     2.592     2.518
    52   1 H        0.925     0.032     2.555     2.500
    53   1 H        0.925     0.038     2.470     2.458
    54   1 H        0.925     0.036     2.501     2.473
    55   1 H        0.925     0.036     2.499     2.472
    56   1 H        0.925     0.032     2.557     2.500
    57   1 H        0.925     0.038     2.473     2.459
    58   1 H        0.925     0.035     2.516     2.481
    59   1 H        0.925     0.036     2.500     2.472
    60   1 H        0.925     0.035     2.517     2.481
    61   1 H        0.926     0.022     2.698     2.569
    62   1 H        0.926     0.023     2.686     2.563
    63   1 H        0.926     0.031     2.568     2.506
    64   1 H        0.926     0.034     2.533     2.489
    65   1 H        0.926     0.025     2.656     2.548
    66   1 H        0.926     0.026     2.646     2.544

molecular dipole:
                 x           y           z       tot (Debye)
 q only:       -0.277      -0.667       0.026
   full:       -0.270      -0.917       0.039       2.432

 projected vibrational frequencies (cm⁻¹)
eigval :       -0.00    -0.00    -0.00    -0.00     0.00     0.00
eigval :       20.52    24.09    26.22    31.40    35.89    56.68
eigval :       64.47    67.16    74.41    93.16   120.38   135.03
eigval :      150.11   166.40   183.17   188.98   197.02   207.60
eigval :      212.84   230.05   230.63   239.15   258.70   279.01
eigval :      300.52   310.26   315.37   316.15   319.82   326.70
eigval :      359.50   362.26   365.16   369.24   374.84   376.49
eigval :      382.64   395.33   397.77   417.88   433.52   458.40
eigval :      462.13   476.21   480.07   505.68   514.91   527.65
eigval :      539.05   559.85   568.25   591.55   594.56   604.43
eigval :      609.94   651.79   655.75   660.04   664.76   684.99
eigval :      695.55   725.21   742.41   767.68   773.12   776.61
eigval :      782.32   797.03   815.60   822.93   832.39   851.98
eigval :      862.30   868.37   872.74   883.44   889.86   897.19
eigval :      899.81   909.93   912.13   926.22   954.77   958.07
eigval :      959.67   961.10   961.68   962.20   963.76   976.68
eigval :      982.72  1000.56  1029.60  1033.30  1034.52  1036.32
eigval :     1058.84  1105.42  1110.21  1132.07  1140.95  1145.36
eigval :     1154.01  1160.89  1176.16  1189.70  1193.87  1212.15
eigval :     1220.58  1223.44  1224.95  1230.44  1232.29  1242.02
eigval :     1261.84  1272.76  1280.21  1284.30  1291.13  1294.70
eigval :     1318.41  1323.37  1323.46  1346.11  1354.95  1369.03
eigval :     1375.59  1397.90  1398.90  1401.16  1402.65  1407.75
eigval :     1413.81  1424.67  1426.17  1427.38  1455.75  1464.46
eigval :     1469.74  1486.96  1488.54  1489.13  1492.42  1492.73
eigval :     1498.47  1500.08  1501.82  1502.92  1510.70  1512.05
eigval :     1512.82  1517.13  1517.39  1519.37  1527.28  1534.16
eigval :     1562.29  1590.55  1617.46  3018.17  3018.51  3019.00
eigval :     3019.88  3022.72  3022.83  3023.83  3024.17  3026.30
eigval :     3026.49  3029.61  3030.21  3034.29  3035.19  3043.64
eigval :     3043.79  3046.24  3046.95  3063.88  3066.37  3068.96
eigval :     3070.32  3074.23  3079.47  3084.51  3089.10  3092.26
eigval :     3092.91  3098.85  3103.36  3109.17  3116.96  3445.10

   temp. (K)  partition function   enthalpy   heat capacity  entropy
                                   cal/mol     cal/K/mol   cal/K/mol   J/K/mol
 298.15  VIB  0.472E+13            17883.821    114.398    108.293
         ROT  0.510E+08              888.752      2.981     38.250
         INT  0.241E+21            18772.574    117.379    146.543
         TR   0.868E+28             1481.254      4.968     44.057
         TOT                       20253.8275   122.3467   190.5999   797.4698

       T/K    H(0)-H(T)+PV         H(T)/Eh          T*S/Eh         G(T)/Eh
   ------------------------------------------------------------------------
    298.15    0.322765E-01    0.577322E+00    0.905601E-01    0.486762E+00
   ------------------------------------------------------------------------

         :::::::::::::::::::::::::::::::::::::::::::::::::::::
         ::                  THERMODYNAMIC                  ::
         :::::::::::::::::::::::::::::::::::::::::::::::::::::
         :: total free energy         -87.768175699318 Eh   ::
         ::.................................................::
         :: total energy              -88.254937718511 Eh   ::
         :: zero point energy           0.545045631409 Eh   ::
         :: G(RRHO) w/o ZPVE           -0.058283612216 Eh   ::
         :: G(RRHO) contrib.            0.486762019193 Eh   ::
         :::::::::::::::::::::::::::::::::::::::::::::::::::::

           -------------------------------------------------
          | TOTAL ENERGY              -88.254937718511 Eh   |
          | TOTAL ENTHALPY            -87.677615558569 Eh   |
          | TOTAL FREE ENERGY         -87.768175699318 Eh   |
          | GRADIENT NORM               0.000046921821 Eh/α |
          | HOMO-LUMO GAP               0.368026823699 eV   |
           -------------------------------------------------

 * finished run on 2025/09/13 at 19:25:20.156
