   * xtb version 6.7.1 (edcfbbe) compiled by 'albert@albert-system' on 2024-07-22

   ID    Z sym.   atoms
    1    6 C      1-20, 22-25, 27-29, 31-34, 36-56
    2    7 N      21, 30, 35
    3    8 O      26
    4    1 H      57-111

          program call               : xtb data2507/gas/4BPy-mDTC/4BPy-mDTC_gas_T1_crest.xyz --gfn 2 --spinpol --tblite --uhf 2 --ohess vtight --parallel 40 --molden --ceasefiles --namespace data2507/gas/4BPy-mDTC/4BPy-mDTC_gas_T1_finalOpt
 * total energy  :  -152.2941153 Eh     change        0.6174625E-07 Eh
 * total energy  :  -152.2941442 Eh     change       -0.2895279E-04 Eh
 * total energy  :  -152.2941577 Eh     change       -0.1351733E-04 Eh
 * total energy  :  -152.2941617 Eh     change       -0.3985015E-05 Eh
 * total energy  :  -152.2941658 Eh     change       -0.4091826E-05 Eh
 * total energy  :  -152.2941684 Eh     change       -0.2609003E-05 Eh
 * total energy  :  -152.2941704 Eh     change       -0.1968058E-05 Eh
 * total energy  :  -152.2941728 Eh     change       -0.2426824E-05 Eh
 * total energy  :  -152.2941751 Eh     change       -0.2250676E-05 Eh
 * total energy  :  -152.2941769 Eh     change       -0.1804433E-05 Eh
 * total energy  :  -152.2941827 Eh     change       -0.1674553E-05 Eh
 * total energy  :  -152.2941837 Eh     change       -0.9555738E-06 Eh
 * total energy  :  -152.2941846 Eh     change       -0.9116761E-06 Eh
 * total energy  :  -152.2941855 Eh     change       -0.9167751E-06 Eh
 * total energy  :  -152.2941865 Eh     change       -0.9855364E-06 Eh
 * total energy  :  -152.2941872 Eh     change       -0.7664441E-06 Eh
 * total energy  :  -152.2941880 Eh     change       -0.8143360E-06 Eh
 * total energy  :  -152.2941887 Eh     change       -0.6730032E-06 Eh
 * total energy  :  -152.2941887 Eh     change       -0.1763482E-08 Eh
   *** GEOMETRY OPTIMIZATION CONVERGED AFTER 22 ITERATIONS ***

 final structure:
================
111
 xtb: 6.7.1 (edcfbbe)
C            8.03091140478286        1.15236157856803        1.75457984645021
C            7.35976416212511       -0.19955095085919        2.03625182054859
C            7.24013115982499       -0.41599096868845        3.55164494735385
C            8.25722927967485       -1.30220171386920        1.46777831715260
C            5.96904564350355       -0.20222173485765        1.42056269699661
C            5.04257547383260        0.76243182947514        1.83857261363450
C            3.76309938933532        0.84171975258995        1.32887507200628
C            3.39162113780400       -0.07008248672480        0.35281498785481
C            4.29547160395984       -1.07042780095018       -0.06400536807180
C            5.57541970272930       -1.12987241827698        0.46695479316522
C            3.59393105964880       -1.87320204773594       -1.03006191922527
C            3.96041474043250       -2.97528562562034       -1.78805616355719
C            3.05110314890843       -3.53364066404872       -2.67451614335053
C            3.38372388206034       -4.74321333229520       -3.53470109491578
C            2.39339751840943       -5.87339742621035       -3.21948218918998
C            4.79962715915551       -5.27069102497536       -3.28651367428052
C            3.27344193478238       -4.35207033079319       -5.01530350836369
C            1.78224974146633       -2.94997068192256       -2.78794378371083
C            1.39096202260837       -1.85408578900016       -2.04579622474804
C            2.30071787780767       -1.31992376704148       -1.14567173329122
N            2.18828319981531       -0.23304836741893       -0.30164621148331
C            1.06933289585735        0.60237282900363       -0.18733846106366
C            1.22135319290565        1.97386635580700       -0.34218173759291
C            0.10730103697938        2.81800555295531       -0.26552852990471
C            0.18557972502891        4.26542102140421       -0.49121651984057
O           -0.79219508173814        4.87524673974371       -0.98801492748428
C            1.40362512366206        4.96158093604663       -0.12969799093097
C            1.68489131158475        6.22376936759482       -0.69617845769303
C            2.83742643698367        6.87821841288040       -0.33305473037917
N            3.69691261733471        6.39242760014826        0.55134129350644
C            3.42989143993629        5.23331040486244        1.13369254811965
C            2.31124288826521        4.48908954593049        0.83876643423199
C           -1.15837492150499        2.24994768543295       -0.07990648407503
C           -1.30621560534349        0.87838301034339        0.05351467088864
N           -2.58050395318261        0.33730351930869        0.25214805320858
C           -3.71305361060345        0.66146628534183       -0.46876948954723
C           -3.86797359889430        1.49545744010369       -1.56673450929838
C           -5.12951660094781        1.61544844729435       -2.11286215735928
C           -6.24485633919387        0.92804251873499       -1.61543598001417
C           -7.59527824214795        1.14039447619285       -2.28173787245877
C           -7.97213385114557        2.62573780991704       -2.18566327641164
C           -7.50191605541854        0.72130651854730       -3.75592603119105
C           -8.71160644863155        0.32349645596743       -1.62505488878394
C           -6.07035963621200        0.07425110838123       -0.53517686618040
C           -4.81390237941910       -0.06332182538165        0.03523227191827
C           -4.31336342000825       -0.85737946260664        1.12653576602495
C           -4.91668678325196       -1.74560723785197        2.00353056500869
C           -4.15981515696086       -2.35719147070430        2.99325035900621
C           -4.75283400508579       -3.34739228078267        3.98368927552101
C           -6.24668419529288       -3.58988543203259        3.75132735592768
C           -4.02485312587845       -4.69222485902436        3.84466609479325
C           -4.57451091855081       -2.80384943422322        5.40853641917559
C           -2.79851678976079       -2.03957030060057        3.08652698960286
C           -2.17277930127482       -1.15901518172807        2.22742692407584
C           -2.93330481992491       -0.57628098861291        1.22428578958737
C           -0.19044368867005        0.04334546997583        0.01493191482463
H            9.03618925208624        1.16472857911379        2.17033700990561
H            7.47227535463573        1.97396295255002        2.19371013251497
H            8.09863897402666        1.32184697067744        0.68196986795255
H            6.66767757696245        0.37797046495424        4.02287721690636
H            8.22862094597253       -0.43773085771547        4.00549564946068
H            6.74434011842682       -1.36235872139393        3.75808948345135
H            9.23877504768459       -1.24611689064946        1.93405850043718
H            7.84538985327865       -2.28772612570854        1.67272869357530
H            8.38869214554991       -1.18491381831252        0.39457909621367
H            5.32808600079551        1.47779272369064        2.59431148534352
H            3.07250891534887        1.58628255865771        1.69237646718170
H            6.24071604384652       -1.90518728480302        0.12583649634612
H            4.95454884499985       -3.37348701852715       -1.67331421791981
H            2.62925073479125       -6.75377097559335       -3.81355692865730
H            1.37090841416428       -5.57972397250623       -3.43933108491638
H            2.45216563889191       -6.14146530282132       -2.16654133354928
H            5.54634990951729       -4.51871625215998       -3.53073335595196
H            4.92666532120627       -5.57877606027289       -2.25120946820942
H            4.97874981762527       -6.13786063101921       -3.91893687845131
H            3.52990640385808       -5.20018487212288       -5.64661207084656
H            3.95638434755730       -3.53530484680645       -5.23969298875341
H            2.26644563689513       -4.03241302352619       -5.26807636106868
H            1.07075214908219       -3.36295845249977       -3.48633622388708
H            0.41031500338578       -1.42273851932357       -2.17788973554359
H            2.19452590358030        2.36775768749519       -0.59155014112799
H            1.00836785703988        6.65292346278820       -1.41665680276955
H            3.09352497986837        7.83566571174331       -0.76573247026397
H            4.14097903674894        4.89886899891212        1.87670765682787
H            2.11520385188513        3.58210599024463        1.38746818016703
H           -2.01503908233184        2.90203011013324       -0.01499987648311
H           -3.03427144665498        2.03532449272862       -1.98800225404257
H           -5.24741804475139        2.27102619832170       -2.96150304181321
H           -8.94443316439057        2.79543304605149       -2.64340986357900
H           -7.24431371040154        3.25426653764573       -2.69061663528726
H           -8.02251210921414        2.93363471331875       -1.14332226163648
H           -8.46719983964031        0.84653782822669       -4.24189713437053
H           -6.77124345128036        1.31869370829450       -4.29362164387990
H           -7.21000981210039       -0.32421860385098       -3.83180542797356
H           -9.65189897197173        0.51949485210230       -2.13640330010726
H           -8.83505834740007        0.59851203771200       -0.58009875300050
H           -8.50939309301474       -0.74300149250655       -1.69347422629215
H           -6.88981256872268       -0.49153969397818       -0.12457531309370
H           -5.97096092489193       -1.93948161389543        1.89899673847053
H           -6.61437907522318       -4.30835349817687        4.48114467547099
H           -6.42763555386145       -3.99740669590446        2.75934982382742
H           -6.81582154479414       -2.67087111085729        3.87047103003701
H           -2.96521978761836       -4.59558379835526        4.06375732304950
H           -4.44932806402442       -5.42025844569153        4.53267709815672
H           -4.12985944160588       -5.07309956568225        2.83081254267906
H           -5.06804373764983       -1.83920424092340        5.50697401449412
H           -5.01311939166800       -3.49138650199158        6.12861958491019
H           -3.52484674258016       -2.67585581232299        5.65733552905963
H           -2.20164142757322       -2.49267385105399        3.86305879841172
H           -1.12622383268222       -0.92499152419885        2.34953227135324
H           -0.30090930973563       -1.02440901573130        0.11629490130175

 projected vibrational frequencies (cm⁻¹)
eigval :       -0.00    -0.00    -0.00    -0.00     0.00     0.00
eigval :        8.97     9.56    12.55    14.15    24.15    29.99
eigval :       30.49    31.61    33.24    34.22    43.61    48.65
eigval :       60.79    61.74    67.36    72.22    78.69    85.73
eigval :       87.35   106.59   113.52   129.39   147.08   152.78
eigval :      157.88   158.93   171.11   176.64   182.05   185.84
eigval :      194.96   201.29   201.32   211.68   216.85   218.77
eigval :      221.33   222.28   228.26   230.54   234.43   247.94
eigval :      252.91   258.12   258.37   274.26   283.45   287.09
eigval :      295.74   316.11   318.19   318.83   322.59   322.77
eigval :      330.98   337.22   338.97   345.62   350.25   358.46
eigval :      358.54   361.32   365.91   369.77   374.14   383.92
eigval :      394.80   396.76   406.20   407.93   408.76   428.68
eigval :      440.53   441.07   441.99   442.23   454.61   461.10
eigval :      462.57   463.66   465.56   466.04   495.52   510.89
eigval :      515.36   536.03   539.37   569.71   575.96   582.21
eigval :      585.71   590.67   598.10   605.65   608.99   617.01
eigval :      632.13   638.37   641.02   641.48   656.33   661.78
eigval :      671.73   689.52   690.44   701.72   708.12   709.11
eigval :      718.19   720.79   766.79   776.39   779.59   814.13
eigval :      816.58   822.77   823.71   824.87   831.15   833.43
eigval :      840.04   862.35   867.39   870.53   871.40   872.85
eigval :      873.74   877.28   881.84   885.95   892.78   903.22
eigval :      914.73   916.76   918.55   919.73   924.97   927.51
eigval :      931.49   933.78   960.32   960.33   960.41   960.44
eigval :      962.79   962.88   963.13   963.24   963.26   963.30
eigval :      963.31   963.44   967.23   987.77  1025.72  1029.32
eigval :     1032.75  1034.21  1035.16  1035.19  1035.22  1035.35
eigval :     1036.57  1039.11  1043.70  1045.07  1078.34  1109.84
eigval :     1111.83  1117.77  1128.67  1129.46  1133.36  1138.11
eigval :     1152.54  1163.44  1169.17  1169.91  1188.92  1215.42
eigval :     1220.14  1226.74  1226.85  1226.98  1227.13  1227.23
eigval :     1229.50  1230.97  1231.24  1232.28  1234.08  1234.77
eigval :     1235.70  1243.16  1246.34  1254.81  1261.47  1282.42
eigval :     1283.49  1295.90  1298.16  1301.64  1304.65  1322.22
eigval :     1333.02  1338.41  1343.96  1347.64  1348.93  1351.32
eigval :     1376.56  1378.70  1401.79  1402.07  1404.61  1404.68
eigval :     1405.86  1405.92  1405.99  1406.06  1408.39  1410.32
eigval :     1410.97  1421.79  1425.60  1428.99  1429.04  1429.13
eigval :     1429.17  1443.82  1448.79  1449.95  1468.78  1471.92
eigval :     1478.04  1480.45  1481.90  1491.17  1491.57  1491.62
eigval :     1491.66  1493.74  1493.89  1494.02  1494.12  1500.33
eigval :     1500.33  1500.55  1500.58  1504.49  1504.87  1504.94
eigval :     1504.99  1514.53  1514.71  1514.93  1514.95  1516.83
eigval :     1519.15  1519.45  1519.75  1520.08  1520.72  1556.73
eigval :     1563.98  1565.92  1576.48  1579.64  1585.92  1590.48
eigval :     1602.40  1610.35  3022.71  3022.80  3022.99  3023.07
eigval :     3024.44  3024.52  3024.74  3024.87  3027.40  3027.49
eigval :     3027.53  3027.76  3030.79  3030.91  3031.10  3031.29
eigval :     3031.77  3031.92  3031.97  3032.15  3035.87  3035.96
eigval :     3036.15  3036.35  3038.95  3039.04  3039.11  3039.41
eigval :     3048.20  3048.33  3048.39  3049.86  3051.41  3051.56
eigval :     3051.80  3053.38  3059.37  3061.14  3083.78  3084.32
eigval :     3088.70  3091.69  3094.29  3096.23  3096.49  3098.10
eigval :     3101.33  3102.44  3108.47  3111.18  3115.75  3117.29
eigval :     3117.72  3120.72  3121.00

   temp. (K)  partition function   enthalpy   heat capacity  entropy
                                   cal/mol     cal/K/mol   cal/K/mol   J/K/mol
 298.15  VIB  0.194E+26            32319.784    197.200    200.879
         ROT  0.160E+09              888.752      2.981     40.524
         INT  0.310E+34            33208.536    200.181    241.403
         TR   0.194E+29             1481.254      4.968     45.655
         TOT                       34689.7900   205.1493   287.0586  1201.0533

       T/K    H(0)-H(T)+PV         H(T)/Eh          T*S/Eh         G(T)/Eh
   ------------------------------------------------------------------------
    298.15    0.552817E-01    0.974256E+00    0.136391E+00    0.837865E+00
   ------------------------------------------------------------------------

         :::::::::::::::::::::::::::::::::::::::::::::::::::::
         ::                  THERMODYNAMIC                  ::
         :::::::::::::::::::::::::::::::::::::::::::::::::::::
         :: total free energy        -151.456323546125 Eh   ::
         ::.................................................::
         :: total energy             -152.294188745814 Eh   ::
         :: zero point energy           0.918974322027 Eh   ::
         :: G(RRHO) w/o ZPVE           -0.081109122339 Eh   ::
         :: G(RRHO) contrib.            0.837865199689 Eh   ::
         :::::::::::::::::::::::::::::::::::::::::::::::::::::

           -------------------------------------------------
          | TOTAL ENERGY             -152.294188745814 Eh   |
          | TOTAL ENTHALPY           -151.319932724632 Eh   |
          | TOTAL FREE ENERGY        -151.456323546125 Eh   |
          | GRADIENT NORM               0.000160900448 Eh/α |
           -------------------------------------------------

 * finished run on 2025/09/13 at 20:19:58.811
