   * xtb version 6.7.1 (edcfbbe) compiled by 'albert@albert-system' on 2024-07-22

   ID    Z sym.   atoms
    1    6 C      1-20, 22-25, 27-29, 31-34, 36-56
    2    7 N      21, 30, 35
    3    8 O      26
    4    1 H      57-111

          program call               : xtb data2507/gas/4BPy-mDTC/4BPy-mDTC.xyz --gfn 2 --ohess vtight --parallel 40 --molden --ceasefiles --namespace data2507/gas/4BPy-mDTC/4BPy-mDTC_gas_S0_preOpt
          :  Hamiltonian                  GFN2-xTB          :
 * total energy  :  -152.3354430 Eh     change       -0.8287032E-08 Eh
 * total energy  :  -152.3525877 Eh     change       -0.1714472E-01 Eh
 * total energy  :  -152.3576148 Eh     change       -0.5027082E-02 Eh
 * total energy  :  -152.3591167 Eh     change       -0.1501955E-02 Eh
 * total energy  :  -152.3599666 Eh     change       -0.8498738E-03 Eh
 * total energy  :  -152.3602324 Eh     change       -0.2657870E-03 Eh
 * total energy  :  -152.3603817 Eh     change       -0.1493331E-03 Eh
 * total energy  :  -152.3605038 Eh     change       -0.1221202E-03 Eh
 * total energy  :  -152.3606003 Eh     change       -0.9651298E-04 Eh
 * total energy  :  -152.3606614 Eh     change       -0.6100558E-04 Eh
 * total energy  :  -152.3609850 Eh     change       -0.5577481E-06 Eh
 * total energy  :  -152.3609856 Eh     change       -0.5665748E-06 Eh
 * total energy  :  -152.3609862 Eh     change       -0.5752376E-06 Eh
 * total energy  :  -152.3609867 Eh     change       -0.5209085E-06 Eh
 * total energy  :  -152.3609872 Eh     change       -0.5237549E-06 Eh
 * total energy  :  -152.3609878 Eh     change       -0.5869104E-06 Eh
 * total energy  :  -152.3609885 Eh     change       -0.6537655E-06 Eh
 * total energy  :  -152.3609891 Eh     change       -0.6886724E-06 Eh
 * total energy  :  -152.3609892 Eh     change       -0.4060013E-08 Eh
   *** GEOMETRY OPTIMIZATION CONVERGED AFTER 68 ITERATIONS ***

 final structure:
================
111
 xtb: 6.7.1 (edcfbbe)
C            8.72750452628756       -0.68867823881215       -1.12734476100222
C            7.69985647306344       -1.75260099284361       -1.52298433231509
C            8.17712697962545       -3.10325323432218       -0.97078986568930
C            7.63890617452911       -1.80892624193488       -3.05596519483159
C            6.31124564258868       -1.45518272832150       -0.97657355695972
C            5.26866070045773       -2.34778941779188       -1.25672154928351
C            3.98114489947553       -2.16849295522525       -0.79251047804613
C            3.72120236083946       -1.05776098463848       -0.00567706346111
C            4.74454407297833       -0.12674593198599        0.26259526416187
C            6.03104500684217       -0.33080180755595       -0.21759872263385
C            4.14760441378983        0.92517951982669        1.03995366959122
C            4.65195966829454        2.08465564143178        1.60568374091983
C            3.82104787454288        2.91715275976749        2.34403412656200
C            4.39706086661848        4.19113843710202        2.94593109245395
C            5.52849583960686        3.81990648061547        3.91497314276241
C            3.35839389722988        5.00811775257855        3.71915515536983
C            4.94896721421629        5.07251070330506        1.81623228268113
C            2.48632262604008        2.54206501782848        2.51536254086564
C            1.95701826178152        1.38958840689219        1.96214331872389
C            2.78720817112731        0.58555659450327        1.20050843182924
N            2.53676476473715       -0.61825490266058        0.56259961559627
C            1.31298359917727       -1.28230866271595        0.50559938815396
C            1.24432845109403       -2.64914132553442        0.75583446178577
C            0.02647366235468       -3.31567340161172        0.66878317792517
C            0.00848748783638       -4.77355332907282        0.94697469471042
O            0.83528707415254       -5.30559420142150        1.65635290644654
C           -1.07969708014936       -5.56549359930747        0.30403184520527
C           -1.66631272458801       -6.61620597456851        1.00494686189398
C           -2.65720923524097       -7.35517482676826        0.37907528947407
N           -3.06260168776087       -7.12487151633112       -0.85790520885826
C           -2.48927658300045       -6.14263070815307       -1.53101973318325
C           -1.49847817616866       -5.32919162746771       -1.00341619162162
C           -1.13659402231929       -2.61274640334172        0.37084735830821
C           -1.07742583110216       -1.23820604694004        0.15665135379226
N           -2.24367665019914       -0.52547720723591       -0.12316240040430
C           -3.44113763352666       -0.63199949341167        0.56473192220537
C           -3.77028145921804       -1.37893449173148        1.68250038983988
C           -5.05321114666225       -1.27110457877142        2.18916775455174
C           -6.01902221603592       -0.43405648154396        1.62518844530623
C           -7.43206342658919       -0.32526491548842        2.18062540817817
C           -7.68479140646955        1.12213330456058        2.62608468259790
C           -8.43223344720718       -0.71309158020571        1.08212895127952
C           -7.67204044849030       -1.24114677809508        3.38382815396508
C           -5.66575974689870        0.33479698926338        0.52372895623740
C           -4.38845645466339        0.24524270923863       -0.00451757634594
C           -3.72731416792153        0.91050828911177       -1.09470922049909
C           -4.14428039871346        1.85381441337963       -2.01926036461904
C           -3.26660408123860        2.30679344439231       -2.99581485752668
C           -3.74442867857584        3.35493832524102       -3.99085572819857
C           -2.66347361740040        3.75831901547859       -4.99734524662037
C           -4.93957257292171        2.79462205455850       -4.77487516808802
C           -4.17125759347999        4.61394204084823       -3.22252146666096
C           -1.97685533167876        1.77142553405573       -3.03046476213645
C           -1.53483201562538        0.82777278319922       -2.12017048890114
C           -2.40841176480569        0.40978574490214       -1.13130400497167
C            0.14777429443004       -0.57954247074814        0.20931335076463
H            9.70047398316973       -0.95526677732370       -1.53539391300985
H            8.82415380357997       -0.62165069931852       -0.04616112260231
H            8.45387122316126        0.28656989198932       -1.52349533979610
H            7.51809781115673       -3.91190630006860       -1.27393841816640
H            8.20383900452623       -3.07564831401881        0.11659191949294
H            9.17794992907463       -3.32518461519743       -1.33548352107831
H            8.62973068858446       -1.99833182634286       -3.46368995075703
H            6.97463768346084       -2.59732579751527       -3.39858922248035
H            7.27722774662419       -0.86234604558350       -3.45251327326960
H            5.46582228624646       -3.21826681855104       -1.86351035478197
H            3.20587119697428       -2.87453876901559       -1.04953233115729
H            6.78832089671828        0.40023823316717        0.01111078264632
H            5.69542737008198        2.32116798116676        1.46617150299962
H            5.94362466834095        4.71732467005075        4.36907848068216
H            6.33095689949780        3.29452559788316        3.40483612776551
H            5.14920369337167        3.17610094199482        4.70588998736769
H            2.53857525997432        5.31249247781171        3.07250672077338
H            2.96081572219964        4.44315720419728        4.55909603569697
H            3.82683049129001        5.90802385144324        4.11300555181790
H            5.35385148142648        5.99629532711051        2.22437011641754
H            4.15622473873645        5.32329305295604        1.11432637749989
H            5.74004121691513        4.56740431194433        1.26922121954249
H            1.82524263097552        3.15805262621478        3.10204563141246
H            0.92505980687829        1.12841092348946        2.14257672204307
H            2.12707029010976       -3.20473927434674        1.03138777024996
H           -1.34899686262103       -6.83395620563691        2.01287607510991
H           -3.14864516011619       -8.17447933354815        0.88694225671051
H           -2.84568848265834       -5.99973821272033       -2.54280354848717
H           -1.05090586719741       -4.54696136656272       -1.59746063336860
H           -2.08729997536255       -3.11924016948299        0.31129100600344
H           -3.04947687691633       -2.02180876097969        2.16555663469271
H           -5.29398965412461       -1.86228662762065        3.05697396115604
H           -8.68556841637766        1.21749272887252        3.04218766288127
H           -7.59521089052876        1.81458296173205        1.79375845468513
H           -6.96452839440572        1.41158037458082        3.38857765132684
H           -8.35348015680175       -0.05353714191315        0.22249660379423
H           -8.24636020050145       -1.73169371125578        0.74770397722055
H           -9.44962300793250       -0.65501895686801        1.46338378593189
H           -8.69865793561641       -1.12624934366417        3.72610587924883
H           -7.01344915016550       -0.98438771607760        4.21034380164540
H           -7.52243685950881       -2.28501842611788        3.11771117473892
H           -6.37178194467169        1.01202543651109        0.06855046137128
H           -5.15709868046242        2.22224642711419       -1.96725327170309
H           -3.06187391851483        4.51355726078850       -5.67202748316315
H           -2.34806141024310        2.90745228597361       -5.59680539739506
H           -1.79758350436588        4.18209139583775       -4.49386695528203
H           -4.65036053387975        1.88882392880358       -5.30386794615501
H           -5.76849649567594        2.55300759657024       -4.11553159300053
H           -5.28590802225857        3.52461481477505       -5.50355934126004
H           -3.33385211775518        5.00529055240694       -2.64845309890073
H           -4.50350981378335        5.38300554473925       -3.91675868272347
H           -4.98521779941822        4.40230763507774       -2.53485543307920
H           -1.28238415305659        2.08937426594000       -3.79022032224336
H           -0.53556887272486        0.42650285118537       -2.19957444274698
H            0.19297822949090        0.48249315190590        0.02661247240399

          :  Hamiltonian                  GFN2-xTB          :
         :: gradient norm              0.000046479358 Eh/a0 ::
         :: HOMO-LUMO gap              1.576476337390 eV    ::
         :: SCC energy              -154.963294548022 Eh    ::
         :: -> dispersion             -0.138463527844 Eh    ::
         :: repulsion energy           2.602305396639 Eh    ::

    * Orbital Energies and Occupations

         #    Occupation            Energy/Eh            Energy/eV
      -------------------------------------------------------------
         1        2.0000           -0.7168019             -19.5052
       ...           ...                  ...                  ...
       130        2.0000           -0.4153343             -11.3018
       131        2.0000           -0.4101532             -11.1608
       132        2.0000           -0.4096443             -11.1470
       133        2.0000           -0.4087945             -11.1239
       134        2.0000           -0.4077397             -11.0952
       135        2.0000           -0.4061120             -11.0509
       136        2.0000           -0.3971561             -10.8072
       137        2.0000           -0.3958219             -10.7709
       138        2.0000           -0.3769389             -10.2570
       139        2.0000           -0.3762964             -10.2395
       140        2.0000           -0.3741511             -10.1812
       141        2.0000           -0.3606043              -9.8125
       142        2.0000           -0.3591088              -9.7718 (HOMO)
       143                         -0.3011743              -8.1954 (LUMO)
       144                         -0.2569266              -6.9913
       145                         -0.2509006              -6.8274
       146                         -0.2482735              -6.7559
       147                         -0.2421726              -6.5899
       148                         -0.2384901              -6.4896
       149                         -0.2207791              -6.0077
       150                         -0.2181181              -5.9353
       151                         -0.2102116              -5.7201
       152                         -0.1891478              -5.1470
       153                         -0.1868089              -5.0833
       ...                                ...                  ...
       279                          0.7455982              20.2888
      -------------------------------------------------------------
                  HL-Gap            0.0579344 Eh            1.5765 eV

     #   Z          covCN         q      C6AA      α(0)
     1   6 C        3.761    -0.107    22.589     6.775
     2   6 C        3.903     0.026    20.085     6.370
     3   6 C        3.762    -0.105    22.561     6.771
     4   6 C        3.761    -0.105    22.556     6.770
     5   6 C        2.973    -0.000    28.035     8.685
     6   6 C        2.931    -0.038    28.949     8.824
     7   6 C        2.909    -0.053    29.305     8.877
     8   6 C        3.074     0.043    26.964     8.514
     9   6 C        3.065    -0.018    28.397     8.738
    10   6 C        2.918    -0.043    29.066     8.841
    11   6 C        3.066    -0.018    28.384     8.736
    12   6 C        2.920    -0.039    28.970     8.826
    13   6 C        2.973    -0.001    28.041     8.686
    14   6 C        3.903     0.026    20.086     6.371
    15   6 C        3.762    -0.105    22.557     6.770
    16   6 C        3.761    -0.107    22.590     6.775
    17   6 C        3.762    -0.105    22.557     6.770
    18   6 C        2.929    -0.043    29.073     8.843
    19   6 C        2.909    -0.054    29.338     8.882
    20   6 C        3.071     0.042    26.975     8.516
    21   7 N        2.802    -0.043    22.077     6.978
    22   6 C        2.909     0.070    26.431     8.430
    23   6 C        2.928    -0.041    29.025     8.835
    24   6 C        2.971    -0.013    28.330     8.731
    25   6 C        2.828     0.228    23.224     7.897
    26   8 O        0.858    -0.355    20.810     6.116
    27   6 C        2.981     0.007    27.864     8.659
    28   6 C        2.917    -0.028    28.706     8.786
    29   6 C        2.911     0.062    26.621     8.460
    30   7 N        1.836    -0.209    26.373     7.610
    31   6 C        2.912     0.061    26.634     8.463
    32   6 C        2.915    -0.036    28.904     8.816
    33   6 C        2.923    -0.051    29.261     8.871
    34   6 C        2.909     0.069    26.452     8.433
    35   7 N        2.802    -0.046    22.136     6.988
    36   6 C        3.072     0.042    26.975     8.516
    37   6 C        2.909    -0.054    29.348     8.883
    38   6 C        2.929    -0.043    29.069     8.842
    39   6 C        2.972    -0.001    28.037     8.685
    40   6 C        3.903     0.026    20.085     6.370
    41   6 C        3.762    -0.105    22.555     6.770
    42   6 C        3.762    -0.105    22.559     6.771
    43   6 C        3.761    -0.107    22.593     6.776
    44   6 C        2.920    -0.039    28.962     8.825
    45   6 C        3.064    -0.018    28.395     8.738
    46   6 C        3.065    -0.018    28.392     8.738
    47   6 C        2.920    -0.039    28.963     8.825
    48   6 C        2.972    -0.001    28.041     8.686
    49   6 C        3.903     0.026    20.086     6.371
    50   6 C        3.761    -0.107    22.593     6.776
    51   6 C        3.762    -0.105    22.556     6.770
    52   6 C        3.762    -0.105    22.557     6.770
    53   6 C        2.929    -0.043    29.071     8.842
    54   6 C        2.909    -0.054    29.353     8.884
    55   6 C        3.071     0.042    26.975     8.516
    56   6 C        2.926    -0.057    29.428     8.896
    57   1 H        0.925     0.035     2.513     2.479
    58   1 H        0.925     0.036     2.506     2.476
    59   1 H        0.925     0.035     2.517     2.481
    60   1 H        0.925     0.036     2.499     2.472
    61   1 H        0.925     0.034     2.529     2.487
    62   1 H        0.925     0.036     2.502     2.473
    63   1 H        0.925     0.036     2.499     2.472
    64   1 H        0.925     0.036     2.509     2.477
    65   1 H        0.925     0.033     2.546     2.495
    66   1 H        0.926     0.031     2.577     2.510
    67   1 H        0.926     0.025     2.664     2.553
    68   1 H        0.926     0.038     2.478     2.462
    69   1 H        0.926     0.032     2.564     2.504
    70   1 H        0.925     0.036     2.502     2.474
    71   1 H        0.925     0.036     2.500     2.472
    72   1 H        0.925     0.033     2.538     2.491
    73   1 H        0.925     0.035     2.517     2.481
    74   1 H        0.925     0.035     2.514     2.479
    75   1 H        0.925     0.035     2.511     2.478
    76   1 H        0.925     0.036     2.504     2.474
    77   1 H        0.925     0.033     2.546     2.495
    78   1 H        0.925     0.036     2.501     2.473
    79   1 H        0.926     0.037     2.493     2.469
    80   1 H        0.926     0.025     2.664     2.552
    81   1 H        0.926     0.067     2.116     2.275
    82   1 H        0.926     0.056     2.250     2.346
    83   1 H        0.925     0.048     2.346     2.395
    84   1 H        0.925     0.046     2.373     2.409
    85   1 H        0.926     0.040     2.445     2.445
    86   1 H        0.926     0.046     2.369     2.407
    87   1 H        0.926     0.023     2.689     2.564
    88   1 H        0.926     0.037     2.488     2.467
    89   1 H        0.925     0.036     2.496     2.471
    90   1 H        0.925     0.036     2.504     2.475
    91   1 H        0.925     0.033     2.541     2.493
    92   1 H        0.925     0.036     2.503     2.474
    93   1 H        0.925     0.033     2.538     2.492
    94   1 H        0.925     0.036     2.497     2.471
    95   1 H        0.925     0.036     2.504     2.475
    96   1 H        0.925     0.035     2.514     2.480
    97   1 H        0.925     0.035     2.513     2.479
    98   1 H        0.926     0.031     2.568     2.506
    99   1 H        0.926     0.031     2.570     2.507
   100   1 H        0.925     0.036     2.507     2.476
   101   1 H        0.925     0.035     2.516     2.480
   102   1 H        0.925     0.035     2.512     2.479
   103   1 H        0.925     0.033     2.543     2.494
   104   1 H        0.925     0.036     2.504     2.474
   105   1 H        0.925     0.036     2.498     2.471
   106   1 H        0.925     0.033     2.541     2.493
   107   1 H        0.925     0.036     2.500     2.472
   108   1 H        0.925     0.036     2.502     2.474
   109   1 H        0.926     0.037     2.487     2.466
   110   1 H        0.926     0.024     2.669     2.555
   111   1 H        0.926     0.058     2.228     2.334

molecular dipole:
                 x           y           z       tot (Debye)
 q only:       -0.349       1.083      -0.487
   full:       -0.190       1.226      -0.391       3.306

 projected vibrational frequencies (cm⁻¹)
eigval :       -0.00    -0.00    -0.00    -0.00     0.00     0.00
eigval :        9.34     9.79    12.47    12.70    20.34    30.27
eigval :       30.71    30.88    31.54    33.05    41.62    44.30
eigval :       56.51    63.54    66.32    70.59    73.50    83.71
eigval :       86.00   106.36   111.23   125.05   146.02   153.17
eigval :      155.01   157.81   172.06   177.89   179.51   182.53
eigval :      186.81   192.47   196.91   199.02   216.98   217.17
eigval :      218.63   221.06   228.48   237.12   239.79   249.95
eigval :      261.66   265.06   268.48   274.47   286.86   303.69
eigval :      306.09   309.55   310.42   319.10   321.25   324.64
eigval :      325.95   328.50   328.66   334.92   341.36   348.73
eigval :      355.85   357.54   366.55   369.51   374.28   381.82
eigval :      397.67   399.68   407.92   411.96   412.25   437.68
eigval :      442.11   442.62   444.28   445.52   460.33   461.38
eigval :      461.80   462.89   468.94   471.54   481.51   512.52
eigval :      521.60   539.77   570.69   575.07   578.49   582.21
eigval :      584.13   590.58   601.23   622.08   626.35   639.53
eigval :      640.07   640.24   640.51   667.73   671.13   687.84
eigval :      687.98   692.24   703.93   707.67   709.44   719.47
eigval :      721.39   728.62   767.14   785.16   807.12   815.24
eigval :      818.54   820.06   821.89   833.27   835.14   850.90
eigval :      871.42   873.33   874.19   877.84   881.39   882.98
eigval :      887.68   894.44   897.45   900.67   908.70   911.90
eigval :      916.20   918.02   922.55   924.71   925.70   927.17
eigval :      933.47   935.63   960.13   960.16   960.21   960.50
eigval :      962.62   962.71   962.75   962.77   962.80   962.85
eigval :      963.11   963.26   991.45  1002.85  1030.40  1032.96
eigval :     1035.22  1035.71  1035.85  1035.88  1035.94  1035.97
eigval :     1036.18  1037.67  1045.63  1052.26  1094.77  1113.07
eigval :     1115.49  1120.20  1131.96  1132.39  1141.29  1145.65
eigval :     1165.58  1180.28  1182.17  1196.41  1200.77  1217.59
eigval :     1227.35  1227.92  1228.00  1228.03  1228.23  1228.41
eigval :     1229.01  1232.20  1233.43  1235.50  1237.48  1240.26
eigval :     1246.98  1254.02  1256.21  1261.12  1270.61  1275.47
eigval :     1285.49  1286.42  1296.19  1303.37  1305.01  1308.53
eigval :     1325.48  1339.76  1348.81  1352.74  1360.79  1365.66
eigval :     1371.72  1394.36  1402.28  1402.28  1404.78  1404.96
eigval :     1406.08  1406.13  1406.23  1406.35  1412.54  1413.19
eigval :     1429.50  1429.62  1429.71  1429.75  1432.26  1433.53
eigval :     1454.96  1457.53  1465.87  1475.28  1475.43  1475.87
eigval :     1484.05  1492.31  1492.37  1492.40  1492.42  1494.72
eigval :     1495.02  1495.05  1495.23  1501.70  1502.14  1502.68
eigval :     1502.92  1505.70  1505.78  1506.06  1506.12  1515.17
eigval :     1515.55  1515.58  1515.69  1520.55  1520.69  1520.70
eigval :     1520.79  1552.75  1560.68  1565.99  1573.21  1573.81
eigval :     1574.49  1584.92  1586.69  1605.77  1606.33  1618.74
eigval :     1620.43  1705.72  3021.07  3021.40  3021.52  3021.59
eigval :     3022.85  3023.13  3023.20  3023.47  3026.81  3026.94
eigval :     3026.99  3027.06  3029.73  3030.08  3030.16  3030.57
eigval :     3031.09  3031.11  3031.16  3031.28  3035.46  3035.65
eigval :     3035.75  3035.85  3037.85  3038.20  3038.29  3038.64
eigval :     3047.16  3047.31  3047.41  3047.44  3050.78  3051.02
eigval :     3051.05  3051.13  3059.36  3062.06  3079.49  3079.79
eigval :     3081.39  3082.15  3088.82  3089.05  3090.84  3092.56
eigval :     3094.20  3100.10  3102.91  3109.08  3111.02  3117.95
eigval :     3119.84  3120.00  3120.33

   temp. (K)  partition function   enthalpy   heat capacity  entropy
                                   cal/mol     cal/K/mol   cal/K/mol   J/K/mol
 298.15  VIB  0.361E+26            32252.930    195.680    201.033
         ROT  0.159E+09              888.752      2.981     40.512
         INT  0.575E+34            33141.682    198.661    241.545
         TR   0.194E+29             1481.254      4.968     45.655
         TOT                       34622.9358   203.6295   287.2003  1201.6459

       T/K    H(0)-H(T)+PV         H(T)/Eh          T*S/Eh         G(T)/Eh
   ------------------------------------------------------------------------
    298.15    0.551752E-01    0.977063E+00    0.136458E+00    0.840604E+00
   ------------------------------------------------------------------------

         :::::::::::::::::::::::::::::::::::::::::::::::::::::
         ::                  THERMODYNAMIC                  ::
         :::::::::::::::::::::::::::::::::::::::::::::::::::::
         :: total free energy        -151.520384692537 Eh   ::
         ::.................................................::
         :: total energy             -152.360989151384 Eh   ::
         :: zero point energy           0.921887409394 Eh   ::
         :: G(RRHO) w/o ZPVE           -0.081282950548 Eh   ::
         :: G(RRHO) contrib.            0.840604458847 Eh   ::
         :::::::::::::::::::::::::::::::::::::::::::::::::::::

           -------------------------------------------------
          | TOTAL ENERGY             -152.360989151384 Eh   |
          | TOTAL ENTHALPY           -151.383926581687 Eh   |
          | TOTAL FREE ENERGY        -151.520384692537 Eh   |
          | GRADIENT NORM               0.000046474654 Eh/α |
          | HOMO-LUMO GAP               1.576476276246 eV   |
           -------------------------------------------------

 * finished run on 2025/09/13 at 19:28:49.370
