   * xtb version 6.7.1 (edcfbbe) compiled by 'albert@albert-system' on 2024-07-22

   ID    Z sym.   atoms
    1    6 C      1-20, 22-25, 27-29, 31-34, 36-56
    2    7 N      21, 30, 35
    3    8 O      26
    4    1 H      57-111

          program call               : xtb data2507/gas/4BPy-mDTC/4BPy-mDTC_gas_S0_finalOpt.xtbopt.xyz --gfn 2 --spinpol --tblite --uhf 2 --ohess vtight --parallel 40 --molden --ceasefiles --namespace data2507/gas/4BPy-mDTC/4BPy-mDTC_gas_T1_preOpt
 * total energy  :  -152.2868074 Eh     change        0.4675749E-07 Eh
 * total energy  :  -152.2901911 Eh     change       -0.3383661E-02 Eh
 * total energy  :  -152.2911657 Eh     change       -0.9746149E-03 Eh
 * total energy  :  -152.2914886 Eh     change       -0.3228942E-03 Eh
 * total energy  :  -152.2918547 Eh     change       -0.3661444E-03 Eh
 * total energy  :  -152.2922051 Eh     change       -0.3503309E-03 Eh
 * total energy  :  -152.2925425 Eh     change       -0.3374129E-03 Eh
 * total energy  :  -152.2927606 Eh     change       -0.2181363E-03 Eh
 * total energy  :  -152.2928745 Eh     change       -0.1139080E-03 Eh
 * total energy  :  -152.2929675 Eh     change       -0.9293134E-04 Eh
 * total energy  :  -152.2937903 Eh     change       -0.1173835E-05 Eh
 * total energy  :  -152.2937909 Eh     change       -0.5327544E-06 Eh
 * total energy  :  -152.2937912 Eh     change       -0.3370964E-06 Eh
 * total energy  :  -152.2937915 Eh     change       -0.2858379E-06 Eh
 * total energy  :  -152.2937918 Eh     change       -0.2916351E-06 Eh
 * total energy  :  -152.2937921 Eh     change       -0.3410289E-06 Eh
 * total energy  :  -152.2937927 Eh     change       -0.5948855E-06 Eh
 * total energy  :  -152.2937933 Eh     change       -0.6128030E-06 Eh
 * total energy  :  -152.2937933 Eh     change       -0.8284303E-08 Eh
   *** GEOMETRY OPTIMIZATION CONVERGED AFTER 94 ITERATIONS ***

 final structure:
================
111
 xtb: 6.7.1 (edcfbbe)
C            7.88714858996316       -1.81865808838184       -1.70137130229323
C            7.11799876121538       -0.78178141346275       -2.53258688280933
C            6.84656057981835       -1.33838924159703       -3.93761831411237
C            8.00093736012725        0.46090387565687       -2.67595551377423
C            5.79259990362635       -0.48188701610312       -1.84964978665003
C            4.88538282009401       -1.53003242230416       -1.64431496267207
C            3.66581135973088       -1.35361706361950       -1.02442366299113
C            3.33781712764352       -0.08274107540157       -0.57765763518177
C            4.22009190855205        0.99633703175102       -0.80021437410838
C            5.43927548361437        0.79228443670266       -1.42917912148249
C            3.56950754334782        2.16674859392844       -0.27415536038322
C            3.93846482155453        3.50147397615345       -0.19625258860790
C            3.08477321323188        4.41840944120566        0.39999052888799
C            3.41807521645230        5.89846502274855        0.50831481169164
C            3.46881185779446        6.29700735530818        1.99020802529757
C            2.33262339609157        6.71087407995018       -0.21254854579715
C            4.76868925867475        6.24574086202737       -0.12373599628542
C            1.87265734590007        3.95752957360411        0.93089374216561
C            1.48286315784046        2.63572670550806        0.86799912761010
C            2.32862571566776        1.73420566057047        0.24069957430339
N            2.19739452824302        0.37433058633281        0.04925961558300
C            1.10455447575750       -0.41038727926529        0.44526311242839
C            1.32006895982474       -1.55363229363639        1.20123015875469
C            0.23837080624656       -2.34244160248726        1.61103392939279
C            0.37856283692632       -3.51262923444800        2.47948449957478
O           -0.56059674343959       -3.83692812749383        3.24765453156824
C            1.60525941291475       -4.28509436689594        2.43319009000977
C            1.95317556444899       -5.11016224450100        3.52408700070631
C            3.11113149077962       -5.84816008879310        3.46407860317697
N            3.91671858077424       -5.84402249775271        2.41154613385922
C            3.58626126930231       -5.11564803610566        1.35647707518633
C            2.45493215274113       -4.33368684486221        1.31054878051783
C           -1.05982833750446       -1.92916064859558        1.27977234717302
C           -1.26636551180085       -0.79430598188076        0.51483285671547
N           -2.57189648138441       -0.42792777416108        0.15946928086729
C           -3.14416991120032        0.81455576370872        0.32738748890565
C           -2.62886529200616        1.96845588221711        0.89777220834816
C           -3.44187184400909        3.08105138394857        0.96221519134002
C           -4.75986324724319        3.08751638874843        0.48664455699414
C           -5.57596962169166        4.36551530442182        0.60346634234778
C           -5.69792339365721        4.74965837343292        2.08516253723828
C           -4.86734663348714        5.48767266475721       -0.16876956408240
C           -6.98912249529452        4.21625283204399        0.03345483966343
C           -5.27348233163679        1.91967472524327       -0.06025895278699
C           -4.47691592640358        0.78749421540211       -0.13783714334594
C           -4.71290384003290       -0.55055654761362       -0.61234316733657
C           -5.81150108765633       -1.17145373491111       -1.18695713583393
C           -5.72884238135043       -2.50471288159408       -1.56393643138794
C           -6.89489081569940       -3.25130189718380       -2.19294417481711
C           -6.48553769707540       -3.73785456355877       -3.59064485350461
C           -7.25709121526066       -4.45307280119186       -1.30864139939073
C           -8.14337764002752       -2.37719827845755       -2.34082007907080
C           -4.51964266814825       -3.18439145755948       -1.36304474551166
C           -3.41103906602453       -2.59119038612724       -0.79503940724045
C           -3.51376865431839       -1.26481398295676       -0.40169583282706
C           -0.18561383921690       -0.02690560108662        0.08204272459772
H            8.84848349502625       -2.03064279204031       -2.16449021676826
H            7.33685191098269       -2.75166660067792       -1.61993816009465
H            8.06379201722435       -1.43896149492484       -0.69716030221095
H            6.28051696301211       -0.61780096132276       -4.52442832634590
H            6.27939568070072       -2.26397268352213       -3.89628263823644
H            7.78603508870941       -1.53809972266423       -4.44856148907413
H            8.93600219699321        0.18641096672769       -3.16000408255117
H            7.51645900774871        1.21749691669585       -3.28890853370430
H            8.23905239633804        0.88594406582596       -1.70362152285158
H            5.13778016198510       -2.52242990874854       -1.98465179014055
H            2.98526193845550       -2.18181751450687       -0.90529770764856
H            6.09005038708724        1.63697863587566       -1.58119036742251
H            4.89095507246737        3.79864672860020       -0.60185034395586
H            4.21966593466087        5.70745980857550        2.51217031107215
H            2.51155041159846        6.13744241447039        2.47837558960683
H            3.72798392760270        7.34929588427315        2.08588234626884
H            2.27732462335337        6.41826324567975       -1.25911633814878
H            1.35544300915983        6.55575027323578        0.23600217471935
H            2.56479317106022        7.77257144757279       -0.16267102425584
H            4.95036200542407        7.31406324161841       -0.02511535302206
H            4.77977763191459        6.00021163945165       -1.18320802924865
H            5.58075506403112        5.72099818607690        0.37415794834007
H            1.20819792001696        4.65546861284826        1.41660727233474
H            0.55277283345872        2.31465701563424        1.31000660764550
H            2.32370417552700       -1.78897292327635        1.52019734056142
H            1.32179640317509       -5.14244803296313        4.39661359920490
H            3.41606489808577       -6.47359566590046        4.29190037349380
H            4.25497994252650       -5.17547973929070        0.50852642216590
H            2.20625889643540       -3.81220175032659        0.40086427348492
H           -1.89601322885002       -2.50482644111612        1.64456288360236
H           -1.62748696471988        1.99563616071029        1.29747699177099
H           -3.03506840522255        3.97649704773795        1.40630790271540
H           -6.29920467477702        5.65028202815209        2.18992167085163
H           -4.72439408076088        4.93769186715608        2.52902189199037
H           -6.17700387755769        3.94757966126293        2.64273887461895
H           -3.87871114397052        5.68643985997819        0.23522311040510
H           -4.75851530145793        5.21242450444807       -1.21583246730109
H           -5.44848119879466        6.40561327318430       -0.11164543835413
H           -7.52192188667923        5.15953393411326        0.13545508277297
H           -7.55006495081121        3.45553105539323        0.57132048836359
H           -6.96011525307166        3.96011262868156       -1.02316250289977
H           -6.28581082319867        1.86538905361973       -0.42396637667332
H           -6.71227967830484       -0.59897828393933       -1.33187300607270
H           -7.31657426261593       -4.25615795391524       -4.06428251871817
H           -5.64231715251787       -4.42100233053709       -3.54279934846913
H           -6.20436226304277       -2.89252321740330       -4.21548632956170
H           -7.52737392387926       -4.11643109425465       -0.30998151023182
H           -8.10344953006401       -4.98851471924673       -1.73366182550245
H           -6.42613991593888       -5.14697122125426       -1.21997177478393
H           -7.95071725437005       -1.52447330680470       -2.98787526262616
H           -8.94392510054401       -2.96279679583249       -2.78828426983253
H           -8.48907378759979       -2.02181799265444       -1.37286474085266
H           -4.43796342114109       -4.21756755522595       -1.66314265632980
H           -2.49379689373634       -3.14526818432756       -0.66710499591839
H           -0.34189114621568        0.83656903161432       -0.54523972875027

 projected vibrational frequencies (cm⁻¹)
eigval :       -0.00    -0.00     0.00     0.00     0.00     0.00
eigval :        7.82    10.58    12.06    17.03    21.18    29.97
eigval :       30.42    32.77    33.19    34.65    42.95    46.06
eigval :       59.07    60.57    67.03    74.60    77.98    79.58
eigval :       89.35   106.79   113.13   127.62   144.79   153.32
eigval :      157.22   158.33   170.55   176.41   183.45   187.32
eigval :      197.61   200.32   202.06   208.41   216.95   218.70
eigval :      220.17   223.26   227.27   229.98   232.22   243.64
eigval :      253.74   257.55   258.42   272.39   282.96   288.17
eigval :      294.78   315.47   318.01   318.59   322.53   322.77
eigval :      332.47   337.04   339.31   343.43   350.07   358.21
eigval :      358.59   361.92   366.56   368.32   373.47   384.22
eigval :      392.66   396.99   406.07   406.76   407.92   428.77
eigval :      439.20   440.45   441.08   442.37   455.25   460.39
eigval :      462.48   465.44   465.94   470.56   478.76   513.79
eigval :      516.96   532.31   555.24   559.71   576.44   581.37
eigval :      585.64   590.66   597.40   605.82   609.25   616.76
eigval :      630.16   640.86   641.18   641.39   655.82   662.59
eigval :      670.24   689.41   690.07   703.27   707.99   708.95
eigval :      717.16   720.22   765.89   775.86   780.66   810.77
eigval :      814.48   816.88   822.64   823.73   831.26   833.01
eigval :      835.18   862.50   865.56   867.42   870.71   872.84
eigval :      873.19   874.33   881.90   886.21   893.69   903.02
eigval :      906.16   914.54   916.38   919.06   924.64   928.45
eigval :      930.86   933.34   960.31   960.36   960.42   960.45
eigval :      962.92   962.94   963.20   963.28   963.33   963.35
eigval :      963.38   963.46   967.60   987.34  1026.36  1028.80
eigval :     1032.35  1034.16  1035.13  1035.19  1035.20  1035.34
eigval :     1036.68  1038.71  1042.06  1044.71  1076.72  1109.72
eigval :     1112.24  1117.30  1125.83  1129.12  1131.66  1133.51
eigval :     1152.71  1163.46  1165.14  1169.52  1186.22  1215.54
eigval :     1219.32  1226.24  1226.75  1226.81  1227.02  1227.14
eigval :     1227.77  1230.56  1231.10  1231.27  1233.67  1234.69
eigval :     1235.75  1243.46  1246.71  1253.82  1261.46  1282.58
eigval :     1283.02  1295.39  1298.94  1301.41  1304.52  1321.55
eigval :     1331.27  1338.84  1344.31  1348.18  1349.60  1351.53
eigval :     1376.73  1378.67  1402.02  1402.37  1404.81  1404.90
eigval :     1405.86  1406.07  1406.10  1406.17  1409.24  1411.00
eigval :     1411.25  1421.15  1424.25  1429.66  1429.75  1429.80
eigval :     1429.87  1443.32  1450.17  1450.50  1468.20  1469.94
eigval :     1471.13  1480.75  1481.90  1491.61  1491.79  1491.84
eigval :     1491.88  1494.09  1494.12  1494.19  1494.52  1500.56
eigval :     1500.66  1500.73  1500.99  1504.91  1505.11  1505.13
eigval :     1505.25  1514.88  1514.92  1515.10  1515.16  1517.87
eigval :     1519.69  1519.76  1520.39  1520.55  1523.09  1557.81
eigval :     1563.66  1565.90  1577.71  1580.18  1585.62  1589.78
eigval :     1602.96  1610.62  3022.86  3022.96  3023.03  3023.16
eigval :     3024.71  3024.75  3024.81  3025.00  3027.64  3027.65
eigval :     3027.70  3027.89  3031.04  3031.11  3031.22  3031.50
eigval :     3032.11  3032.20  3032.28  3032.40  3036.06  3036.17
eigval :     3036.26  3036.45  3039.27  3039.31  3039.43  3039.62
eigval :     3048.24  3048.37  3048.79  3049.40  3051.32  3051.54
eigval :     3052.04  3052.80  3058.84  3061.71  3087.29  3087.49
eigval :     3089.31  3089.41  3097.67  3098.97  3099.24  3099.71
eigval :     3101.16  3103.15  3104.87  3109.90  3116.04  3117.92
eigval :     3117.99  3121.11  3121.20

   temp. (K)  partition function   enthalpy   heat capacity  entropy
                                   cal/mol     cal/K/mol   cal/K/mol   J/K/mol
 298.15  VIB  0.228E+26            32358.896    197.222    201.167
         ROT  0.159E+09              888.752      2.981     40.515
         INT  0.364E+34            33247.648    200.203    241.682
         TR   0.194E+29             1481.254      4.968     45.655
         TOT                       34728.9020   205.1708   287.3368  1202.2172

       T/K    H(0)-H(T)+PV         H(T)/Eh          T*S/Eh         G(T)/Eh
   ------------------------------------------------------------------------
    298.15    0.553440E-01    0.974141E+00    0.136523E+00    0.837618E+00
   ------------------------------------------------------------------------

         :::::::::::::::::::::::::::::::::::::::::::::::::::::
         ::                  THERMODYNAMIC                  ::
         :::::::::::::::::::::::::::::::::::::::::::::::::::::
         :: total free energy        -151.456175237970 Eh   ::
         ::.................................................::
         :: total energy             -152.293793306433 Eh   ::
         :: zero point energy           0.918797028018 Eh   ::
         :: G(RRHO) w/o ZPVE           -0.081178959555 Eh   ::
         :: G(RRHO) contrib.            0.837618068463 Eh   ::
         :::::::::::::::::::::::::::::::::::::::::::::::::::::

           -------------------------------------------------
          | TOTAL ENERGY             -152.293793306433 Eh   |
          | TOTAL ENTHALPY           -151.319652250299 Eh   |
          | TOTAL FREE ENERGY        -151.456175237970 Eh   |
          | GRADIENT NORM               0.000058344907 Eh/α |
           -------------------------------------------------

 * finished run on 2025/09/13 at 19:50:39.985
