   * xtb version 6.7.1 (edcfbbe) compiled by 'albert@albert-system' on 2024-07-22

   ID    Z sym.   atoms
    1    6 C      1-20, 22-25, 27-29, 31-34, 36-56
    2    7 N      21, 30, 35
    3    8 O      26
    4    1 H      57-111

          program call               : xtb data2507/gas/4BPy-mDTC/4BPy-mDTC_gas_S0_crest.xyz --gfn 2 --ohess vtight --parallel 40 --molden --ceasefiles --namespace data2507/gas/4BPy-mDTC/4BPy-mDTC_gas_S0_finalOpt
          :  Hamiltonian                  GFN2-xTB          :
 * total energy  :  -152.3632204 Eh     change       -0.5934453E-08 Eh
 * total energy  :  -152.3632220 Eh     change       -0.1591735E-05 Eh
 * total energy  :  -152.3632243 Eh     change       -0.2303389E-05 Eh
 * total energy  :  -152.3632297 Eh     change       -0.5386253E-05 Eh
 * total energy  :  -152.3632363 Eh     change       -0.6621242E-05 Eh
 * total energy  :  -152.3632396 Eh     change       -0.3252454E-05 Eh
 * total energy  :  -152.3632416 Eh     change       -0.1991042E-05 Eh
 * total energy  :  -152.3632440 Eh     change       -0.2470387E-05 Eh
 * total energy  :  -152.3632476 Eh     change       -0.3546684E-05 Eh
 * total energy  :  -152.3632510 Eh     change       -0.3450613E-05 Eh
 * total energy  :  -152.3632834 Eh     change       -0.9957906E-06 Eh
 * total energy  :  -152.3632844 Eh     change       -0.9506424E-06 Eh
 * total energy  :  -152.3632853 Eh     change       -0.8686461E-06 Eh
 * total energy  :  -152.3632860 Eh     change       -0.7524337E-06 Eh
 * total energy  :  -152.3632867 Eh     change       -0.6547443E-06 Eh
 * total energy  :  -152.3632873 Eh     change       -0.6020489E-06 Eh
 * total energy  :  -152.3632879 Eh     change       -0.6186948E-06 Eh
 * total energy  :  -152.3632886 Eh     change       -0.6879204E-06 Eh
 * total energy  :  -152.3632886 Eh     change       -0.2814744E-08 Eh
   *** GEOMETRY OPTIMIZATION CONVERGED AFTER 44 ITERATIONS ***

 final structure:
================
111
 xtb: 6.7.1 (edcfbbe)
C            7.98597156517119       -1.81091443831262       -1.21523237421030
C            7.22754304538837       -0.86770070268160       -2.15982297021108
C            7.03000235231877       -1.54458240852852       -3.52347148699616
C            8.08444764168863        0.38366347387666       -2.37000124073572
C            5.86755546275029       -0.54928226817172       -1.55675529420447
C            4.97714370562231       -1.60040935230854       -1.30357106669922
C            3.72992765749461       -1.40952157935014       -0.74447129272324
C            3.35405670804715       -0.11880372393211       -0.40739258365623
C            4.21738040406500        0.95989610366957       -0.68680049845371
C            5.46597445682208        0.74108921119438       -1.25358964554702
C            3.52568784209784        2.15343469945246       -0.28402057170238
C            3.87500937032897        3.49713062603825       -0.30489535590224
C            2.99183537921646        4.44546853681875        0.18389243689058
C            3.29877030272611        5.93567781873295        0.17720913305996
C            3.30408067720203        6.45684590012188        1.62120423760727
C            2.22099157673265        6.66643413733160       -0.63622790564439
C            4.66013990963513        6.25236955091447       -0.44777526523671
C            1.77197918555472        4.00813910500017        0.71548813817140
C            1.40228470666273        2.67907774711544        0.74898545752845
C            2.27530159497441        1.74241501000756        0.22040575293978
N            2.17569039365773        0.36283128263606        0.14185691797883
C            1.08869161870279       -0.41374277512135        0.54269305442540
C            1.30316249181161       -1.58865092588354        1.25965817427692
C            0.22336781203064       -2.38202333774243        1.63250149081640
C            0.42666401095502       -3.63835673785394        2.39761647505733
O           -0.37966441323348       -4.05827287071491        3.19733072061942
C            1.69508936630300       -4.36620948267284        2.10043834263506
C            2.43713973061161       -4.93586807810617        3.13052143283098
C            3.60736163590244       -5.60453113601448        2.80615313607913
N            4.04561519309478       -5.74407298206711        1.56710727270750
C            3.32516649791505       -5.22732101107375        0.58694266290740
C            2.14693279447742       -4.52780193715718        0.79260998723863
C           -1.07446089741606       -1.98908245456368        1.32606863600093
C           -1.29308929355033       -0.82086340858986        0.60292768160404
N           -2.59261346700502       -0.44509559888951        0.26013340704932
C           -3.15701134288259        0.80492982472775        0.43881542006328
C           -2.64306116544735        1.94127065139434        1.04098674073466
C           -3.44925104010957        3.05829006241049        1.11828623709863
C           -4.76054937949828        3.08447420459877        0.62579939501324
C           -5.56818827955512        4.36740952610855        0.75763476504468
C           -5.71394186233303        4.71878633743890        2.24509270954045
C           -4.83816744947937        5.50126713899098        0.02384625664473
C           -6.97192392659937        4.24257330035007        0.15915200776621
C           -5.27494822691864        1.93233695567765        0.05414923441961
C           -4.48400676192735        0.79458889811329       -0.03664796546528
C           -4.72965164551082       -0.53226373142741       -0.53185231402971
C           -5.83232389243508       -1.12892009665970       -1.12876104089268
C           -5.76459901887948       -2.45293086161626       -1.52959183216280
C           -6.93407069651790       -3.17324438475922       -2.18461561235101
C           -6.52000405948307       -3.63099308684106       -3.59036565143323
C           -7.31701671668809       -4.39111880958262       -1.33202847067603
C           -8.17173420551789       -2.28204627071970       -2.32073609840060
C           -4.56571619412596       -3.15071651594681       -1.33213448661157
C           -3.45496853404628       -2.58245963649415       -0.74214205112848
C           -3.54373906718965       -1.26499737486306       -0.32227548214741
C           -0.21026645023916       -0.04131903960610        0.20403970620916
H            8.96960666609612       -2.03694983046959       -1.62158506821487
H            7.45308461718570       -2.74711813964304       -1.07477815985583
H            8.11394623378232       -1.34325788760557       -0.24113026454648
H            6.46870133083572       -0.89192258223068       -4.18907043635952
H            6.48739920459089       -2.48079552833573       -3.42736918710553
H            7.99470880639327       -1.75634814236631       -3.97978393148912
H            9.04568593500202        0.09775846197356       -2.79239401125667
H            7.60665454266616        1.07395440414442       -3.06140855854793
H            8.27044414782350        0.89290363465630       -1.42719586003698
H            5.26457519650563       -2.61037848706286       -1.55261766926929
H            3.07315471259085       -2.25102273756122       -0.58923166064926
H            6.09870760276017        1.59073174627895       -1.44830081385436
H            4.83768188713362        3.77237223878502       -0.70187725390826
H            4.05029162900938        5.92631336671512        2.20912043316899
H            2.33675864633405        6.32026059319291        2.09649435787304
H            3.54334353264505        7.51814656973915        1.63580481308732
H            2.19822435130792        6.28665494473359       -1.65565708150892
H            1.23458507664270        6.53178035407971       -0.20140875939772
H            2.43501202931755        7.73268221636232       -0.66963369589645
H            4.82186950783564        7.32845308372286       -0.43797538843803
H            4.70358833165290        5.91576470223209       -1.48106180748728
H            5.46684145071754        5.78745139801568        0.11420678011386
H            1.08224454855298        4.73082272344313        1.12388106585195
H            0.46313440006410        2.38841689871600        1.19221148716716
H            2.30550313304184       -1.85661759917689        1.55570261412219
H            2.10330951495081       -4.84338875772209        4.15219717353544
H            4.22443139452884       -6.05375424180610        3.57301892202100
H            3.71619557341106       -5.37925933299821       -0.41074695417951
H            1.58000267255129       -4.13605556912323       -0.03886318947484
H           -1.90298809447332       -2.59498692140026        1.65847080370805
H           -1.64897215993212        1.95357745639259        1.46060902737460
H           -3.04166287789327        3.94070803860836        1.58748392440485
H           -6.30885435721768        5.62245946303985        2.36067839055717
H           -4.74662836161667        4.88695066354145        2.71024224952350
H           -6.20999004306306        3.90834169271290        2.77520036522373
H           -3.85540056332274        5.68305373177215        0.44967536993467
H           -4.71249826162326        5.24862983978134       -1.02704575734976
H           -5.41306119292305        6.42258856364542        0.09125575718505
H           -7.49837420266267        5.18861262713776        0.26940299741404
H           -7.54933460395659        3.47663687353039        0.67160174443677
H           -6.92507921535224        4.00582075222784       -0.90133962758195
H           -6.28423045856325        1.88893714462928       -0.31948389364481
H           -6.72257749728901       -0.53960684799063       -1.27130036762384
H           -7.35260359924148       -4.12885749808483       -4.08307591572149
H           -5.68427544769572       -4.32409294807380       -3.55234801254488
H           -6.22457161906459       -2.77404303375063       -4.19239988575493
H           -7.59091646546596       -4.07479577592448       -0.32765114735951
H           -8.16617960446404       -4.90714615052202       -1.77535842082574
H           -6.49452088298074       -5.09644189077106       -1.25372261625564
H           -7.96497207190987       -1.41766801344268       -2.94757781473487
H           -8.97654117314597       -2.84821258953443       -2.78550191704629
H           -8.51844800131217       -1.94339226447713       -1.34714862920369
H           -4.49254823897335       -4.17841161545527       -1.65356754871007
H           -2.54582006626736       -3.15293384264046       -0.62375374010780
H           -0.37864634168605        0.83906135521243       -0.39697568548708

          :  Hamiltonian                  GFN2-xTB          :
         :: gradient norm              0.000042564192 Eh/a0 ::
         :: HOMO-LUMO gap              1.601157923546 eV    ::
         :: SCC energy              -154.967170187093 Eh    ::
         :: -> dispersion             -0.141660797708 Eh    ::
         :: repulsion energy           2.603881611961 Eh    ::

    * Orbital Energies and Occupations

         #    Occupation            Energy/Eh            Energy/eV
      -------------------------------------------------------------
         1        2.0000           -0.7183490             -19.5473
       ...           ...                  ...                  ...
       130        2.0000           -0.4149885             -11.2924
       131        2.0000           -0.4118734             -11.2076
       132        2.0000           -0.4095108             -11.1434
       133        2.0000           -0.4084550             -11.1146
       134        2.0000           -0.4075860             -11.0910
       135        2.0000           -0.4063907             -11.0585
       136        2.0000           -0.3987235             -10.8498
       137        2.0000           -0.3965536             -10.7908
       138        2.0000           -0.3774076             -10.2698
       139        2.0000           -0.3757179             -10.2238
       140        2.0000           -0.3734234             -10.1614
       141        2.0000           -0.3620192              -9.8510
       142        2.0000           -0.3590969              -9.7715 (HOMO)
       143                         -0.3002554              -8.1704 (LUMO)
       144                         -0.2583953              -7.0313
       145                         -0.2521953              -6.8626
       146                         -0.2492639              -6.7828
       147                         -0.2420856              -6.5875
       148                         -0.2383325              -6.4854
       149                         -0.2198691              -5.9829
       150                         -0.2175035              -5.9186
       151                         -0.2126015              -5.7852
       152                         -0.1897920              -5.1645
       153                         -0.1863740              -5.0715
       ...                                ...                  ...
       279                          0.7434131              20.2293
      -------------------------------------------------------------
                  HL-Gap            0.0588415 Eh            1.6012 eV

     #   Z          covCN         q      C6AA      α(0)
     1   6 C        3.762    -0.106    22.567     6.772
     2   6 C        3.903     0.026    20.086     6.370
     3   6 C        3.761    -0.105    22.559     6.771
     4   6 C        3.761    -0.107    22.595     6.776
     5   6 C        2.973    -0.000    28.026     8.684
     6   6 C        2.931    -0.039    28.966     8.826
     7   6 C        2.909    -0.055    29.358     8.885
     8   6 C        3.075     0.042    26.991     8.518
     9   6 C        3.067    -0.018    28.399     8.738
    10   6 C        2.918    -0.043    29.075     8.842
    11   6 C        3.067    -0.019    28.405     8.739
    12   6 C        2.918    -0.043    29.074     8.842
    13   6 C        2.973    -0.001    28.038     8.686
    14   6 C        3.903     0.026    20.085     6.370
    15   6 C        3.761    -0.105    22.556     6.770
    16   6 C        3.762    -0.105    22.557     6.770
    17   6 C        3.761    -0.107    22.594     6.776
    18   6 C        2.931    -0.039    28.959     8.825
    19   6 C        2.909    -0.053    29.311     8.878
    20   6 C        3.074     0.042    26.978     8.516
    21   7 N        2.801    -0.045    22.104     6.983
    22   6 C        2.908     0.070    26.439     8.431
    23   6 C        2.924    -0.050    29.249     8.869
    24   6 C        2.972    -0.012    28.320     8.729
    25   6 C        2.827     0.229    23.193     7.891
    26   8 O        0.857    -0.352    20.738     6.106
    27   6 C        2.982     0.007    27.857     8.658
    28   6 C        2.917    -0.029    28.713     8.787
    29   6 C        2.912     0.062    26.609     8.459
    30   7 N        1.836    -0.209    26.380     7.611
    31   6 C        2.912     0.062    26.608     8.458
    32   6 C        2.916    -0.035    28.864     8.810
    33   6 C        2.926    -0.041    29.009     8.833
    34   6 C        2.909     0.070    26.425     8.429
    35   7 N        2.802    -0.044    22.092     6.981
    36   6 C        3.077     0.043    26.965     8.514
    37   6 C        2.909    -0.052    29.296     8.875
    38   6 C        2.931    -0.039    28.960     8.826
    39   6 C        2.973    -0.001    28.050     8.687
    40   6 C        3.903     0.026    20.085     6.370
    41   6 C        3.762    -0.105    22.554     6.770
    42   6 C        3.762    -0.105    22.552     6.770
    43   6 C        3.761    -0.107    22.592     6.776
    44   6 C        2.918    -0.043    29.072     8.842
    45   6 C        3.067    -0.019    28.406     8.739
    46   6 C        3.068    -0.019    28.402     8.739
    47   6 C        2.918    -0.043    29.072     8.842
    48   6 C        2.973    -0.001    28.040     8.686
    49   6 C        3.903     0.026    20.086     6.371
    50   6 C        3.762    -0.105    22.555     6.770
    51   6 C        3.762    -0.105    22.560     6.771
    52   6 C        3.761    -0.107    22.592     6.776
    53   6 C        2.931    -0.038    28.952     8.824
    54   6 C        2.909    -0.053    29.304     8.876
    55   6 C        3.077     0.042    26.966     8.514
    56   6 C        2.925    -0.056    29.386     8.890
    57   1 H        0.925     0.037     2.490     2.468
    58   1 H        0.925     0.037     2.490     2.467
    59   1 H        0.925     0.033     2.539     2.492
    60   1 H        0.925     0.033     2.542     2.493
    61   1 H        0.925     0.036     2.507     2.476
    62   1 H        0.925     0.037     2.490     2.468
    63   1 H        0.925     0.036     2.506     2.475
    64   1 H        0.925     0.035     2.511     2.478
    65   1 H        0.925     0.036     2.507     2.476
    66   1 H        0.926     0.030     2.583     2.513
    67   1 H        0.926     0.021     2.711     2.575
    68   1 H        0.926     0.039     2.462     2.454
    69   1 H        0.926     0.039     2.468     2.457
    70   1 H        0.925     0.033     2.540     2.492
    71   1 H        0.925     0.036     2.509     2.477
    72   1 H        0.925     0.036     2.496     2.471
    73   1 H        0.925     0.033     2.539     2.492
    74   1 H        0.925     0.036     2.505     2.475
    75   1 H        0.925     0.036     2.498     2.472
    76   1 H        0.925     0.035     2.510     2.478
    77   1 H        0.925     0.036     2.508     2.477
    78   1 H        0.925     0.035     2.510     2.478
    79   1 H        0.926     0.030     2.580     2.512
    80   1 H        0.926     0.025     2.663     2.552
    81   1 H        0.926     0.045     2.382     2.413
    82   1 H        0.926     0.054     2.270     2.356
    83   1 H        0.925     0.048     2.342     2.393
    84   1 H        0.925     0.045     2.377     2.411
    85   1 H        0.926     0.037     2.489     2.467
    86   1 H        0.926     0.065     2.138     2.287
    87   1 H        0.926     0.022     2.709     2.574
    88   1 H        0.926     0.029     2.595     2.519
    89   1 H        0.925     0.036     2.502     2.473
    90   1 H        0.925     0.035     2.511     2.478
    91   1 H        0.925     0.034     2.536     2.490
    92   1 H        0.925     0.035     2.513     2.479
    93   1 H        0.925     0.033     2.541     2.493
    94   1 H        0.925     0.036     2.504     2.475
    95   1 H        0.925     0.035     2.515     2.480
    96   1 H        0.925     0.036     2.507     2.476
    97   1 H        0.925     0.035     2.511     2.478
    98   1 H        0.926     0.038     2.472     2.459
    99   1 H        0.926     0.038     2.470     2.458
   100   1 H        0.925     0.036     2.500     2.472
   101   1 H        0.925     0.035     2.512     2.478
   102   1 H        0.925     0.033     2.546     2.495
   103   1 H        0.925     0.034     2.530     2.487
   104   1 H        0.925     0.036     2.502     2.474
   105   1 H        0.925     0.036     2.503     2.474
   106   1 H        0.925     0.035     2.514     2.479
   107   1 H        0.925     0.035     2.514     2.479
   108   1 H        0.925     0.036     2.505     2.475
   109   1 H        0.926     0.030     2.583     2.513
   110   1 H        0.926     0.023     2.691     2.566
   111   1 H        0.926     0.057     2.237     2.339

molecular dipole:
                 x           y           z       tot (Debye)
 q only:        0.316       0.903      -0.822
   full:        0.108       1.014      -0.750       3.218

 projected vibrational frequencies (cm⁻¹)
eigval :       -0.00    -0.00     0.00     0.00     0.00     0.00
eigval :        8.26    10.49    12.32    15.86    19.62    29.05
eigval :       30.79    31.77    33.32    33.64    41.60    47.62
eigval :       60.61    61.33    63.83    69.92    75.44    79.75
eigval :       87.82   104.69   110.64   127.58   141.02   155.16
eigval :      158.45   159.67   172.73   177.17   181.05   187.32
eigval :      196.36   200.21   201.50   203.50   216.41   219.10
eigval :      221.17   222.18   225.90   230.40   235.98   238.71
eigval :      246.99   258.79   259.86   270.35   283.10   285.98
eigval :      292.00   313.37   317.43   317.90   321.72   322.15
eigval :      327.02   332.79   337.12   338.44   342.25   351.60
eigval :      359.95   360.36   363.18   367.33   374.22   381.75
eigval :      395.32   398.41   407.00   410.63   411.68   436.50
eigval :      440.46   440.67   442.37   443.56   455.72   461.60
eigval :      463.83   465.59   466.49   472.28   475.33   517.17
eigval :      520.94   545.20   561.47   575.66   579.25   584.06
eigval :      584.91   595.90   600.92   621.90   625.53   640.34
eigval :      640.45   641.13   646.34   667.20   670.04   687.54
eigval :      687.79   694.93   705.33   707.26   710.10   718.94
eigval :      722.17   729.61   767.93   785.36   806.44   811.00
eigval :      816.76   820.03   822.23   832.15   833.49   848.72
eigval :      867.60   869.80   870.57   873.66   874.21   876.71
eigval :      890.20   892.99   898.23   902.32   906.39   914.85
eigval :      916.42   917.13   920.95   925.08   926.76   927.69
eigval :      932.55   937.10   960.31   960.40   960.44   960.49
eigval :      962.86   963.00   963.03   963.06   963.08   963.16
eigval :      963.43   963.51   991.25  1002.71  1029.07  1030.41
eigval :     1033.35  1035.46  1035.72  1035.82  1035.90  1035.92
eigval :     1038.08  1039.87  1043.81  1050.80  1094.21  1111.90
eigval :     1114.01  1119.46  1127.97  1132.09  1135.58  1144.71
eigval :     1165.25  1172.76  1178.91  1191.11  1199.92  1217.44
eigval :     1227.38  1228.16  1228.28  1228.40  1228.46  1230.23
eigval :     1231.36  1232.53  1233.31  1235.72  1236.42  1237.58
eigval :     1240.03  1250.89  1255.85  1260.78  1268.81  1275.66
eigval :     1284.18  1284.76  1297.72  1307.79  1310.46  1310.92
eigval :     1322.50  1344.70  1347.87  1348.55  1357.45  1360.46
eigval :     1371.36  1393.57  1402.36  1402.89  1404.90  1405.00
eigval :     1406.18  1406.29  1406.41  1406.58  1412.37  1413.18
eigval :     1429.64  1429.72  1429.83  1429.91  1432.58  1433.08
eigval :     1455.24  1456.52  1465.65  1483.09  1483.78  1485.15
eigval :     1485.32  1492.31  1492.41  1492.48  1492.54  1494.85
eigval :     1494.89  1495.09  1495.28  1501.35  1501.63  1501.81
eigval :     1502.07  1505.69  1505.79  1505.87  1505.96  1514.88
eigval :     1515.02  1515.09  1515.26  1520.14  1520.30  1520.99
eigval :     1521.13  1552.96  1560.06  1564.79  1571.71  1572.79
eigval :     1574.28  1583.03  1584.32  1605.89  1606.35  1617.45
eigval :     1618.54  1716.55  3021.33  3021.49  3021.89  3022.24
eigval :     3022.91  3022.96  3023.48  3023.85  3026.91  3026.97
eigval :     3027.04  3027.05  3029.81  3030.18  3030.35  3030.71
eigval :     3031.10  3031.12  3031.18  3031.29  3035.60  3035.65
eigval :     3035.82  3035.93  3038.14  3038.24  3038.36  3038.55
eigval :     3046.71  3047.04  3047.28  3047.63  3050.13  3050.47
eigval :     3051.04  3051.24  3057.53  3062.50  3077.82  3081.97
eigval :     3082.39  3087.47  3087.74  3093.45  3094.90  3100.32
eigval :     3100.81  3101.45  3103.17  3105.06  3107.66  3116.66
eigval :     3116.81  3120.05  3120.27

   temp. (K)  partition function   enthalpy   heat capacity  entropy
                                   cal/mol     cal/K/mol   cal/K/mol   J/K/mol
 298.15  VIB  0.296E+26            32275.031    195.922    201.095
         ROT  0.157E+09              888.752      2.981     40.481
         INT  0.465E+34            33163.783    198.903    241.576
         TR   0.194E+29             1481.254      4.968     45.655
         TOT                       34645.0372   203.8709   287.2314  1201.7763

       T/K    H(0)-H(T)+PV         H(T)/Eh          T*S/Eh         G(T)/Eh
   ------------------------------------------------------------------------
    298.15    0.552104E-01    0.976957E+00    0.136473E+00    0.840484E+00
   ------------------------------------------------------------------------

         :::::::::::::::::::::::::::::::::::::::::::::::::::::
         ::                  THERMODYNAMIC                  ::
         :::::::::::::::::::::::::::::::::::::::::::::::::::::
         :: total free energy        -151.522804927433 Eh   ::
         ::.................................................::
         :: total energy             -152.363288575132 Eh   ::
         :: zero point energy           0.921746182732 Eh   ::
         :: G(RRHO) w/o ZPVE           -0.081262535033 Eh   ::
         :: G(RRHO) contrib.            0.840483647699 Eh   ::
         :::::::::::::::::::::::::::::::::::::::::::::::::::::

           -------------------------------------------------
          | TOTAL ENERGY             -152.363288575132 Eh   |
          | TOTAL ENTHALPY           -151.386332011313 Eh   |
          | TOTAL FREE ENERGY        -151.522804927433 Eh   |
          | GRADIENT NORM               0.000042572248 Eh/α |
          | HOMO-LUMO GAP               1.601157564041 eV   |
           -------------------------------------------------

 * finished run on 2025/09/13 at 19:50:10.982
