   * xtb version 6.7.1 (edcfbbe) compiled by 'albert@albert-system' on 2024-07-22

   ID    Z sym.   atoms
    1    6 C      1-19, 21-24, 26-30, 32, 33, 35-39, 41-48
    2    7 N      20, 25, 31, 34, 40
    3    1 H      49-73

          program call               : xtb data2507/toluene/SAF-2NP/SAF-2NP_toluene_T1_crest.xyz --gfn 2 --uhf 2 --gbsa toluene --ohess vtight --parallel 40 --molden --ceasefiles --namespace data2507/toluene/SAF-2NP/SAF-2NP_toluene_T1_finalOpt
      * Solvation model:               GBSA
        Solvent                        toluene
        Solvent mass                       9.2140E+01 g/mol
          :  Hamiltonian                  GFN2-xTB          :
 * total energy  :  -119.5122855 Eh     change        0.3306582E-09 Eh
 * total energy  :  -119.5123594 Eh     change       -0.7396180E-04 Eh
 * total energy  :  -119.5123888 Eh     change       -0.2932445E-04 Eh
 * total energy  :  -119.5123940 Eh     change       -0.5247836E-05 Eh
 * total energy  :  -119.5123969 Eh     change       -0.2911362E-05 Eh
 * total energy  :  -119.5124001 Eh     change       -0.3212645E-05 Eh
 * total energy  :  -119.5124043 Eh     change       -0.4159288E-05 Eh
 * total energy  :  -119.5124082 Eh     change       -0.3875095E-05 Eh
 * total energy  :  -119.5124110 Eh     change       -0.2797662E-05 Eh
 * total energy  :  -119.5124133 Eh     change       -0.2337590E-05 Eh
 * total energy  :  -119.5124736 Eh     change       -0.2688967E-05 Eh
 * total energy  :  -119.5124744 Eh     change       -0.8378018E-06 Eh
 * total energy  :  -119.5124761 Eh     change       -0.1637318E-05 Eh
 * total energy  :  -119.5124772 Eh     change       -0.1138092E-05 Eh
 * total energy  :  -119.5124781 Eh     change       -0.8592387E-06 Eh
 * total energy  :  -119.5124790 Eh     change       -0.9110070E-06 Eh
 * total energy  :  -119.5124798 Eh     change       -0.7979791E-06 Eh
 * total energy  :  -119.5124802 Eh     change       -0.4225876E-06 Eh
 * total energy  :  -119.5124803 Eh     change       -0.5952698E-07 Eh
   *** GEOMETRY OPTIMIZATION CONVERGED AFTER 51 ITERATIONS ***

 final structure:
================
73
 xtb: 6.7.1 (edcfbbe)
C           -6.43615091025552        3.64931590482669        0.09087996905614
C           -5.05389188071921        3.75622467307521        0.06052482652283
C           -4.25393945109171        2.62097818358812        0.02803603228301
C           -4.86600873833480        1.38728579842963        0.02661715044218
C           -6.26278105289683        1.27258222765301        0.05460497431124
C           -7.05483837176709        2.40882351803886        0.08771933306678
C           -6.61241072246650       -0.14060686130512        0.04045467811947
C           -7.84303129716368       -0.77680278593845        0.05569171703237
C           -7.87395075569546       -2.16259211878094        0.03375702354615
C           -6.70059880139481       -2.90085890201521       -0.00233227741068
C           -5.46344144909166       -2.26907941653084       -0.01694556490201
C           -5.42971735477698       -0.89249502413706        0.00434357688164
C           -4.21067221444524        0.01488723659283       -0.00363843291712
C           -3.41933674708300       -0.16051735941785       -1.27294438332740
C           -4.06652743330951       -0.02556499688720       -2.49262658930357
C           -3.38265486519248       -0.15974122714522       -3.68667307310482
C           -2.02168953886119       -0.42980863290960       -3.66657103939142
C           -1.35988285598404       -0.56945458421353       -2.46599818823308
C           -2.04664451017157       -0.44300929480190       -1.25134433821707
N           -1.37337814892133       -0.59344634436786       -0.05501391975018
C            0.01999005278623       -0.89803210432998       -0.08014324164268
C            0.43465141126568       -2.22264784005689       -0.17382953542936
C            1.78321389920467       -2.52647265242264       -0.19534025855008
C            2.74659985800445       -1.51848737463898       -0.12150736095519
N            4.05441614034052       -1.79049125322320       -0.13647251739752
C            4.95751040641712       -0.81719143204066       -0.06053109305982
C            6.35262902761913       -1.11415937382662       -0.07197430847121
C            6.81355851242167       -2.43828055627564       -0.16807380351495
C            8.16358482026515       -2.68287677375573       -0.17603903527711
C            9.03662799218058       -1.58985006596224       -0.08566934772566
N            8.63380026108215       -0.34824784008179        0.00643449659514
C            7.32432370193142       -0.08450337507495        0.01504886628481
C            6.89204446071260        1.28605789002308        0.11474024375443
N            7.81513062943834        2.24819805229839        0.19803390305348
C            7.43288898561334        3.49634066626342        0.28995785584028
C            6.08957237677621        3.89630504888699        0.30433748989859
C            5.12225255156730        2.92682414333778        0.21935999278358
C            5.50416946640434        1.57790738944696        0.12204083812583
C            4.52923113469306        0.53951848330052        0.03550347696074
N            3.23082986548054        0.82497387041851        0.04791199779837
C            2.31378482791737       -0.14575145175250       -0.02499499609807
C            0.94849771383378        0.13266663326627       -0.00827470079903
C           -2.01172412677808       -0.48478724325124        1.16494323147426
C           -1.29360078387930       -0.66777791301876        2.35392682879699
C           -1.92017907437597       -0.56889245829515        3.57725948799825
C           -3.27685961132746       -0.28591216055849        3.64637909235051
C           -3.99307677779983       -0.10297531980548        2.47808087681404
C           -3.38191756880149       -0.19819043086527        1.23615781823036
H           -7.03831493398314        4.54600620774303        0.11638592009588
H           -4.59272014594048        4.73299235183321        0.06219208543677
H           -3.17711226833695        2.70675250504860        0.00481319970697
H           -8.13163175433907        2.33163653728221        0.11032426819502
H           -8.75969712558292       -0.20677136963074        0.08380019151921
H           -8.82492387626492       -2.67532642722063        0.04539370165343
H           -6.74796017110657       -3.97986010089365       -0.01869918879873
H           -4.55039124065773       -2.84613357006261       -0.04441414460058
H           -5.12466136975410        0.19020676271304       -2.49849376972058
H           -3.90418907810932       -0.05209098331637       -4.62500486249310
H           -1.47326159123071       -0.53115598152507       -4.59089956897901
H           -0.30148423072229       -0.77842799021293       -2.45681722022384
H           -0.30112402335308       -3.01015063693788       -0.22921954969978
H            2.11951183349211       -3.54876491498357       -0.26669577466288
H            6.08332617837146       -3.23191917972692       -0.23390577616280
H            8.55245949835629       -3.68626771018402       -0.24939709044419
H           10.10934479840484       -1.73437253958272       -0.08872104191989
H            8.23029359031279        4.22542053585513        0.35512714522100
H            5.83274718138659        4.94119355408173        0.38017577111486
H            4.06768538847560        3.16194714118328        0.22474592957771
H            0.62715626845264        1.15995942104171        0.06386067966544
H           -0.23891281845835       -0.88969958227817        2.30744027284230
H           -1.34746575544707       -0.71347748998575        4.48089133962541
H           -3.77054023243461       -0.20822989267530        4.60259403950776
H           -5.04913247960700        0.11878051537646        2.52219627511129

          :  Hamiltonian                  GFN2-xTB          :
         :: gradient norm              0.000138704878 Eh/a0 ::
         :: HOMO-LUMO gap              0.871237574609 eV    ::
         :: SCC energy              -121.687635199847 Eh    ::
         :: -> dispersion             -0.111781167926 Eh    ::
         :: -> Gsolv                  -0.052553612012 Eh    ::
         :: repulsion energy           2.175154945678 Eh    ::

    * Orbital Energies and Occupations

         #    Occupation            Energy/Eh            Energy/eV
      -------------------------------------------------------------
         1        2.0000           -0.6870221             -18.6948
       ...           ...                  ...                  ...
       100        2.0000           -0.4188539             -11.3976
       101        2.0000           -0.4149428             -11.2912
       102        2.0000           -0.4071832             -11.0800
       103        2.0000           -0.4059214             -11.0457
       104        2.0000           -0.4049161             -11.0183
       105        2.0000           -0.4029881             -10.9659
       106        2.0000           -0.3968116             -10.7978
       107        2.0000           -0.3853519             -10.4860
       108        1.9996           -0.3706721             -10.0865
       109        1.9987           -0.3695466             -10.0559
       110        1.6921           -0.3639860              -9.9046
       111        1.3096           -0.3624543              -9.8629
       112        1.0000           -0.3124458              -8.5021 (HOMO)
       113                         -0.2804285              -7.6308 (LUMO)
       114                         -0.2731641              -7.4332
       115                         -0.2574142              -7.0046
       116                         -0.2449197              -6.6646
       117                         -0.2363283              -6.4308
       118                         -0.2359238              -6.4198
       119                         -0.2343994              -6.3783
       120                         -0.2307876              -6.2801
       121                         -0.2303062              -6.2670
       122                         -0.2229002              -6.0654
       123                         -0.2101440              -5.7183
       ...                                ...                  ...
       217                          0.7229067              19.6713
      -------------------------------------------------------------
                  HL-Gap            0.0320173 Eh            0.8712 eV

     #   Z          covCN         q      C6AA      α(0)
     1   6 C        2.921    -0.032    28.786     8.798
     2   6 C        2.923    -0.031    28.777     8.797
     3   6 C        2.914    -0.033    28.818     8.803
     4   6 C        3.057     0.003    27.909     8.664
     5   6 C        3.033     0.002    27.939     8.670
     6   6 C        2.915    -0.033    28.834     8.805
     7   6 C        3.033     0.002    27.940     8.670
     8   6 C        2.915    -0.034    28.836     8.806
     9   6 C        2.921    -0.032    28.786     8.798
    10   6 C        2.923    -0.031    28.777     8.797
    11   6 C        2.914    -0.033    28.815     8.802
    12   6 C        3.056     0.003    27.910     8.664
    13   6 C        3.948     0.013    20.291     6.401
    14   6 C        2.982     0.001    28.009     8.681
    15   6 C        2.924    -0.032    28.800     8.801
    16   6 C        2.917    -0.033    28.830     8.805
    17   6 C        2.918    -0.028    28.700     8.785
    18   6 C        2.922    -0.050    29.235     8.867
    19   6 C        2.927     0.061    26.623     8.462
    20   7 N        2.754    -0.033    21.886     6.948
    21   6 C        2.925     0.053    26.810     8.491
    22   6 C        2.916    -0.046    29.151     8.854
    23   6 C        2.919    -0.059    29.472     8.902
    24   6 C        2.942     0.085    26.115     8.381
    25   7 N        1.848    -0.248    27.326     7.747
    26   6 C        2.940     0.078    26.268     8.406
    27   6 C        2.982    -0.021    28.516     8.760
    28   6 C        2.927    -0.014    28.364     8.734
    29   6 C        2.911    -0.044    29.084     8.843
    30   6 C        2.903     0.060    26.654     8.465
    31   7 N        1.840    -0.222    26.698     7.657
    32   6 C        2.968     0.078    26.249     8.404
    33   6 C        2.968     0.078    26.246     8.403
    34   7 N        1.840    -0.223    26.706     7.659
    35   6 C        2.903     0.060    26.652     8.465
    36   6 C        2.911    -0.044    29.085     8.843
    37   6 C        2.927    -0.014    28.364     8.734
    38   6 C        2.982    -0.021    28.516     8.760
    39   6 C        2.940     0.078    26.253     8.403
    40   7 N        1.848    -0.250    27.373     7.754
    41   6 C        2.943     0.087    26.067     8.374
    42   6 C        2.920    -0.069    29.718     8.940
    43   6 C        2.927     0.061    26.623     8.462
    44   6 C        2.922    -0.050    29.233     8.867
    45   6 C        2.918    -0.028    28.700     8.785
    46   6 C        2.917    -0.033    28.830     8.805
    47   6 C        2.924    -0.032    28.801     8.801
    48   6 C        2.982     0.001    28.008     8.681
    49   1 H        0.926     0.036     2.504     2.474
    50   1 H        0.926     0.035     2.516     2.480
    51   1 H        0.926     0.027     2.627     2.535
    52   1 H        0.926     0.038     2.481     2.463
    53   1 H        0.926     0.037     2.486     2.466
    54   1 H        0.926     0.036     2.505     2.475
    55   1 H        0.926     0.035     2.512     2.478
    56   1 H        0.926     0.028     2.614     2.529
    57   1 H        0.926     0.041     2.439     2.442
    58   1 H        0.926     0.043     2.408     2.426
    59   1 H        0.926     0.043     2.414     2.429
    60   1 H        0.926     0.037     2.491     2.468
    61   1 H        0.926     0.048     2.346     2.395
    62   1 H        0.926     0.052     2.289     2.366
    63   1 H        0.926     0.054     2.276     2.359
    64   1 H        0.926     0.050     2.317     2.380
    65   1 H        0.925     0.045     2.377     2.411
    66   1 H        0.925     0.045     2.377     2.411
    67   1 H        0.926     0.050     2.316     2.380
    68   1 H        0.926     0.054     2.275     2.359
    69   1 H        0.926     0.051     2.313     2.378
    70   1 H        0.926     0.037     2.494     2.470
    71   1 H        0.926     0.043     2.415     2.430
    72   1 H        0.926     0.043     2.407     2.426
    73   1 H        0.926     0.041     2.437     2.441

molecular dipole:
                 x           y           z       tot (Debye)
 q only:       -3.518      -0.231      -0.023
   full:       -3.970      -0.420      -0.043      10.148

 projected vibrational frequencies (cm⁻¹)
eigval :       -0.00    -0.00    -0.00    -0.00     0.00     0.00
eigval :        8.25    13.06    17.80    32.99    39.94    45.84
eigval :       56.73    63.32    65.07    85.45    89.49   103.73
eigval :      108.20   111.98   112.94   138.50   149.46   158.74
eigval :      178.29   186.78   207.84   235.41   239.67   241.82
eigval :      247.00   247.24   277.74   291.98   301.77   327.24
eigval :      345.44   377.86   387.10   388.15   390.98   393.89
eigval :      398.40   406.91   407.22   415.53   423.86   431.48
eigval :      438.22   448.79   453.92   457.88   461.77   501.69
eigval :      505.45   510.49   522.95   525.49   537.29   550.09
eigval :      553.17   563.82   579.13   582.20   586.55   596.31
eigval :      596.79   600.65   621.67   630.64   650.01   662.32
eigval :      676.81   684.06   687.64   689.47   692.82   695.12
eigval :      696.44   717.78   729.39   745.51   752.85   769.43
eigval :      769.62   774.82   778.88   786.14   786.77   794.83
eigval :      796.82   812.80   837.14   845.05   867.34   870.71
eigval :      875.25   877.43   879.82   890.28   896.49   902.10
eigval :      902.86   910.76   911.54   913.95   916.53   917.18
eigval :      918.34   920.19   920.96   921.57   923.71   927.67
eigval :      928.75   945.39   991.92  1002.16  1032.17  1057.64
eigval :     1073.10  1077.72  1082.86  1085.58  1094.04  1100.45
eigval :     1102.67  1124.34  1124.86  1127.09  1130.65  1137.67
eigval :     1140.98  1173.91  1174.06  1176.09  1179.79  1180.91
eigval :     1183.43  1183.94  1199.28  1209.64  1211.55  1223.89
eigval :     1232.35  1238.30  1247.44  1250.48  1256.20  1258.46
eigval :     1263.12  1272.87  1279.12  1281.74  1283.61  1295.98
eigval :     1299.49  1315.46  1320.09  1323.19  1329.56  1330.78
eigval :     1333.79  1348.79  1364.86  1370.14  1383.68  1387.01
eigval :     1413.72  1421.52  1426.30  1427.04  1431.70  1439.62
eigval :     1453.96  1456.17  1457.82  1468.77  1469.65  1480.72
eigval :     1503.29  1504.02  1509.75  1534.24  1552.36  1554.02
eigval :     1566.75  1567.73  1576.43  1584.04  1588.89  1594.98
eigval :     1598.93  1601.25  3051.21  3051.50  3071.21  3071.76
eigval :     3075.03  3075.12  3075.88  3076.86  3082.59  3083.55
eigval :     3084.37  3084.77  3087.59  3089.45  3090.08  3091.45
eigval :     3091.91  3095.24  3095.66  3098.37  3099.41  3099.72
eigval :     3102.52  3105.34  3105.97

   temp. (K)  partition function   enthalpy   heat capacity  entropy
                                   cal/mol     cal/K/mol   cal/K/mol   J/K/mol
 298.15  VIB  0.151E+16            20525.515    135.102    125.898
         ROT  0.774E+08              888.752      2.981     39.080
         INT  0.117E+24            21414.267    138.083    164.978
         TR   0.146E+29             1481.254      4.968     45.096
         TOT                       22895.5211   143.0509   210.0739   878.9493

       T/K    H(0)-H(T)+PV         H(T)/Eh          T*S/Eh         G(T)/Eh
   ------------------------------------------------------------------------
    298.15    0.364863E-01    0.578500E+00    0.998129E-01    0.478687E+00
   ------------------------------------------------------------------------

         :::::::::::::::::::::::::::::::::::::::::::::::::::::
         ::                  THERMODYNAMIC                  ::
         :::::::::::::::::::::::::::::::::::::::::::::::::::::
         :: total free energy        -119.033793017517 Eh   ::
         ::.................................................::
         :: total energy             -119.512480243603 Eh   ::
         :: zero point energy           0.542013786771 Eh   ::
         :: G(RRHO) w/o ZPVE           -0.063326560686 Eh   ::
         :: G(RRHO) contrib.            0.478687226086 Eh   ::
         :::::::::::::::::::::::::::::::::::::::::::::::::::::

           -------------------------------------------------
          | TOTAL ENERGY             -119.512480243603 Eh   |
          | TOTAL ENTHALPY           -118.933980121429 Eh   |
          | TOTAL FREE ENERGY        -119.033793017517 Eh   |
          | GRADIENT NORM               0.000137125353 Eh/α |
          | HOMO-LUMO GAP               0.871233868667 eV   |
           -------------------------------------------------

 * finished run on 2025/09/05 at 00:21:13.261
