   * xtb version 6.7.1 (edcfbbe) compiled by 'albert@albert-system' on 2024-07-22

   ID    Z sym.   atoms
    1    6 C      1-19, 21-24, 26-30, 32, 33, 35-39, 41-48
    2    7 N      20, 25, 31, 34, 40
    3    1 H      49-73

          program call               : xtb data2507/toluene/SAF-2NP/SAF-2NP_toluene_S0_crest.xyz --gfn 2 --gbsa toluene --ohess vtight --parallel 40 --molden --ceasefiles --namespace data2507/toluene/SAF-2NP/SAF-2NP_toluene_S0_finalOpt
      * Solvation model:               GBSA
        Solvent                        toluene
        Solvent mass                       9.2140E+01 g/mol
          :  Hamiltonian                  GFN2-xTB          :
 * total energy  :  -119.5585909 Eh     change       -0.5754799E-08 Eh
 * total energy  :  -119.5586219 Eh     change       -0.3105888E-04 Eh
 * total energy  :  -119.5586288 Eh     change       -0.6895527E-05 Eh
 * total energy  :  -119.5586318 Eh     change       -0.2920205E-05 Eh
 * total energy  :  -119.5586355 Eh     change       -0.3747940E-05 Eh
 * total energy  :  -119.5586382 Eh     change       -0.2722334E-05 Eh
 * total energy  :  -119.5586419 Eh     change       -0.3645009E-05 Eh
 * total energy  :  -119.5586467 Eh     change       -0.4807300E-05 Eh
 * total energy  :  -119.5586515 Eh     change       -0.4824471E-05 Eh
 * total energy  :  -119.5586559 Eh     change       -0.4397032E-05 Eh
 * total energy  :  -119.5586649 Eh     change       -0.9307974E-06 Eh
 * total energy  :  -119.5586655 Eh     change       -0.6136985E-06 Eh
 * total energy  :  -119.5586659 Eh     change       -0.3761050E-06 Eh
 * total energy  :  -119.5586662 Eh     change       -0.3231460E-06 Eh
 * total energy  :  -119.5586667 Eh     change       -0.4359622E-06 Eh
 * total energy  :  -119.5586672 Eh     change       -0.5383015E-06 Eh
 * total energy  :  -119.5586677 Eh     change       -0.4574413E-06 Eh
 * total energy  :  -119.5586680 Eh     change       -0.3812679E-06 Eh
 * total energy  :  -119.5586680 Eh     change       -0.5212186E-08 Eh
   *** GEOMETRY OPTIMIZATION CONVERGED AFTER 22 ITERATIONS ***

 final structure:
================
73
 xtb: 6.7.1 (edcfbbe)
C           -7.00669569121641        2.96783752048138        1.41832168907290
C           -5.66356797551162        3.21060579214035        1.66421938785017
C           -4.68982533906735        2.31782251120876        1.23512688869824
C           -5.08755578417417        1.18506854027586        0.55949068853475
C           -6.44441694601231        0.93535585057368        0.30844735142795
C           -7.41135054326110        1.82931046133563        0.73890271246690
C           -6.55666811969714       -0.32135900944864       -0.41799817033515
C           -7.66407614639712       -1.00219468756783       -0.89700079459718
C           -7.46797258751001       -2.19861484990070       -1.56904719184666
C           -6.19191048602357       -2.70662773427345       -1.76065422908660
C           -5.07823966290167       -2.02848983488973       -1.28205501152917
C           -5.26862724380891       -0.83990370841170       -0.61248293872795
C           -4.22060827674432        0.07249181451391       -0.00018070117476
C           -3.29118104973065        0.59502236485388       -1.06806497906356
C           -3.84178596816130        1.30343641176875       -2.12708153322135
C           -3.06060640773275        1.76860231171730       -3.16750233867074
C           -1.70252762353815        1.50047123419093       -3.15946202042925
C           -1.13765469678334        0.79859023404824       -2.11376279062388
C           -1.91487414965768        0.35271227425339       -1.04105871407206
N           -1.33999790943426       -0.35794796210703        0.01099868349036
C            0.03514176194511       -0.68079833697833       -0.01979789242407
C            0.40725768020852       -2.04321942760363       -0.14472936706972
C            1.71786125442613       -2.41221315918670       -0.19137607619840
C            2.73059686814707       -1.42950911015447       -0.10961799326045
N            4.01905163849702       -1.79181181365725       -0.14875092010185
C            4.93371674529608       -0.84191756290953       -0.06468665616419
C            6.33094125334090       -1.20854581955040       -0.10018282584591
C            6.73347486918497       -2.54355086644115       -0.22036955535512
C            8.07918189946058       -2.83622099226211       -0.24976941832508
C            8.98510571730476       -1.77835552669937       -0.15685995548171
N            8.62763651299923       -0.51991821653031       -0.04091307181765
C            7.32944965124206       -0.21814374969568       -0.01066951687116
C            6.95361497752568        1.18182184010250        0.11821579499631
N            7.92775949596209        2.08835839839487        0.19989608588749
C            7.60765674084602        3.35660477764006        0.31803863503875
C            6.29317001022764        3.82356920087249        0.36271336438892
C            5.27316984120989        2.90138523601151        0.27863100162769
C            5.59244144436344        1.54467315306384        0.15377047253365
C            4.56376204890346        0.53287549791501        0.06128428758354
N            3.29675123897592        0.90205392966287        0.09571248696477
C            2.35974539445779       -0.05563159348001        0.01370995399756
C            0.99619195571687        0.29559071750799        0.06137053207974
C           -2.10181793787784       -0.81314046234664        1.08381034341625
C           -1.48132409111451       -1.41988334007235        2.18020951477453
C           -2.22257023200577       -1.88974946023761        3.24550720257490
C           -3.59989508759028       -1.74912585841089        3.25227767535385
C           -4.21628575061760       -1.11267429221896        2.19145486440994
C           -3.48698411289264       -0.63652373060308        1.11117369457308
H           -7.74724918076893        3.67601970163101        1.76144743320254
H           -5.37089507132139        4.10446286615982        2.19573682677587
H           -3.64370459240804        2.50815122299408        1.42792950312883
H           -8.45864834026161        1.64480616733185        0.55010357232362
H           -8.65992581599821       -0.61029650292049       -0.75164724914675
H           -8.32016780962740       -2.74310740959213       -1.94972498170177
H           -6.06210680528185       -3.64034509175716       -2.28836545744717
H           -4.08472689690435       -2.42529937664983       -1.43414377575603
H           -4.90688409283612        1.48455899508037       -2.13100449792108
H           -3.50760711740924        2.32102427620051       -3.97960723256217
H           -1.07462585680466        1.83456341843725       -3.97220534832827
H           -0.08004180109322        0.58694199733435       -2.13659615540727
H           -0.37558613167461       -2.78419623853985       -0.21155639361463
H            2.01537652803017       -3.44390628391131       -0.29515846618142
H            5.97625130161213       -3.30992166168290       -0.28781212602488
H            8.42935378205498       -3.85214855579750       -0.34174189103386
H           10.05271784485262       -1.95596302230380       -0.17645205560879
H            8.44409972496266        4.04088871943892        0.37993486580966
H            6.08821105403776        4.87795047544126        0.46017127178095
H            4.23320866343629        3.18933102967891        0.30628151513028
H            0.73400955300619        1.33760713687626        0.16225725526513
H           -0.40666734491819       -1.51764116334017        2.20231030805961
H           -1.71733837706276       -2.36107869633979        4.07553052741338
H           -4.18613540319001       -2.11807021646495        4.07973054494786
H           -5.28806198680909       -0.97682982649985        2.19422829155241

          :  Hamiltonian                  GFN2-xTB          :
         :: gradient norm              0.000055008471 Eh/a0 ::
         :: HOMO-LUMO gap              0.995761899208 eV    ::
         :: SCC energy              -121.731945709052 Eh    ::
         :: -> dispersion             -0.112108724507 Eh    ::
         :: -> Gsolv                  -0.050141001354 Eh    ::
         :: repulsion energy           2.173277663506 Eh    ::

    * Orbital Energies and Occupations

         #    Occupation            Energy/Eh            Energy/eV
      -------------------------------------------------------------
         1        2.0000           -0.6929355             -18.8557
       ...           ...                  ...                  ...
        99        2.0000           -0.4165019             -11.3336
       100        2.0000           -0.4157357             -11.3127
       101        2.0000           -0.4132596             -11.2454
       102        2.0000           -0.4116963             -11.2028
       103        2.0000           -0.4095310             -11.1439
       104        2.0000           -0.4004538             -10.8969
       105        2.0000           -0.3980423             -10.8313
       106        2.0000           -0.3966306             -10.7929
       107        2.0000           -0.3810490             -10.3689
       108        2.0000           -0.3772000             -10.2641
       109        2.0000           -0.3762345             -10.2379
       110        2.0000           -0.3690057             -10.0412
       111        2.0000           -0.3562499              -9.6941 (HOMO)
       112                         -0.3196563              -8.6983 (LUMO)
       113                         -0.2885876              -7.8529
       114                         -0.2819619              -7.6726
       115                         -0.2534330              -6.8963
       116                         -0.2460352              -6.6950
       117                         -0.2413271              -6.5668
       118                         -0.2357764              -6.4158
       119                         -0.2279618              -6.2032
       120                         -0.2271127              -6.1801
       121                         -0.2265059              -6.1635
       122                         -0.2231551              -6.0724
       ...                                ...                  ...
       217                          0.7265595              19.7707
      -------------------------------------------------------------
                  HL-Gap            0.0365936 Eh            0.9958 eV

     #   Z          covCN         q      C6AA      α(0)
     1   6 C        2.921    -0.033    28.822     8.804
     2   6 C        2.922    -0.032    28.806     8.802
     3   6 C        2.914    -0.033    28.830     8.805
     4   6 C        3.057     0.002    27.935     8.668
     5   6 C        3.034     0.001    27.979     8.676
     6   6 C        2.914    -0.035    28.871     8.811
     7   6 C        3.033     0.001    27.976     8.676
     8   6 C        2.914    -0.035    28.866     8.810
     9   6 C        2.921    -0.033    28.823     8.804
    10   6 C        2.922    -0.033    28.812     8.802
    11   6 C        2.914    -0.034    28.839     8.806
    12   6 C        3.057     0.002    27.935     8.668
    13   6 C        3.950     0.012    20.307     6.403
    14   6 C        2.983    -0.006    28.156     8.704
    15   6 C        2.927    -0.035    28.864     8.811
    16   6 C        2.917    -0.041    29.031     8.835
    17   6 C        2.920    -0.032    28.804     8.801
    18   6 C        2.923    -0.058    29.431     8.897
    19   6 C        2.921     0.058    26.705     8.474
    20   7 N        2.752    -0.064    22.473     7.041
    21   6 C        2.922     0.073    26.367     8.421
    22   6 C        2.918    -0.034    28.856     8.809
    23   6 C        2.915    -0.041    29.030     8.835
    24   6 C        2.966     0.081    26.189     8.394
    25   7 N        1.848    -0.250    27.374     7.754
    26   6 C        2.959     0.081    26.192     8.394
    27   6 C        2.982    -0.017    28.418     8.744
    28   6 C        2.928    -0.012    28.315     8.726
    29   6 C        2.912    -0.038    28.935     8.821
    30   6 C        2.905     0.064    26.565     8.451
    31   7 N        1.841    -0.219    26.609     7.645
    32   6 C        2.969     0.085    26.103     8.380
    33   6 C        2.969     0.085    26.095     8.379
    34   7 N        1.841    -0.219    26.605     7.644
    35   6 C        2.905     0.064    26.559     8.450
    36   6 C        2.912    -0.038    28.935     8.821
    37   6 C        2.928    -0.012    28.306     8.725
    38   6 C        2.982    -0.017    28.421     8.745
    39   6 C        2.958     0.083    26.141     8.386
    40   7 N        1.848    -0.254    27.463     7.767
    41   6 C        2.965     0.083    26.140     8.386
    42   6 C        2.919    -0.056    29.380     8.889
    43   6 C        2.926     0.058    26.704     8.474
    44   6 C        2.924    -0.057    29.407     8.893
    45   6 C        2.920    -0.032    28.806     8.801
    46   6 C        2.917    -0.041    29.021     8.834
    47   6 C        2.926    -0.035    28.863     8.810
    48   6 C        2.983    -0.005    28.148     8.703
    49   1 H        0.926     0.033     2.544     2.494
    50   1 H        0.926     0.033     2.550     2.497
    51   1 H        0.926     0.026     2.648     2.545
    52   1 H        0.926     0.034     2.534     2.489
    53   1 H        0.926     0.034     2.531     2.488
    54   1 H        0.926     0.033     2.542     2.493
    55   1 H        0.926     0.033     2.549     2.497
    56   1 H        0.926     0.025     2.656     2.549
    57   1 H        0.926     0.032     2.564     2.504
    58   1 H        0.926     0.033     2.542     2.493
    59   1 H        0.926     0.034     2.531     2.488
    60   1 H        0.926     0.027     2.625     2.534
    61   1 H        0.926     0.061     2.187     2.312
    62   1 H        0.926     0.066     2.134     2.284
    63   1 H        0.926     0.065     2.140     2.287
    64   1 H        0.926     0.057     2.229     2.335
    65   1 H        0.925     0.053     2.279     2.361
    66   1 H        0.925     0.054     2.276     2.359
    67   1 H        0.926     0.058     2.228     2.334
    68   1 H        0.926     0.065     2.141     2.288
    69   1 H        0.926     0.063     2.163     2.300
    70   1 H        0.926     0.028     2.621     2.532
    71   1 H        0.926     0.035     2.520     2.482
    72   1 H        0.926     0.034     2.536     2.490
    73   1 H        0.926     0.032     2.562     2.503

molecular dipole:
                 x           y           z       tot (Debye)
 q only:       -0.698      -0.294      -0.003
   full:       -1.232      -0.456      -0.025       3.340

 projected vibrational frequencies (cm⁻¹)
eigval :       -0.00    -0.00    -0.00    -0.00    -0.00     0.00
eigval :        4.54    15.68    19.48    31.69    44.26    45.34
eigval :       61.33    65.92    70.19    87.26    90.69   103.59
eigval :      105.80   108.75   117.21   141.39   150.94   161.58
eigval :      180.57   198.86   208.71   237.30   239.75   246.83
eigval :      254.20   257.91   291.12   296.35   303.34   325.59
eigval :      349.07   376.31   380.94   386.38   387.39   390.58
eigval :      398.40   404.43   407.29   416.46   428.30   434.31
eigval :      441.43   446.14   455.08   464.17   467.54   500.40
eigval :      505.89   513.15   526.01   529.65   540.88   556.29
eigval :      569.80   571.79   587.44   589.56   596.54   599.68
eigval :      600.62   603.07   624.07   637.77   663.18   675.65
eigval :      686.21   686.70   692.72   696.43   700.34   707.18
eigval :      728.37   730.90   750.59   753.51   766.46   772.28
eigval :      775.72   777.90   784.09   784.53   794.54   811.23
eigval :      824.10   841.77   853.67   867.68   868.58   876.49
eigval :      878.46   885.80   892.23   897.80   907.28   909.46
eigval :      911.51   914.94   916.08   916.99   919.82   920.83
eigval :      921.22   923.70   925.48   926.40   927.80   929.43
eigval :      947.66   958.45   986.02  1004.92  1046.35  1069.56
eigval :     1073.22  1077.79  1084.14  1090.53  1101.74  1107.73
eigval :     1110.45  1124.51  1128.02  1132.57  1135.10  1141.18
eigval :     1145.94  1174.29  1175.59  1177.24  1181.79  1182.08
eigval :     1184.78  1188.45  1202.42  1207.18  1216.68  1227.23
eigval :     1235.71  1241.09  1246.47  1257.87  1264.88  1270.83
eigval :     1273.97  1281.75  1282.26  1291.15  1292.09  1308.73
eigval :     1315.69  1321.09  1324.43  1328.37  1331.06  1340.43
eigval :     1355.91  1365.09  1385.80  1400.64  1411.28  1427.35
eigval :     1428.05  1429.16  1432.52  1436.09  1445.86  1459.50
eigval :     1462.12  1469.61  1475.06  1476.99  1489.14  1496.58
eigval :     1521.98  1540.96  1549.31  1559.78  1572.27  1573.35
eigval :     1584.60  1586.01  1587.20  1592.72  1595.15  1599.98
eigval :     1601.60  1603.16  3054.82  3055.06  3068.77  3069.10
eigval :     3072.21  3072.81  3077.18  3077.40  3079.50  3079.71
eigval :     3080.38  3081.02  3087.72  3089.65  3089.76  3090.92
eigval :     3091.54  3092.29  3093.75  3098.68  3100.42  3101.42
eigval :     3101.54  3102.72  3104.41

   temp. (K)  partition function   enthalpy   heat capacity  entropy
                                   cal/mol     cal/K/mol   cal/K/mol   J/K/mol
 298.15  VIB  0.131E+16            20312.717    134.024    124.932
         ROT  0.776E+08              888.752      2.981     39.083
         INT  0.101E+24            21201.470    137.005    164.014
         TR   0.146E+29             1481.254      4.968     45.096
         TOT                       22682.7235   141.9730   209.1101   874.9166

       T/K    H(0)-H(T)+PV         H(T)/Eh          T*S/Eh         G(T)/Eh
   ------------------------------------------------------------------------
    298.15    0.361472E-01    0.581240E+00    0.993550E-01    0.481885E+00
   ------------------------------------------------------------------------

         :::::::::::::::::::::::::::::::::::::::::::::::::::::
         ::                  THERMODYNAMIC                  ::
         :::::::::::::::::::::::::::::::::::::::::::::::::::::
         :: total free energy        -119.076782678208 Eh   ::
         ::.................................................::
         :: total energy             -119.558668043415 Eh   ::
         :: zero point energy           0.545093098515 Eh   ::
         :: G(RRHO) w/o ZPVE           -0.063207733309 Eh   ::
         :: G(RRHO) contrib.            0.481885365207 Eh   ::
         :::::::::::::::::::::::::::::::::::::::::::::::::::::

           -------------------------------------------------
          | TOTAL ENERGY             -119.558668043415 Eh   |
          | TOTAL ENTHALPY           -118.977427724167 Eh   |
          | TOTAL FREE ENERGY        -119.076782678208 Eh   |
          | GRADIENT NORM               0.000055008209 Eh/α |
          | HOMO-LUMO GAP               0.995761517679 eV   |
           -------------------------------------------------

 * finished run on 2025/09/05 at 00:15:20.661
