   * xtb version 6.7.1 (edcfbbe) compiled by 'albert@albert-system' on 2024-07-22

   ID    Z sym.   atoms
    1    6 C      1-19, 21-24, 26-30, 32, 33, 35-39, 41-48
    2    7 N      20, 25, 31, 34, 40
    3    1 H      49-73

          program call               : xtb data2507/toluene/SAF-2NP/SAF-2NP.xyz --gfn 2 --gbsa toluene --ohess vtight --parallel 40 --molden --ceasefiles --namespace data2507/toluene/SAF-2NP/SAF-2NP_toluene_S0_preOpt
      * Solvation model:               GBSA
        Solvent                        toluene
        Solvent mass                       9.2140E+01 g/mol
          :  Hamiltonian                  GFN2-xTB          :
 * total energy  :  -119.5278012 Eh     change       -0.9532926E-09 Eh
 * total energy  :  -119.5504357 Eh     change       -0.2263459E-01 Eh
 * total energy  :  -119.5568900 Eh     change       -0.6454300E-02 Eh
 * total energy  :  -119.5576820 Eh     change       -0.7919046E-03 Eh
 * total energy  :  -119.5579977 Eh     change       -0.3157554E-03 Eh
 * total energy  :  -119.5580770 Eh     change       -0.7930133E-04 Eh
 * total energy  :  -119.5581035 Eh     change       -0.2647374E-04 Eh
 * total energy  :  -119.5581181 Eh     change       -0.1461821E-04 Eh
 * total energy  :  -119.5581226 Eh     change       -0.4492171E-05 Eh
 * total energy  :  -119.5581256 Eh     change       -0.2969649E-05 Eh
 * total energy  :  -119.5581505 Eh     change       -0.6544245E-06 Eh
 * total energy  :  -119.5581512 Eh     change       -0.6731162E-06 Eh
 * total energy  :  -119.5581517 Eh     change       -0.4997298E-06 Eh
 * total energy  :  -119.5581520 Eh     change       -0.3592456E-06 Eh
 * total energy  :  -119.5581523 Eh     change       -0.2892009E-06 Eh
 * total energy  :  -119.5581525 Eh     change       -0.2157160E-06 Eh
 * total energy  :  -119.5581527 Eh     change       -0.1548320E-06 Eh
 * total energy  :  -119.5581528 Eh     change       -0.1193720E-06 Eh
 * total energy  :  -119.5581529 Eh     change       -0.8578701E-07 Eh
   *** GEOMETRY OPTIMIZATION CONVERGED AFTER 37 ITERATIONS ***

 final structure:
================
73
 xtb: 6.7.1 (edcfbbe)
C           -6.09214220590018        3.57933162068654        0.00058643582065
C           -4.71124618123678        3.70720895365630        0.00064152341381
C           -3.89380951616233        2.58434860270760        0.00045986689511
C           -4.48463124183683        1.33991746094639        0.00021960090124
C           -5.88032587969978        1.20560471167430        0.00013505354144
C           -6.69087342362395        2.32915561468070        0.00033077307171
C           -6.20848097201195       -0.21281802776833       -0.00018486527519
C           -7.43000864765454       -0.86636527511955       -0.00041716471504
C           -7.44088487579605       -2.25257779668665       -0.00076565164250
C           -6.25620056588220       -2.97351693356594       -0.00086738804947
C           -5.02873586754272       -2.32344184044131       -0.00062526473305
C           -5.01305194778441       -0.94599829743473       -0.00028618294326
C           -3.81088429398427       -0.02062843872560       -0.00000294538621
C           -2.99367388725003       -0.20434126016054       -1.25685110427978
C           -3.62988990809917       -0.11350417613947       -2.48609529946951
C           -2.93261829313512       -0.26226745276738       -3.67101909746884
C           -1.57046370117585       -0.50531781918168       -3.62790762456328
C           -0.91979817429680       -0.59921498733683       -2.41396481921770
C           -1.61923642367742       -0.45182957297663       -1.21336887102839
N           -0.95284366732974       -0.55063137410658        0.00014648401552
C            0.44144552127873       -0.82890913267591        0.00022957427611
C            0.86836868452003       -2.17842974439117        0.00058299603432
C            2.19568369229892       -2.49157380447906        0.00063693774310
C            3.16126680282977       -1.46042816076639        0.00036581822787
N            4.46646827247966       -1.76717814803007        0.00039390825875
C            5.33747575374098       -0.77611270648557        0.00014974363596
C            6.75039438916194       -1.08240879857245        0.00014926672686
C            7.21255656718242       -2.40323032071835        0.00037880582899
C            8.57035273790783       -2.63664926226586        0.00033463679134
C            9.42751133383510       -1.53515695431236        0.00007230571690
N            9.01338651030509       -0.28872723150819       -0.00013493362617
C            7.70315884708187       -0.04426693317863       -0.00010128657947
C            7.26563541556880        1.34399703900655       -0.00030863808396
N            8.19924971944807        2.29520409327500       -0.00049430707974
C            7.82435632239594        3.55397346178867       -0.00069177175641
C            6.49070773355036        3.96551470286172       -0.00069193960950
C            5.51158493280799        2.99620318187977       -0.00049476734595
C            5.88997301604781        1.64901649732792       -0.00030484721086
C            4.90720253957335        0.58849110774917       -0.00010735746632
N            3.62573455583582        0.90188862914421       -0.00017279373254
C            2.73194379587207       -0.09873512013167        0.00004210377131
C            1.35215800129950        0.19417960656822       -0.00003445781995
C           -1.61944937689638       -0.45228253069451        1.21358141542641
C           -0.92018597422629       -0.59998214265449        2.41424170407400
C           -1.57104804482654       -0.50651469843455        3.62811151934176
C           -2.93322425811164       -0.26356344475687        3.67108368398388
C           -3.63030922984519       -0.11441512078270        2.48609859971571
C           -2.99389738505278       -0.20482594404786        1.25692400083790
H           -6.70879879591419        4.46671945827521        0.00075732813424
H           -4.26587593412485        4.69150524213247        0.00083402589890
H           -2.81793092788977        2.68584000411204        0.00049099638581
H           -7.76684464764002        2.23514408213268        0.00029401793744
H           -8.35540490722401       -0.30938279177881       -0.00033607506508
H           -8.38455549410410       -2.77912706184909       -0.00095424842021
H           -6.28811532058533       -4.05345303490288       -0.00115267506086
H           -4.10667896003616       -2.88702643272040       -0.00071820285683
H           -4.69283570544066        0.07923989108296       -2.50787695867307
H           -3.44712861881381       -0.18814174288157       -4.61680152604204
H           -1.00759889330160       -0.62283728496725       -4.54219260485704
H            0.14288847888348       -0.78889349180307       -2.39298954783454
H            0.11802555507278       -2.95480749852400        0.00078745824170
H            2.54005985632578       -3.51389843576895        0.00087179940198
H            6.49144821881963       -3.20633020125363        0.00054240567978
H            8.96582713694202       -3.63999952102518        0.00048235015933
H           10.50208698348512       -1.66532363834053        0.00001117434536
H            8.63054996259079        4.27626938758741       -0.00081296437952
H            6.24005527380673        5.01449386414808       -0.00084936973982
H            4.46011141436603        3.24025233883385       -0.00050941909911
H            1.03895216452890        1.22683520455392       -0.00029172394828
H            0.14252592924826       -0.78953130216246        2.39337388195892
H           -1.00831787868098       -0.62427198307494        4.54244861321975
H           -3.44789050242125       -0.18977246801682        4.61680730226706
H           -4.69325958987470        0.07830858355375        2.50777858337855

          :  Hamiltonian                  GFN2-xTB          :
         :: gradient norm              0.000034193308 Eh/a0 ::
         :: HOMO-LUMO gap              0.832337994881 eV    ::
         :: SCC energy              -121.732175854643 Eh    ::
         :: -> dispersion             -0.111935563778 Eh    ::
         :: -> Gsolv                  -0.050078567827 Eh    ::
         :: repulsion energy           2.174022946646 Eh    ::

    * Orbital Energies and Occupations

         #    Occupation            Energy/Eh            Energy/eV
      -------------------------------------------------------------
         1        2.0000           -0.6960836             -18.9414
       ...           ...                  ...                  ...
        99        2.0000           -0.4182019             -11.3799
       100        2.0000           -0.4142341             -11.2719
       101        2.0000           -0.4123658             -11.2210
       102        2.0000           -0.4121788             -11.2160
       103        2.0000           -0.4097538             -11.1500
       104        2.0000           -0.3994472             -10.8695
       105        2.0000           -0.3968553             -10.7990
       106        2.0000           -0.3956098             -10.7651
       107        2.0000           -0.3802348             -10.3467
       108        2.0000           -0.3786386             -10.3033
       109        2.0000           -0.3776115             -10.2753
       110        2.0000           -0.3716607             -10.1134
       111        2.0000           -0.3533910              -9.6163 (HOMO)
       112        0.0000           -0.3228032              -8.7839 (LUMO)
       113                         -0.2908042              -7.9132
       114                         -0.2835295              -7.7152
       115                         -0.2526493              -6.8749
       116                         -0.2482834              -6.7561
       117                         -0.2429943              -6.6122
       118                         -0.2339793              -6.3669
       119                         -0.2263128              -6.1583
       120                         -0.2263065              -6.1581
       121                         -0.2258189              -6.1448
       122                         -0.2247922              -6.1169
       ...                                ...                  ...
       217                          0.7273656              19.7926
      -------------------------------------------------------------
                  HL-Gap            0.0305878 Eh            0.8323 eV

     #   Z          covCN         q      C6AA      α(0)
     1   6 C        2.921    -0.033    28.829     8.805
     2   6 C        2.922    -0.033    28.814     8.803
     3   6 C        2.914    -0.034    28.840     8.806
     4   6 C        3.057     0.001    27.938     8.668
     5   6 C        3.034     0.001    27.984     8.677
     6   6 C        2.914    -0.035    28.872     8.811
     7   6 C        3.034     0.001    27.983     8.677
     8   6 C        2.914    -0.035    28.875     8.812
     9   6 C        2.921    -0.033    28.829     8.805
    10   6 C        2.922    -0.033    28.814     8.803
    11   6 C        2.914    -0.033    28.833     8.805
    12   6 C        3.057     0.002    27.935     8.668
    13   6 C        3.949     0.012    20.308     6.403
    14   6 C        2.982    -0.007    28.195     8.710
    15   6 C        2.926    -0.035    28.873     8.812
    16   6 C        2.917    -0.043    29.073     8.842
    17   6 C        2.919    -0.033    28.818     8.803
    18   6 C        2.924    -0.058    29.452     8.900
    19   6 C        2.925     0.059    26.681     8.471
    20   7 N        2.753    -0.072    22.641     7.067
    21   6 C        2.923     0.077    26.290     8.408
    22   6 C        2.918    -0.034    28.840     8.806
    23   6 C        2.915    -0.040    28.984     8.828
    24   6 C        2.966     0.081    26.188     8.394
    25   7 N        1.848    -0.246    27.272     7.740
    26   6 C        2.958     0.083    26.153     8.388
    27   6 C        2.982    -0.016    28.412     8.744
    28   6 C        2.928    -0.011    28.299     8.724
    29   6 C        2.912    -0.037    28.919     8.818
    30   6 C        2.905     0.065    26.552     8.449
    31   7 N        1.841    -0.217    26.560     7.638
    32   6 C        2.970     0.085    26.093     8.379
    33   6 C        2.969     0.086    26.091     8.378
    34   7 N        1.841    -0.217    26.558     7.637
    35   6 C        2.905     0.065    26.551     8.449
    36   6 C        2.912    -0.037    28.918     8.818
    37   6 C        2.928    -0.011    28.295     8.723
    38   6 C        2.982    -0.016    28.413     8.744
    39   6 C        2.958     0.084    26.131     8.385
    40   7 N        1.848    -0.248    27.322     7.747
    41   6 C        2.966     0.084    26.129     8.384
    42   6 C        2.919    -0.051    29.258     8.870
    43   6 C        2.925     0.059    26.681     8.471
    44   6 C        2.924    -0.058    29.452     8.900
    45   6 C        2.919    -0.033    28.818     8.803
    46   6 C        2.917    -0.043    29.073     8.842
    47   6 C        2.926    -0.035    28.873     8.812
    48   6 C        2.982    -0.007    28.195     8.710
    49   1 H        0.926     0.033     2.547     2.496
    50   1 H        0.926     0.032     2.554     2.499
    51   1 H        0.926     0.025     2.660     2.550
    52   1 H        0.926     0.033     2.538     2.491
    53   1 H        0.926     0.033     2.542     2.493
    54   1 H        0.926     0.033     2.549     2.497
    55   1 H        0.926     0.032     2.554     2.499
    56   1 H        0.926     0.025     2.656     2.548
    57   1 H        0.926     0.030     2.590     2.517
    58   1 H        0.926     0.031     2.568     2.506
    59   1 H        0.926     0.032     2.553     2.499
    60   1 H        0.926     0.022     2.698     2.569
    61   1 H        0.926     0.063     2.168     2.303
    62   1 H        0.926     0.068     2.104     2.268
    63   1 H        0.926     0.066     2.125     2.280
    64   1 H        0.926     0.059     2.211     2.325
    65   1 H        0.925     0.055     2.261     2.352
    66   1 H        0.925     0.055     2.260     2.351
    67   1 H        0.926     0.059     2.213     2.326
    68   1 H        0.926     0.066     2.130     2.282
    69   1 H        0.926     0.065     2.144     2.290
    70   1 H        0.926     0.022     2.698     2.569
    71   1 H        0.926     0.032     2.553     2.499
    72   1 H        0.926     0.031     2.568     2.506
    73   1 H        0.926     0.030     2.590     2.517

molecular dipole:
                 x           y           z       tot (Debye)
 q only:       -0.102      -0.306       0.000
   full:       -0.638      -0.493       0.000       2.048

 projected vibrational frequencies (cm⁻¹)
eigval :       -0.00    -0.00     0.00     0.00     0.00     0.00
eigval :      -10.73     9.28    15.72    30.18    40.67    44.39
eigval :       45.95    59.07    67.05    82.29    85.69   100.17
eigval :      106.16   112.47   114.50   140.09   144.75   159.36
eigval :      178.00   192.34   207.48   238.06   243.10   243.42
eigval :      250.87   253.41   284.81   294.26   299.20   325.48
eigval :      345.85   372.10   377.59   386.51   387.50   390.84
eigval :      398.06   404.28   407.63   417.33   423.63   434.81
eigval :      437.58   444.67   451.94   459.55   464.22   497.97
eigval :      504.38   514.51   522.82   525.56   538.73   559.98
eigval :      563.77   571.09   587.63   590.09   595.62   599.32
eigval :      600.89   603.42   624.25   638.60   664.43   673.30
eigval :      684.54   685.35   693.37   696.00   700.10   705.56
eigval :      728.79   730.30   749.39   753.83   768.04   770.36
eigval :      774.15   775.75   784.75   785.32   794.37   811.50
eigval :      821.12   841.88   855.13   864.79   865.27   876.12
eigval :      878.03   878.54   891.45   898.68   908.66   909.69
eigval :      909.95   913.51   915.67   917.23   919.12   919.30
eigval :      919.74   922.19   925.73   927.71   928.00   929.82
eigval :      948.88   958.01   985.83  1005.19  1046.34  1068.81
eigval :     1073.40  1077.98  1084.56  1091.40  1102.90  1107.18
eigval :     1108.78  1124.78  1127.76  1133.54  1134.42  1141.58
eigval :     1144.28  1175.64  1176.10  1178.16  1182.97  1183.08
eigval :     1185.10  1185.50  1203.23  1206.35  1218.20  1226.58
eigval :     1234.55  1241.05  1244.97  1258.42  1267.04  1272.70
eigval :     1273.40  1281.24  1282.66  1290.58  1296.30  1308.36
eigval :     1315.75  1324.75  1324.82  1332.69  1335.55  1338.62
eigval :     1357.25  1365.28  1385.62  1400.81  1409.28  1427.80
eigval :     1428.43  1430.11  1435.19  1436.72  1445.75  1459.73
eigval :     1462.18  1469.82  1476.14  1480.35  1492.77  1503.13
eigval :     1523.41  1542.15  1549.66  1559.96  1573.09  1573.77
eigval :     1584.72  1587.12  1587.94  1594.78  1596.22  1600.94
eigval :     1602.87  1603.58  3055.41  3056.23  3068.35  3068.80
eigval :     3071.81  3072.50  3075.69  3075.72  3078.88  3079.63
eigval :     3080.36  3080.67  3087.10  3088.92  3089.12  3089.21
eigval :     3092.22  3092.48  3092.68  3096.68  3097.76  3102.02
eigval :     3103.01  3103.34  3104.19

   temp. (K)  partition function   enthalpy   heat capacity  entropy
                                   cal/mol     cal/K/mol   cal/K/mol   J/K/mol
 298.15  VIB  0.249E+16            20438.573    133.648    125.754
         ROT  0.773E+08              888.752      2.981     39.077
         INT  0.193E+24            21327.326    136.629    164.831
         TR   0.146E+29             1481.254      4.968     45.096
         TOT                       22808.5797   141.5972   209.9267   878.3332

       T/K    H(0)-H(T)+PV         H(T)/Eh          T*S/Eh         G(T)/Eh
   ------------------------------------------------------------------------
    298.15    0.363478E-01    0.581166E+00    0.997429E-01    0.481423E+00
   ------------------------------------------------------------------------

         :::::::::::::::::::::::::::::::::::::::::::::::::::::
         ::                  THERMODYNAMIC                  ::
         :::::::::::::::::::::::::::::::::::::::::::::::::::::
         :: total free energy        -119.076729980318 Eh   ::
         ::.................................................::
         :: total energy             -119.558152897191 Eh   ::
         :: zero point energy           0.544818066926 Eh   ::
         :: G(RRHO) w/o ZPVE           -0.063395150053 Eh   ::
         :: G(RRHO) contrib.            0.481422916873 Eh   ::
         :::::::::::::::::::::::::::::::::::::::::::::::::::::

           -------------------------------------------------
          | TOTAL ENERGY             -119.558152897191 Eh   |
          | TOTAL ENTHALPY           -118.976987044869 Eh   |
          | TOTAL FREE ENERGY        -119.076729980318 Eh   |
          | GRADIENT NORM               0.000034183590 Eh/α |
          | HOMO-LUMO GAP               0.832336813551 eV   |
           -------------------------------------------------

 * finished run on 2025/09/05 at 00:11:58.035
