   * xtb version 6.7.1 (edcfbbe) compiled by 'albert@albert-system' on 2024-07-22

   ID    Z sym.   atoms
    1    6 C      1-19, 21-24, 26-30, 32, 33, 35-39, 41-48
    2    7 N      20, 25, 31, 34, 40
    3    1 H      49-73

          program call               : xtb data2507/toluene/SAF-2NP/SAF-2NP_toluene_S0_finalOpt.xtbopt.xyz --gfn 2 --uhf 2 --gbsa toluene --ohess vtight --parallel 40 --molden --ceasefiles --namespace data2507/toluene/SAF-2NP/SAF-2NP_toluene_T1_preOpt
      * Solvation model:               GBSA
        Solvent                        toluene
        Solvent mass                       9.2140E+01 g/mol
          :  Hamiltonian                  GFN2-xTB          :
 * total energy  :  -119.5082681 Eh     change       -0.4857344E-07 Eh
 * total energy  :  -119.5108674 Eh     change       -0.2599242E-02 Eh
 * total energy  :  -119.5116838 Eh     change       -0.8164023E-03 Eh
 * total energy  :  -119.5117841 Eh     change       -0.1002837E-03 Eh
 * total energy  :  -119.5118496 Eh     change       -0.6549970E-04 Eh
 * total energy  :  -119.5118660 Eh     change       -0.1643752E-04 Eh
 * total energy  :  -119.5118894 Eh     change       -0.2336476E-04 Eh
 * total energy  :  -119.5119118 Eh     change       -0.2245297E-04 Eh
 * total energy  :  -119.5119341 Eh     change       -0.2228314E-04 Eh
 * total energy  :  -119.5119524 Eh     change       -0.1827779E-04 Eh
 * total energy  :  -119.5124741 Eh     change       -0.2531352E-06 Eh
 * total energy  :  -119.5124744 Eh     change       -0.2406616E-06 Eh
 * total energy  :  -119.5124746 Eh     change       -0.2411430E-06 Eh
 * total energy  :  -119.5124749 Eh     change       -0.2875496E-06 Eh
 * total energy  :  -119.5124753 Eh     change       -0.3968840E-06 Eh
 * total energy  :  -119.5124759 Eh     change       -0.6008545E-06 Eh
 * total energy  :  -119.5124767 Eh     change       -0.8185239E-06 Eh
 * total energy  :  -119.5124775 Eh     change       -0.8314507E-06 Eh
 * total energy  :  -119.5124775 Eh     change       -0.4007461E-09 Eh
   *** GEOMETRY OPTIMIZATION CONVERGED AFTER 94 ITERATIONS ***

 final structure:
================
73
 xtb: 6.7.1 (edcfbbe)
C           -6.69328903017614        3.22382923918733        1.33925932076181
C           -5.32192754029500        3.39986163340813        1.44702291406855
C           -4.44263336037946        2.41253004885676        1.02027420510875
C           -4.96459536140757        1.25529167811384        0.48631004901831
C           -6.34988173225050        1.07196018748519        0.37413763101783
C           -7.22156714655339        2.06002040574483        0.80244338771352
C           -6.59802870541017       -0.23218608031773       -0.22308099264771
C           -7.78088769758255       -0.87940919675042       -0.54155086264756
C           -7.71426290690241       -2.14021976388572       -1.11371723402428
C           -6.49163940959917       -2.74439270591030       -1.36515127113681
C           -5.30203360408469       -2.10083794768347       -1.04789406251817
C           -5.36520479428429       -0.84850259158178       -0.47833903168590
C           -4.21324829475342        0.04516793628718       -0.04455049783593
C           -3.36239041730887        0.42213806587725       -1.22877235246421
C           -3.95653913200927        1.06224538940979       -2.30673570285836
C           -3.22329942303175        1.41739620809790       -3.42374898497981
C           -1.86713069315652        1.12713553568805       -3.46997942590920
C           -1.25701621393136        0.49265244292994       -2.40969976105811
C           -1.99140005677159        0.13341736437806       -1.27195284489959
N           -1.36766852867626       -0.50021738133299       -0.21526985428373
C            0.02429488402057       -0.79651040933224       -0.31026963573808
C            0.43137360712182       -2.04305743842304       -0.77414274021303
C            1.77808049212275       -2.34276979593763       -0.86363312873508
C            2.74714548159826       -1.40753214281809       -0.49506702803849
N            4.05330076218523       -1.67811737157706       -0.57062933539049
C            4.96164376977934       -0.77447557747714       -0.21426015044391
C            6.35471677247020       -1.07116001847070       -0.29184471948827
C            6.80762166086971       -2.32258750548577       -0.74336003913065
C            8.15589558046852       -2.57018419048599       -0.80163433260204
C            9.03517567639202       -1.55359192153894       -0.40341099440828
N            8.63977273324287       -0.38049186582491        0.02055992108504
C            7.33220516065356       -0.11521568780142        0.08562080101556
C            6.90817093217342        1.17982772736074        0.55276836266296
N            7.83692020444346        2.07356070809694        0.90412986662282
C            7.46226038565210        3.25244020536018        1.33110579915486
C            6.12153266325550        3.64565527471410        1.44372364400789
C            5.14861420817858        2.74532730946463        1.08941930185951
C            5.52225966045059        1.47135566921471        0.62862664543223
C            4.54123902855523        0.50594834207464        0.25176906551847
N            3.24459118290580        0.78875247872064        0.33221349153134
C            2.32216103160945       -0.11370571584019       -0.01914785600744
C            0.95853814872101        0.16130751188917        0.06341751495065
C           -2.04966290850558       -0.86015255700081        0.93050791029534
C           -1.37029770692735       -1.47565740645808        1.99001401025676
C           -2.03932380703321       -1.83931651135685        3.13852613591698
C           -3.40057992334581       -1.59886823184438        3.25983320760992
C           -4.07807246237577       -0.98886662485563        2.22048748882692
C           -3.42373984991184       -0.61407886086319        1.05599009559212
H           -7.35807014572636        4.00528178028697        1.67797787357626
H           -4.93181473589575        4.31492658108817        1.86799554298591
H           -3.37465752828292        2.55221356128056        1.10581708686704
H           -8.29012468010877        1.92792444995442        0.72045731896158
H           -8.73538371919597       -0.41301816439177       -0.34816660989915
H           -8.62678183977615       -2.65971571633880       -1.36814867505147
H           -6.46285095424397       -3.72704615557502       -1.81277271587680
H           -4.35095149294136       -2.57406454334899       -1.24493910710921
H           -5.01324582557204        1.28098305682730       -2.26305976895314
H           -3.70402177779751        1.91461527839324       -4.25188121311720
H           -1.28215474026287        1.39580900802886       -4.33664688737211
H           -0.20248621856002        0.26889869330579       -2.45222200591835
H           -0.30907427964713       -2.77380498118586       -1.06111868555608
H            2.10841089856397       -3.30541522588957       -1.22057324385604
H            6.07250757168606       -3.05935835444319       -1.03377688467782
H            8.53882293278848       -3.51892899833160       -1.14318195150053
H           10.10679433976315       -1.70364658596944       -0.43132905975366
H            8.26382761977119        3.92848372539484        1.59969288877275
H            5.87102269235570        4.63203206347640        1.80115216633900
H            4.09578044738422        2.97989099323213        1.15136880721267
H            0.64310006817580        1.12851883332436        0.42227176531958
H           -0.31126258663044       -1.66260935859657        1.90322841883586
H           -1.49613668373032       -2.31238882340763        3.94265034112701
H           -3.92763293390764       -1.88311458158283        4.15730478057493
H           -5.13729588302440       -0.79633849766410        2.30653918363543

          :  Hamiltonian                  GFN2-xTB          :
         :: gradient norm              0.000047514888 Eh/a0 ::
         :: HOMO-LUMO gap              0.872020868825 eV    ::
         :: SCC energy              -121.687497720387 Eh    ::
         :: -> dispersion             -0.111778619077 Eh    ::
         :: -> Gsolv                  -0.052550233957 Eh    ::
         :: repulsion energy           2.175020180940 Eh    ::

    * Orbital Energies and Occupations

         #    Occupation            Energy/Eh            Energy/eV
      -------------------------------------------------------------
         1        2.0000           -0.6870386             -18.6953
       ...           ...                  ...                  ...
       100        2.0000           -0.4188659             -11.3979
       101        2.0000           -0.4149047             -11.2901
       102        2.0000           -0.4072002             -11.0805
       103        2.0000           -0.4059281             -11.0459
       104        2.0000           -0.4049258             -11.0186
       105        2.0000           -0.4030088             -10.9664
       106        2.0000           -0.3967704             -10.7967
       107        2.0000           -0.3853405             -10.4856
       108        1.9996           -0.3706724             -10.0865
       109        1.9987           -0.3695440             -10.0558
       110        1.6926           -0.3639919              -9.9047
       111        1.3090           -0.3624555              -9.8629
       112        1.0000           -0.3124609              -8.5025 (HOMO)
       113                         -0.2804148              -7.6305 (LUMO)
       114                         -0.2731587              -7.4330
       115                         -0.2574169              -7.0047
       116                         -0.2449210              -6.6646
       117                         -0.2363445              -6.4313
       118                         -0.2359429              -6.4203
       119                         -0.2343894              -6.3781
       120                         -0.2307803              -6.2799
       121                         -0.2303132              -6.2671
       122                         -0.2229109              -6.0657
       123                         -0.2101633              -5.7188
       ...                                ...                  ...
       217                          0.7228279              19.6691
      -------------------------------------------------------------
                  HL-Gap            0.0320461 Eh            0.8720 eV

     #   Z          covCN         q      C6AA      α(0)
     1   6 C        2.921    -0.032    28.786     8.798
     2   6 C        2.923    -0.031    28.777     8.797
     3   6 C        2.914    -0.033    28.814     8.802
     4   6 C        3.056     0.003    27.912     8.664
     5   6 C        3.033     0.002    27.941     8.670
     6   6 C        2.915    -0.034    28.837     8.806
     7   6 C        3.033     0.002    27.938     8.670
     8   6 C        2.915    -0.034    28.834     8.805
     9   6 C        2.921    -0.032    28.786     8.798
    10   6 C        2.923    -0.031    28.778     8.797
    11   6 C        2.914    -0.033    28.819     8.803
    12   6 C        3.057     0.003    27.908     8.664
    13   6 C        3.948     0.013    20.291     6.401
    14   6 C        2.982     0.001    28.009     8.681
    15   6 C        2.924    -0.032    28.800     8.801
    16   6 C        2.917    -0.033    28.830     8.805
    17   6 C        2.918    -0.028    28.699     8.785
    18   6 C        2.922    -0.050    29.233     8.867
    19   6 C        2.927     0.061    26.623     8.462
    20   7 N        2.754    -0.033    21.885     6.948
    21   6 C        2.925     0.053    26.810     8.491
    22   6 C        2.916    -0.046    29.150     8.854
    23   6 C        2.919    -0.059    29.471     8.902
    24   6 C        2.942     0.085    26.115     8.381
    25   7 N        1.848    -0.248    27.327     7.748
    26   6 C        2.940     0.078    26.268     8.406
    27   6 C        2.982    -0.021    28.516     8.760
    28   6 C        2.927    -0.014    28.364     8.734
    29   6 C        2.911    -0.044    29.084     8.843
    30   6 C        2.903     0.060    26.654     8.465
    31   7 N        1.840    -0.222    26.697     7.657
    32   6 C        2.968     0.078    26.249     8.404
    33   6 C        2.968     0.078    26.246     8.403
    34   7 N        1.840    -0.223    26.706     7.659
    35   6 C        2.903     0.060    26.652     8.465
    36   6 C        2.911    -0.044    29.085     8.843
    37   6 C        2.927    -0.014    28.364     8.734
    38   6 C        2.982    -0.021    28.516     8.760
    39   6 C        2.940     0.078    26.254     8.403
    40   7 N        1.848    -0.250    27.374     7.754
    41   6 C        2.943     0.087    26.068     8.374
    42   6 C        2.920    -0.069    29.719     8.940
    43   6 C        2.927     0.061    26.624     8.462
    44   6 C        2.922    -0.050    29.234     8.867
    45   6 C        2.918    -0.028    28.700     8.785
    46   6 C        2.917    -0.033    28.830     8.805
    47   6 C        2.924    -0.032    28.801     8.801
    48   6 C        2.982     0.001    28.007     8.681
    49   1 H        0.926     0.036     2.505     2.475
    50   1 H        0.926     0.035     2.515     2.480
    51   1 H        0.926     0.027     2.622     2.532
    52   1 H        0.926     0.037     2.484     2.465
    53   1 H        0.926     0.037     2.483     2.464
    54   1 H        0.926     0.036     2.504     2.474
    55   1 H        0.926     0.035     2.512     2.478
    56   1 H        0.926     0.028     2.619     2.531
    57   1 H        0.926     0.041     2.438     2.442
    58   1 H        0.926     0.043     2.408     2.426
    59   1 H        0.926     0.043     2.415     2.430
    60   1 H        0.926     0.037     2.493     2.469
    61   1 H        0.926     0.048     2.347     2.396
    62   1 H        0.926     0.052     2.289     2.366
    63   1 H        0.926     0.054     2.276     2.359
    64   1 H        0.926     0.050     2.317     2.380
    65   1 H        0.925     0.045     2.377     2.411
    66   1 H        0.925     0.045     2.377     2.411
    67   1 H        0.926     0.050     2.317     2.380
    68   1 H        0.926     0.054     2.275     2.359
    69   1 H        0.926     0.051     2.312     2.378
    70   1 H        0.926     0.037     2.492     2.469
    71   1 H        0.926     0.043     2.414     2.430
    72   1 H        0.926     0.043     2.407     2.426
    73   1 H        0.926     0.041     2.438     2.442

molecular dipole:
                 x           y           z       tot (Debye)
 q only:       -3.521      -0.192      -0.125
   full:       -3.976      -0.363      -0.201      10.160

 projected vibrational frequencies (cm⁻¹)
eigval :       -0.00     0.00     0.00     0.00     0.00     0.00
eigval :        6.05    10.87    17.76    31.24    44.46    46.06
eigval :       58.56    64.31    68.01    83.76    85.54   104.86
eigval :      108.28   110.63   112.68   139.73   151.86   158.52
eigval :      178.27   185.59   208.75   235.16   239.44   241.51
eigval :      247.15   249.82   277.39   292.34   301.59   326.95
eigval :      346.23   377.84   387.50   387.74   391.07   393.17
eigval :      398.69   406.97   407.21   415.72   423.98   429.04
eigval :      436.71   449.71   454.59   458.73   463.35   501.51
eigval :      505.47   510.25   521.93   524.73   538.92   549.90
eigval :      553.73   563.62   579.12   581.98   586.63   596.09
eigval :      596.82   600.53   621.51   630.75   649.77   662.32
eigval :      677.21   684.02   687.96   689.46   692.76   694.84
eigval :      695.35   717.88   729.78   743.76   753.11   766.36
eigval :      769.74   776.47   778.75   782.49   784.01   790.43
eigval :      795.46   809.86   836.80   844.95   865.98   869.41
eigval :      874.60   876.20   878.37   890.41   896.67   899.96
eigval :      901.61   906.84   908.87   913.30   914.25   915.66
eigval :      917.90   918.41   921.54   923.70   926.27   926.41
eigval :      927.08   945.45   990.95  1002.11  1032.24  1057.15
eigval :     1072.78  1077.63  1083.76  1085.48  1094.70  1100.92
eigval :     1102.52  1125.03  1125.06  1126.39  1130.68  1137.47
eigval :     1141.15  1173.01  1173.75  1175.69  1180.50  1181.22
eigval :     1184.13  1185.31  1199.23  1210.27  1211.06  1222.53
eigval :     1232.82  1237.98  1247.91  1250.37  1255.93  1258.42
eigval :     1262.70  1272.66  1279.02  1281.65  1282.71  1296.12
eigval :     1299.55  1315.82  1320.22  1323.18  1329.73  1331.27
eigval :     1333.94  1348.90  1364.91  1369.92  1383.48  1387.49
eigval :     1414.00  1421.90  1426.34  1426.71  1432.00  1439.69
eigval :     1453.95  1456.10  1458.00  1468.95  1469.74  1480.69
eigval :     1503.25  1504.08  1509.85  1534.32  1552.32  1554.11
eigval :     1566.67  1567.77  1576.59  1584.16  1588.93  1594.91
eigval :     1598.88  1600.97  3051.59  3051.95  3070.98  3071.59
eigval :     3074.62  3075.30  3077.45  3077.96  3081.96  3083.11
eigval :     3084.58  3084.81  3087.19  3087.75  3089.79  3091.55
eigval :     3091.63  3094.91  3096.43  3097.74  3098.98  3099.69
eigval :     3101.93  3105.03  3105.53

   temp. (K)  partition function   enthalpy   heat capacity  entropy
                                   cal/mol     cal/K/mol   cal/K/mol   J/K/mol
 298.15  VIB  0.225E+16            20529.220    135.276    126.404
         ROT  0.775E+08              888.752      2.981     39.082
         INT  0.174E+24            21417.972    138.257    165.486
         TR   0.146E+29             1481.254      4.968     45.096
         TOT                       22899.2258   143.2255   210.5815   881.0731

       T/K    H(0)-H(T)+PV         H(T)/Eh          T*S/Eh         G(T)/Eh
   ------------------------------------------------------------------------
    298.15    0.364922E-01    0.578422E+00    0.100054E+00    0.478368E+00
   ------------------------------------------------------------------------

         :::::::::::::::::::::::::::::::::::::::::::::::::::::
         ::                  THERMODYNAMIC                  ::
         :::::::::::::::::::::::::::::::::::::::::::::::::::::
         :: total free energy        -119.034109659159 Eh   ::
         ::.................................................::
         :: total energy             -119.512477542257 Eh   ::
         :: zero point energy           0.541929726080 Eh   ::
         :: G(RRHO) w/o ZPVE           -0.063561842982 Eh   ::
         :: G(RRHO) contrib.            0.478367883098 Eh   ::
         :::::::::::::::::::::::::::::::::::::::::::::::::::::

           -------------------------------------------------
          | TOTAL ENERGY             -119.512477542257 Eh   |
          | TOTAL ENTHALPY           -118.934055576985 Eh   |
          | TOTAL FREE ENERGY        -119.034109659159 Eh   |
          | GRADIENT NORM               0.000046853254 Eh/α |
          | HOMO-LUMO GAP               0.872018238654 eV   |
           -------------------------------------------------

 * finished run on 2025/09/05 at 00:15:30.862
