   * xtb version 6.7.1 (edcfbbe) compiled by 'albert@albert-system' on 2024-07-22

   ID    Z sym.   atoms
    1    6 C      1-35
    2    1 H      36-57

          program call               : xtb data2507/toluene/1SBFN/1SBFN.xyz --gfn 2 --gbsa toluene --ohess vtight --parallel 40 --molden --ceasefiles --namespace data2507/toluene/1SBFN/1SBFN_toluene_S0_preOpt
      * Solvation model:               GBSA
        Solvent                        toluene
        Solvent mass                       9.2140E+01 g/mol
          :  Hamiltonian                  GFN2-xTB          :
 * total energy  :   -86.2129520 Eh     change       -0.1737959E-08 Eh
 * total energy  :   -86.2201586 Eh     change       -0.7206666E-02 Eh
 * total energy  :   -86.2213417 Eh     change       -0.1183055E-02 Eh
 * total energy  :   -86.2215361 Eh     change       -0.1943906E-03 Eh
 * total energy  :   -86.2216340 Eh     change       -0.9793601E-04 Eh
 * total energy  :   -86.2216596 Eh     change       -0.2556063E-04 Eh
 * total energy  :   -86.2216938 Eh     change       -0.3422086E-04 Eh
 * total energy  :   -86.2217052 Eh     change       -0.1139474E-04 Eh
 * total energy  :   -86.2217283 Eh     change       -0.2311211E-04 Eh
 * total energy  :   -86.2217417 Eh     change       -0.1339949E-04 Eh
 * total energy  :   -86.2228463 Eh     change       -0.6325895E-06 Eh
 * total energy  :   -86.2228470 Eh     change       -0.6516033E-06 Eh
 * total energy  :   -86.2228476 Eh     change       -0.5744380E-06 Eh
 * total energy  :   -86.2228480 Eh     change       -0.4066088E-06 Eh
 * total energy  :   -86.2228483 Eh     change       -0.3171282E-06 Eh
 * total energy  :   -86.2228485 Eh     change       -0.2167678E-06 Eh
 * total energy  :   -86.2228487 Eh     change       -0.1822769E-06 Eh
 * total energy  :   -86.2228488 Eh     change       -0.1145165E-06 Eh
 * total energy  :   -86.2228489 Eh     change       -0.8885516E-07 Eh
   *** GEOMETRY OPTIMIZATION CONVERGED AFTER 63 ITERATIONS ***

 final structure:
================
57
 xtb: 6.7.1 (edcfbbe)
C           -1.49001048965380        3.37767305165052       -2.52265547120966
C           -1.29682988309727        2.14473936665439       -3.12796723410970
C           -1.39459720693298        0.96944438703011       -2.39428947769044
C           -1.68650425810310        1.05647266236677       -1.05038331554713
C           -1.88348087165702        2.30050888353507       -0.43317318534625
C           -1.78503052575309        3.46888913030712       -1.17141167536436
C           -2.17818921735520        2.07546605334495        0.97381371144373
C           -2.45473063703953        2.96139584207766        2.00258341101137
C           -2.70880622968760        2.45273682877244        3.26664727870704
C           -2.68557437418069        1.08600941224752        3.50206851333274
C           -2.40849128198067        0.19204752880159        2.47583518976011
C           -2.15693814202048        0.69414560622620        1.21748340884100
C           -1.84071730475959       -0.06443447298403       -0.04944052709950
C           -2.90053807254423       -1.07128780937848       -0.42984960962047
C           -4.24032942555749       -0.85490730473041       -0.66770562285171
C           -5.03645777269899       -1.94140175870861       -1.00677420455818
C           -4.49631396988021       -3.21546766718726       -1.10291500539030
C           -3.14886451802660       -3.43683680955561       -0.86566943690529
C           -2.34825736856998       -2.35738896970737       -0.52806289758850
C           -0.92784408290887       -2.27273626354023       -0.22976744869014
C            0.06275288685350       -3.24096582534401       -0.19335379690358
C            1.35601103003720       -2.85894210591186        0.11881167972308
C            1.67726664800241       -1.52940376436526        0.39066742412539
C            3.06510964183030       -1.16583304402552        0.73011480981640
C            3.68844873073261       -1.80567370266011        1.77611589678539
C            4.99202782862725       -1.46945367654815        2.16249114661465
C            5.67490923861199       -0.49008292364897        1.49771794363504
C            5.08651816505235        0.17673287539099        0.40266028441692
C            5.78539307071296        1.17302028870316       -0.31240308423469
C            5.21803160723769        1.79394617277496       -1.38906634811402
C            3.92805376633959        1.43344951884577       -1.80726932004146
C            3.22288270016928        0.47553347791417       -1.13301441359197
C            3.76704238672762       -0.16625366736961        0.00065174621298
C            0.67392928299979       -0.55764092179649        0.36732730332154
C           -0.61152008673967       -0.93603081388003        0.05617590842436
H           -1.40985308200448        4.27885411223647       -3.11359880745579
H           -1.06874918286075        2.09752370432001       -4.18300246012457
H           -1.24532133383473        0.00881887256488       -2.86673939227346
H           -1.93535380321218        4.43153423465898       -0.70536039581754
H           -2.47434561404923        4.02647636243612        1.82437286690624
H           -2.92789590336794        3.12916450933478        4.08043177525542
H           -2.88697421188653        0.71159794967916        4.49528090680980
H           -2.39194969526050       -0.87259198832084        2.66032688082179
H           -4.66198141305906        0.13724253580329       -0.59191733465238
H           -6.08934488675593       -1.79180272873591       -1.19713542927167
H           -5.13561594284629       -4.04557107482001       -1.36742836504885
H           -2.73271098941832       -4.43051714027651       -0.94276734561858
H           -0.16513773670722       -4.27456582272669       -0.40827471687871
H            2.14337592212236       -3.59908501152803        0.13824728051663
H            3.15271288507826       -2.56654205510761        2.32624305565744
H            5.44638134421641       -1.98612680664442        2.99572019118536
H            6.67709703822832       -0.21611622577475        1.79578123031319
H            6.78573165328836        1.43056033184465        0.00693924060360
H            5.76072365022863        2.55516121006587       -1.93101768433099
H            3.49526632978282        1.91514512351742       -2.67242394472632
H            2.23820552188194        0.19253796309266       -1.47363734671514
H            0.90738618569151        0.47083735915222        0.60396321353836

          :  Hamiltonian                  GFN2-xTB          :
         :: gradient norm              0.000028693636 Eh/a0 ::
         :: HOMO-LUMO gap              2.874388138188 eV    ::
         :: SCC energy               -87.918692081585 Eh    ::
         :: -> dispersion             -0.080946455404 Eh    ::
         :: -> Gsolv                  -0.034484674042 Eh    ::
         :: repulsion energy           1.695843194254 Eh    ::

    * Orbital Energies and Occupations

         #    Occupation            Energy/Eh            Energy/eV
      -------------------------------------------------------------
         1        2.0000           -0.6627151             -18.0334
       ...           ...                  ...                  ...
        69        2.0000           -0.4205786             -11.4445
        70        2.0000           -0.4189818             -11.4011
        71        2.0000           -0.4145995             -11.2818
        72        2.0000           -0.4126980             -11.2301
        73        2.0000           -0.4115395             -11.1986
        74        2.0000           -0.4084192             -11.1137
        75        2.0000           -0.4008131             -10.9067
        76        2.0000           -0.3992615             -10.8645
        77        2.0000           -0.3953095             -10.7569
        78        2.0000           -0.3951344             -10.7522
        79        2.0000           -0.3847252             -10.4689
        80        2.0000           -0.3794961             -10.3266
        81        2.0000           -0.3698707             -10.0647 (HOMO)
        82                         -0.2642389              -7.1903 (LUMO)
        83                         -0.2524455              -6.8694
        84                         -0.2473765              -6.7315
        85                         -0.2273187              -6.1857
        86                         -0.2259586              -6.1486
        87                         -0.2256685              -6.1408
        88                         -0.2252906              -6.1305
        89                         -0.2165007              -5.8913
        90                         -0.1983460              -5.3973
        91                         -0.1900400              -5.1713
        92                         -0.1786164              -4.8604
       ...                                ...                  ...
       162                          0.7303278              19.8732
      -------------------------------------------------------------
                  HL-Gap            0.1056318 Eh            2.8744 eV

     #   Z          covCN         q      C6AA      α(0)
     1   6 C        2.921    -0.033    28.826     8.805
     2   6 C        2.922    -0.032    28.808     8.802
     3   6 C        2.913    -0.034    28.838     8.806
     4   6 C        3.055     0.006    27.842     8.653
     5   6 C        3.035     0.000    27.986     8.677
     6   6 C        2.914    -0.034    28.859     8.809
     7   6 C        3.036     0.000    27.991     8.678
     8   6 C        2.914    -0.035    28.863     8.810
     9   6 C        2.921    -0.033    28.830     8.805
    10   6 C        2.923    -0.033    28.810     8.802
    11   6 C        2.913    -0.034    28.838     8.806
    12   6 C        3.055     0.006    27.845     8.654
    13   6 C        3.978     0.010    20.341     6.408
    14   6 C        3.055     0.005    27.848     8.654
    15   6 C        2.913    -0.034    28.838     8.806
    16   6 C        2.923    -0.033    28.814     8.803
    17   6 C        2.921    -0.033    28.830     8.805
    18   6 C        2.914    -0.035    28.870     8.811
    19   6 C        3.035     0.000    27.983     8.677
    20   6 C        3.036    -0.002    28.043     8.686
    21   6 C        2.913    -0.035    28.875     8.812
    22   6 C        2.926    -0.038    28.943     8.823
    23   6 C        2.980     0.010    27.799     8.649
    24   6 C        2.974     0.004    27.939     8.670
    25   6 C        2.923    -0.037    28.912     8.818
    26   6 C        2.913    -0.032    28.800     8.800
    27   6 C        2.919    -0.039    28.967     8.826
    28   6 C        2.986     0.011    27.766     8.644
    29   6 C        2.919    -0.037    28.911     8.817
    30   6 C        2.915    -0.031    28.777     8.797
    31   6 C        2.916    -0.032    28.792     8.799
    32   6 C        2.917    -0.035    28.863     8.810
    33   6 C        2.986     0.008    27.836     8.654
    34   6 C        2.918    -0.036    28.907     8.817
    35   6 C        3.053     0.005    27.861     8.657
    36   1 H        0.926     0.033     2.546     2.495
    37   1 H        0.926     0.032     2.552     2.498
    38   1 H        0.926     0.026     2.637     2.539
    39   1 H        0.926     0.034     2.536     2.490
    40   1 H        0.926     0.034     2.535     2.490
    41   1 H        0.926     0.033     2.547     2.496
    42   1 H        0.926     0.032     2.552     2.498
    43   1 H        0.926     0.027     2.628     2.535
    44   1 H        0.926     0.027     2.633     2.537
    45   1 H        0.926     0.032     2.555     2.500
    46   1 H        0.926     0.033     2.548     2.496
    47   1 H        0.926     0.034     2.534     2.489
    48   1 H        0.926     0.035     2.521     2.483
    49   1 H        0.926     0.033     2.539     2.492
    50   1 H        0.926     0.031     2.576     2.510
    51   1 H        0.926     0.032     2.565     2.504
    52   1 H        0.926     0.032     2.557     2.500
    53   1 H        0.926     0.032     2.555     2.500
    54   1 H        0.926     0.031     2.574     2.509
    55   1 H        0.926     0.030     2.592     2.518
    56   1 H        0.926     0.032     2.560     2.502
    57   1 H        0.926     0.028     2.613     2.528

molecular dipole:
                 x           y           z       tot (Debye)
 q only:        0.013       0.005       0.000
   full:       -0.004       0.009       0.004       0.028

 projected vibrational frequencies (cm⁻¹)
eigval :       -0.00     0.00     0.00     0.00     0.00     0.00
eigval :       15.94    22.96    30.15    46.35    48.24    55.10
eigval :       85.29    88.28   119.16   127.67   142.40   156.04
eigval :      166.13   195.71   214.64   232.20   239.06   252.35
eigval :      284.82   286.45   326.97   343.43   384.02   390.26
eigval :      405.54   414.12   418.39   425.13   434.86   448.87
eigval :      453.13   474.12   482.02   498.24   504.12   508.24
eigval :      518.63   539.17   546.80   576.11   587.52   591.51
eigval :      603.62   609.24   633.22   644.50   666.35   689.60
eigval :      691.29   707.77   713.17   725.54   740.89   753.33
eigval :      759.66   765.43   773.03   773.57   780.69   787.07
eigval :      811.83   831.08   845.79   874.86   876.35   879.50
eigval :      882.06   893.17   895.77   899.91   903.88   909.38
eigval :      912.23   913.83   915.46   918.13   923.56   924.95
eigval :      927.76   929.18   931.30   934.04   993.12  1007.76
eigval :     1010.71  1073.11  1073.86  1076.31  1078.53  1081.87
eigval :     1110.87  1123.97  1133.18  1143.41  1152.25  1166.31
eigval :     1172.46  1176.33  1177.63  1180.34  1181.75  1193.20
eigval :     1205.52  1208.57  1221.54  1222.87  1227.15  1244.44
eigval :     1250.97  1259.22  1260.84  1272.56  1283.87  1297.61
eigval :     1321.57  1325.25  1336.29  1359.66  1364.92  1372.02
eigval :     1390.21  1414.36  1421.67  1427.91  1430.44  1434.01
eigval :     1446.19  1456.94  1460.79  1470.59  1476.11  1507.63
eigval :     1563.52  1572.98  1583.95  1591.57  1594.50  1595.00
eigval :     1596.21  1602.06  1602.79  1603.15  1609.10  3063.46
eigval :     3065.73  3068.47  3068.58  3068.84  3070.21  3071.17
eigval :     3072.03  3072.19  3072.58  3072.95  3075.63  3079.08
eigval :     3079.86  3080.31  3080.46  3082.81  3084.16  3087.22
eigval :     3088.39  3089.40  3092.71

   temp. (K)  partition function   enthalpy   heat capacity  entropy
                                   cal/mol     cal/K/mol   cal/K/mol   J/K/mol
 298.15  VIB  0.161E+11            14503.844     97.984     87.329
         ROT  0.244E+08              888.752      2.981     36.781
         INT  0.393E+18            15392.597    100.965    124.110
         TR   0.901E+28             1481.254      4.968     44.132
         TOT                       16873.8505   105.9330   168.2418   703.9235

       T/K    H(0)-H(T)+PV         H(T)/Eh          T*S/Eh         G(T)/Eh
   ------------------------------------------------------------------------
    298.15    0.268902E-01    0.467743E+00    0.799371E-01    0.387806E+00
   ------------------------------------------------------------------------

         :::::::::::::::::::::::::::::::::::::::::::::::::::::
         ::                  THERMODYNAMIC                  ::
         :::::::::::::::::::::::::::::::::::::::::::::::::::::
         :: total free energy         -85.835043294586 Eh   ::
         ::.................................................::
         :: total energy              -86.222848888030 Eh   ::
         :: zero point energy           0.440852487587 Eh   ::
         :: G(RRHO) w/o ZPVE           -0.053046894143 Eh   ::
         :: G(RRHO) contrib.            0.387805593444 Eh   ::
         :::::::::::::::::::::::::::::::::::::::::::::::::::::

           -------------------------------------------------
          | TOTAL ENERGY              -86.222848888030 Eh   |
          | TOTAL ENTHALPY            -85.755106208099 Eh   |
          | TOTAL FREE ENERGY         -85.835043294586 Eh   |
          | GRADIENT NORM               0.000028690057 Eh/α |
          | HOMO-LUMO GAP               2.874388167736 eV   |
           -------------------------------------------------

 * finished run on 2025/09/10 at 08:43:21.399
