   * xtb version 6.7.1 (edcfbbe) compiled by 'albert@albert-system' on 2024-07-22

   ID    Z sym.   atoms
    1    6 C      1-35
    2    1 H      36-57

          program call               : xtb data2507/toluene/1SBFN/1SBFN_toluene_T1_crest.xyz --gfn 2 --uhf 2 --gbsa toluene --ohess vtight --parallel 40 --molden --ceasefiles --namespace data2507/toluene/1SBFN/1SBFN_toluene_T1_finalOpt
      * Solvation model:               GBSA
        Solvent                        toluene
        Solvent mass                       9.2140E+01 g/mol
          :  Hamiltonian                  GFN2-xTB          :
 * total energy  :   -86.1323700 Eh     change       -0.1923937E-08 Eh
 * total energy  :   -86.1323974 Eh     change       -0.2738545E-04 Eh
 * total energy  :   -86.1324072 Eh     change       -0.9757208E-05 Eh
 * total energy  :   -86.1324181 Eh     change       -0.1091738E-04 Eh
 * total energy  :   -86.1324272 Eh     change       -0.9106314E-05 Eh
 * total energy  :   -86.1324343 Eh     change       -0.7147955E-05 Eh
 * total energy  :   -86.1324401 Eh     change       -0.5757622E-05 Eh
 * total energy  :   -86.1324453 Eh     change       -0.5241568E-05 Eh
 * total energy  :   -86.1324503 Eh     change       -0.4984259E-05 Eh
 * total energy  :   -86.1324546 Eh     change       -0.4309858E-05 Eh
 * total energy  :   -86.1324680 Eh     change       -0.2743907E-05 Eh
 * total energy  :   -86.1324701 Eh     change       -0.2194767E-05 Eh
 * total energy  :   -86.1324722 Eh     change       -0.2040872E-05 Eh
 * total energy  :   -86.1324741 Eh     change       -0.1947345E-05 Eh
 * total energy  :   -86.1324760 Eh     change       -0.1839976E-05 Eh
 * total energy  :   -86.1324776 Eh     change       -0.1619064E-05 Eh
 * total energy  :   -86.1324788 Eh     change       -0.1232453E-05 Eh
 * total energy  :   -86.1324796 Eh     change       -0.7574883E-06 Eh
 * total energy  :   -86.1324796 Eh     change       -0.6972215E-08 Eh
   *** GEOMETRY OPTIMIZATION CONVERGED AFTER 22 ITERATIONS ***

 final structure:
================
57
 xtb: 6.7.1 (edcfbbe)
C           -1.17621171746277        3.52149985180334       -2.36206848354411
C           -1.20684272340440        2.30485748378353       -3.02765706397413
C           -1.40621215394114        1.11916493487550       -2.33237527567349
C           -1.57329027609468        1.17860352852750       -0.96571010041775
C           -1.54608259378411        2.40654144603787       -0.28812419930519
C           -1.34676472006674        3.58556655406686       -0.98804006415165
C           -1.74805354054507        2.15466914933045        1.13046803661691
C           -1.82116357688723        3.01915961930668        2.21078453566575
C           -2.03529286731956        2.48790023250969        3.47290850784895
C           -2.17185431290807        1.11964922647709        3.65582961572076
C           -2.09692585442719        0.24700801215608        2.57800444575615
C           -1.88552223730107        0.77169111265959        1.32148750785917
C           -1.76718294276936        0.03889912938179        0.00622151682396
C           -2.94531724719555       -0.85431099280751       -0.29655876419834
C           -4.27236256605358       -0.51445522189590       -0.39373826248055
C           -5.20019175905801       -1.51699359491455       -0.66713427703415
C           -4.79224584235506       -2.83674937141792       -0.83681752598346
C           -3.46117638050962       -3.19004064303544       -0.74101317128775
C           -2.51928317213661       -2.19393455791205       -0.46838001668865
C           -1.10291106196290       -2.25074920530888       -0.31347793922774
C           -0.18770631415537       -3.31694303457572       -0.35402551809103
C            1.14057174316914       -3.07440588488552       -0.15201659538522
C            1.65583142667527       -1.75425962830094        0.04938555720291
C            3.04476614308391       -1.50742246030043        0.15013167238430
C            3.91917508467777       -2.49438993328119        0.71719993370736
C            5.18310002494150       -2.17277661836061        1.11958032647093
C            5.69284519042387       -0.87913602707450        0.93109352147994
C            4.93761777636555        0.09103485365285        0.24869031997211
C            5.46994358098775        1.36023924160830       -0.04496829037379
C            4.77734243219693        2.26134167523210       -0.83910157430649
C            3.55826883378673        1.90072695622557       -1.37986541188749
C            3.00038859230921        0.65521195902041       -1.08212590179291
C            3.62821041923443       -0.23444419313865       -0.21465927906484
C            0.70375921481944       -0.69099364792510        0.14695145532431
C           -0.61711256589029       -0.94280549862071       -0.03506722374815
H           -1.01738627948793        4.43122249193353       -2.92337263478109
H           -1.07260131627530        2.27861050775123       -4.09948811537820
H           -1.42726471311526        0.17133868684257       -2.85137571937274
H           -1.32217726260185        4.53551513220981       -0.47466434128227
H           -1.71626780052225        4.08535799509401        2.07379322842638
H           -2.09746827572832        3.14759450204435        4.32656768469945
H           -2.33961992880260        0.72759532676058        4.64851768460165
H           -2.20390156394692       -0.81873409751606        2.72169476136666
H           -4.59261861057027        0.50908495412541       -0.26002602946326
H           -6.24784758365376       -1.26709607050544       -0.74679260332264
H           -5.53276457875554       -3.59529172337503       -1.04756708319578
H           -3.14984381801082       -4.21543504792964       -0.87428531769813
H           -0.53677981533711       -4.31970953072420       -0.55364697271863
H            1.83765528588743       -3.89455993462123       -0.22828456112635
H            3.53243003843735       -3.48033791115078        0.91997678410648
H            5.80174531171504       -2.91695241453639        1.60058431702940
H            6.69547322825400       -0.63977001489708        1.25163471026025
H            6.43899467276991        1.62187922662447        0.35510631770308
H            5.20186592735853        3.23237548335058       -1.04891050559485
H            3.02507464153464        2.57595453685619       -2.03282803041503
H            2.07533538590884        0.37178739043468       -1.56155571922718
H            1.04056209139591        0.29719683093027        0.42358978826739

          :  Hamiltonian                  GFN2-xTB          :
         :: gradient norm              0.000049044368 Eh/a0 ::
         :: HOMO-LUMO gap              0.775056082193 eV    ::
         :: SCC energy               -87.808333578773 Eh    ::
         :: -> dispersion             -0.081537789687 Eh    ::
         :: -> Gsolv                  -0.034256322923 Eh    ::
         :: repulsion energy           1.675853989249 Eh    ::

    * Orbital Energies and Occupations

         #    Occupation            Energy/Eh            Energy/eV
      -------------------------------------------------------------
         1        2.0000           -0.6620380             -18.0150
       ...           ...                  ...                  ...
        70        2.0000           -0.4168187             -11.3422
        71        2.0000           -0.4144396             -11.2775
        72        2.0000           -0.4125027             -11.2248
        73        2.0000           -0.4120417             -11.2122
        74        2.0000           -0.4094361             -11.1413
        75        2.0000           -0.4012625             -10.9189
        76        2.0000           -0.4007013             -10.9036
        77        2.0000           -0.3959441             -10.7742
        78        2.0000           -0.3945881             -10.7373
        79        2.0000           -0.3850506             -10.4778
        80        2.0000           -0.3792042             -10.3187
        81        1.0000           -0.3564643              -9.6999
        82        1.0000           -0.2807499              -7.6396 (HOMO)
        83        0.0000           -0.2522671              -6.8645 (LUMO)
        84                         -0.2472310              -6.7275
        85                         -0.2257071              -6.1418
        86                         -0.2244116              -6.1065
        87                         -0.2238685              -6.0918
        88                         -0.2224745              -6.0538
        89                         -0.2141761              -5.8280
        90                         -0.2071181              -5.6360
        91                         -0.1898961              -5.1673
        92                         -0.1748231              -4.7572
        93                         -0.1460000              -3.9729
       ...                                ...                  ...
       162                          0.7333744              19.9561
      -------------------------------------------------------------
                  HL-Gap            0.0284828 Eh            0.7751 eV

     #   Z          covCN         q      C6AA      α(0)
     1   6 C        2.921    -0.033    28.825     8.804
     2   6 C        2.922    -0.032    28.810     8.802
     3   6 C        2.914    -0.034    28.838     8.806
     4   6 C        3.055     0.005    27.857     8.656
     5   6 C        3.035     0.000    27.984     8.677
     6   6 C        2.914    -0.034    28.856     8.809
     7   6 C        3.036     0.000    27.993     8.678
     8   6 C        2.914    -0.035    28.864     8.810
     9   6 C        2.921    -0.033    28.832     8.805
    10   6 C        2.923    -0.033    28.811     8.802
    11   6 C        2.913    -0.034    28.839     8.806
    12   6 C        3.055     0.005    27.861     8.656
    13   6 C        3.974     0.009    20.353     6.410
    14   6 C        3.055     0.006    27.833     8.652
    15   6 C        2.911    -0.034    28.849     8.807
    16   6 C        2.922    -0.034    28.838     8.806
    17   6 C        2.918    -0.032    28.797     8.800
    18   6 C        2.912    -0.037    28.919     8.818
    19   6 C        3.032     0.002    27.959     8.673
    20   6 C        3.033    -0.003    28.069     8.690
    21   6 C        2.906    -0.034    28.858     8.808
    22   6 C        2.918    -0.038    28.941     8.822
    23   6 C        2.971     0.009    27.809     8.650
    24   6 C        2.969     0.000    28.020     8.683
    25   6 C        2.914    -0.037    28.918     8.818
    26   6 C        2.906    -0.032    28.793     8.798
    27   6 C        2.917    -0.042    29.051     8.839
    28   6 C        2.979     0.014    27.704     8.634
    29   6 C        2.921    -0.039    28.968     8.826
    30   6 C        2.912    -0.031    28.767     8.795
    31   6 C        2.915    -0.032    28.801     8.800
    32   6 C        2.919    -0.035    28.876     8.812
    33   6 C        2.978     0.009    27.806     8.650
    34   6 C        2.913    -0.040    28.999     8.830
    35   6 C        3.045     0.005    27.864     8.658
    36   1 H        0.926     0.033     2.549     2.497
    37   1 H        0.926     0.032     2.555     2.499
    38   1 H        0.926     0.026     2.638     2.540
    39   1 H        0.926     0.033     2.538     2.491
    40   1 H        0.926     0.034     2.535     2.490
    41   1 H        0.926     0.033     2.547     2.496
    42   1 H        0.926     0.032     2.554     2.499
    43   1 H        0.926     0.027     2.632     2.537
    44   1 H        0.926     0.026     2.644     2.543
    45   1 H        0.926     0.031     2.566     2.505
    46   1 H        0.926     0.032     2.559     2.501
    47   1 H        0.926     0.033     2.547     2.496
    48   1 H        0.926     0.034     2.524     2.485
    49   1 H        0.926     0.037     2.488     2.467
    50   1 H        0.926     0.036     2.501     2.473
    51   1 H        0.926     0.031     2.565     2.505
    52   1 H        0.926     0.032     2.564     2.504
    53   1 H        0.926     0.033     2.550     2.497
    54   1 H        0.926     0.031     2.566     2.505
    55   1 H        0.926     0.031     2.578     2.511
    56   1 H        0.926     0.035     2.517     2.481
    57   1 H        0.926     0.031     2.570     2.507

molecular dipole:
                 x           y           z       tot (Debye)
 q only:        0.089      -0.017      -0.005
   full:        0.073      -0.000       0.001       0.186

 projected vibrational frequencies (cm⁻¹)
eigval :       -0.00    -0.00     0.00     0.00     0.00     0.00
eigval :       13.16    17.28    28.96    45.67    46.81    59.09
eigval :       79.01    86.64   115.67   125.47   132.62   152.30
eigval :      168.98   192.85   212.37   225.44   244.31   259.49
eigval :      273.80   284.65   302.67   342.45   358.47   387.01
eigval :      392.00   412.95   413.86   419.07   441.83   448.20
eigval :      452.80   459.79   466.58   474.28   491.46   503.00
eigval :      507.09   523.62   536.21   550.69   574.44   578.18
eigval :      590.30   600.33   620.24   629.03   659.43   675.01
eigval :      688.61   695.12   695.94   711.85   725.44   731.77
eigval :      748.84   750.94   757.67   759.45   769.15   772.76
eigval :      785.21   801.20   814.97   837.37   840.14   858.52
eigval :      870.51   878.29   878.98   892.16   893.91   894.33
eigval :      898.86   905.58   906.87   909.90   911.01   917.83
eigval :      919.91   925.96   927.54   929.26   955.80  1003.91
eigval :     1007.46  1065.06  1066.06  1072.66  1077.08  1078.70
eigval :     1091.39  1104.19  1124.69  1131.75  1142.37  1150.24
eigval :     1154.84  1169.57  1175.96  1177.33  1179.27  1186.14
eigval :     1190.64  1208.00  1210.14  1220.05  1225.37  1244.54
eigval :     1253.64  1258.50  1259.49  1260.58  1275.52  1283.74
eigval :     1304.30  1324.49  1325.19  1343.48  1362.12  1363.98
eigval :     1368.29  1379.99  1396.77  1403.68  1424.06  1426.93
eigval :     1428.79  1441.42  1449.85  1460.32  1461.11  1469.45
eigval :     1486.18  1506.21  1518.03  1520.75  1559.14  1581.53
eigval :     1583.11  1593.91  1597.46  1601.65  1602.42  3067.26
eigval :     3068.28  3068.49  3068.52  3069.39  3070.65  3071.20
eigval :     3072.34  3073.14  3073.90  3078.38  3078.67  3080.04
eigval :     3080.97  3081.14  3084.98  3086.51  3088.49  3088.98
eigval :     3090.05  3092.29  3101.04

   temp. (K)  partition function   enthalpy   heat capacity  entropy
                                   cal/mol     cal/K/mol   cal/K/mol   J/K/mol
 298.15  VIB  0.392E+11            14804.847     99.769     89.469
         ROT  0.234E+08              888.752      2.981     36.699
         INT  0.917E+18            15693.599    102.749    126.168
         TR   0.901E+28             1481.254      4.968     44.132
         TOT                       17174.8532   107.7176   170.2993   712.5323

       T/K    H(0)-H(T)+PV         H(T)/Eh          T*S/Eh         G(T)/Eh
   ------------------------------------------------------------------------
    298.15    0.273699E-01    0.464335E+00    0.809147E-01    0.383420E+00
   ------------------------------------------------------------------------

         :::::::::::::::::::::::::::::::::::::::::::::::::::::
         ::                  THERMODYNAMIC                  ::
         :::::::::::::::::::::::::::::::::::::::::::::::::::::
         :: total free energy         -85.749059597835 Eh   ::
         ::.................................................::
         :: total energy              -86.132479588690 Eh   ::
         :: zero point energy           0.436964821680 Eh   ::
         :: G(RRHO) w/o ZPVE           -0.053544830825 Eh   ::
         :: G(RRHO) contrib.            0.383419990855 Eh   ::
         :::::::::::::::::::::::::::::::::::::::::::::::::::::

           -------------------------------------------------
          | TOTAL ENERGY              -86.132479588690 Eh   |
          | TOTAL ENTHALPY            -85.668144896306 Eh   |
          | TOTAL FREE ENERGY         -85.749059597835 Eh   |
          | GRADIENT NORM               0.000049059664 Eh/α |
          | HOMO-LUMO GAP               0.775055082535 eV   |
           -------------------------------------------------

 * finished run on 2025/09/10 at 08:47:54.468
