   * xtb version 6.7.1 (edcfbbe) compiled by 'albert@albert-system' on 2024-07-22

   ID    Z sym.   atoms
    1    6 C      1-35
    2    1 H      36-57

          program call               : xtb data2507/toluene/1SBFN/1SBFN_toluene_S0_finalOpt.xtbopt.xyz --gfn 2 --uhf 2 --gbsa toluene --ohess vtight --parallel 40 --molden --ceasefiles --namespace data2507/toluene/1SBFN/1SBFN_toluene_T1_preOpt
      * Solvation model:               GBSA
        Solvent                        toluene
        Solvent mass                       9.2140E+01 g/mol
          :  Hamiltonian                  GFN2-xTB          :
 * total energy  :   -86.1168646 Eh     change       -0.2734737E-08 Eh
 * total energy  :   -86.1250605 Eh     change       -0.8195882E-02 Eh
 * total energy  :   -86.1277370 Eh     change       -0.2676497E-02 Eh
 * total energy  :   -86.1284228 Eh     change       -0.6858613E-03 Eh
 * total energy  :   -86.1291954 Eh     change       -0.7725217E-03 Eh
 * total energy  :   -86.1297328 Eh     change       -0.5374304E-03 Eh
 * total energy  :   -86.1302316 Eh     change       -0.4988170E-03 Eh
 * total energy  :   -86.1306183 Eh     change       -0.3867089E-03 Eh
 * total energy  :   -86.1308931 Eh     change       -0.2747880E-03 Eh
 * total energy  :   -86.1311292 Eh     change       -0.2361053E-03 Eh
 * total energy  :   -86.1324763 Eh     change       -0.6905773E-06 Eh
 * total energy  :   -86.1324768 Eh     change       -0.5063144E-06 Eh
 * total energy  :   -86.1324772 Eh     change       -0.3204520E-06 Eh
 * total energy  :   -86.1324774 Eh     change       -0.2486237E-06 Eh
 * total energy  :   -86.1324777 Eh     change       -0.2672398E-06 Eh
 * total energy  :   -86.1324780 Eh     change       -0.3546030E-06 Eh
 * total energy  :   -86.1324785 Eh     change       -0.4762659E-06 Eh
 * total energy  :   -86.1324790 Eh     change       -0.5121752E-06 Eh
 * total energy  :   -86.1324790 Eh     change       -0.2111676E-08 Eh
   *** GEOMETRY OPTIMIZATION CONVERGED AFTER 68 ITERATIONS ***

 final structure:
================
57
 xtb: 6.7.1 (edcfbbe)
C           -1.23511958775338        3.60532063938559       -2.24710343528640
C           -1.21246076090550        2.42360844233196       -2.97317572917675
C           -1.38817861094264        1.19851114988297       -2.34285680332219
C           -1.58604801477964        1.18329225850300       -0.97912684640883
C           -1.61325713724836        2.37568696715380       -0.24052510348012
C           -1.43669061451964        3.59427409284012       -0.87578230687864
C           -1.84236193058679        2.04614754365843        1.15791835807386
C           -1.96707197161638        2.85183642199370        2.27828242109071
C           -2.19705874169790        2.25093371787439        3.50591680057085
C           -2.29901326597933        0.87187417921986        3.61589463344189
C           -2.17249293743989        0.05799706148074        2.49769203875895
C           -1.94442431813057        0.65198227135908        1.27539354975725
C           -1.76881759886656       -0.00949498599374       -0.07102326489652
C           -2.90993074444598       -0.92088095174009       -0.45171223848973
C           -4.24333592306310       -0.61585847880049       -0.57446957111885
C           -5.13107928534337       -1.63029596938228       -0.92610867476975
C           -4.67778578265559       -2.92734116604933       -1.14769139125301
C           -3.34029775947654       -3.24614041516559       -1.02496013485136
C           -2.43845187056159       -2.23777781100666       -0.67323713292730
C           -1.02699126692738       -2.26186853531464       -0.47339156088363
C           -0.08130421671378       -3.30040184441475       -0.52777229497574
C            1.23140147276019       -3.03189761506048       -0.26614594812511
C            1.70194669979407       -1.70893528573783        0.01173483898302
C            3.07846632210204       -1.43366376651910        0.18475257592325
C            3.95055150376057       -2.42398784938351        0.74966355984697
C            5.18764664963094       -2.09223094095672        1.22107237461312
C            5.67446948382548       -0.78100017875945        1.10862608381689
C            4.92795399835406        0.19928778567266        0.43105243405938
C            5.44470785653314        1.48939745137246        0.20978907224934
C            4.76690523072183        2.40731585054713       -0.57781590947904
C            3.57938732974730        2.04446279993578       -1.18335429955179
C            3.03623670211792        0.77734398146397       -0.95823447012674
C            3.64704046501593       -0.13418025861945       -0.10139704937604
C            0.71809170447598       -0.67555511803193        0.11591710031717
C           -0.58838673063560       -0.95450582106170       -0.12264056494341
H           -1.09451424502489        4.54693615260066       -2.75849787245027
H           -1.05540897475227        2.45565976301647       -4.04172123682261
H           -1.36841567537195        0.27813211128106       -2.90914815520255
H           -1.45429351056195        4.51738713811194       -0.31534124014425
H           -1.88943628480657        3.92612609046772        2.19822999810390
H           -2.29882255822931        2.86408249029921        4.38993589217252
H           -2.48023451805903        0.42504215006594        4.58272803791275
H           -2.25259141350862       -1.01621677185412        2.58427696594729
H           -4.59952143901789        0.38960439079293       -0.40105388265302
H           -6.18298447431436       -1.40741555704746       -1.02709948494972
H           -5.38755085259266       -3.69561683003242       -1.41998650970960
H           -2.99351311412793       -4.25405228543777       -1.19802697399974
H           -0.39476568902034       -4.30228463806234       -0.78312731660198
H            1.95329240168294       -3.82944689261115       -0.35121848336545
H            3.57882200160784       -3.42578040603483        0.89440607712568
H            5.80152369554210       -2.84203159967185        1.69942931857439
H            6.65546693997230       -0.53320357015245        1.48476422024076
H            6.39033784134687        1.75421169876382        0.66068891569320
H            5.17939770456485        3.39378645835170       -0.73226361423654
H            3.05957378998468        2.73465464707008       -1.83141550833520
H            2.13792841109688        0.49531286343961       -1.48678130914380
H            1.01771613707093        0.30869481220861        0.44456141011782

          :  Hamiltonian                  GFN2-xTB          :
         :: gradient norm              0.000036417028 Eh/a0 ::
         :: HOMO-LUMO gap              0.774177692215 eV    ::
         :: SCC energy               -87.808246396077 Eh    ::
         :: -> dispersion             -0.081425648150 Eh    ::
         :: -> Gsolv                  -0.034285305094 Eh    ::
         :: repulsion energy           1.675767373387 Eh    ::

    * Orbital Energies and Occupations

         #    Occupation            Energy/Eh            Energy/eV
      -------------------------------------------------------------
         1        2.0000           -0.6620259             -18.0146
       ...           ...                  ...                  ...
        70        2.0000           -0.4167731             -11.3410
        71        2.0000           -0.4144151             -11.2768
        72        2.0000           -0.4125180             -11.2252
        73        2.0000           -0.4120055             -11.2112
        74        2.0000           -0.4094380             -11.1414
        75        2.0000           -0.4012805             -10.9194
        76        2.0000           -0.4007252             -10.9043
        77        2.0000           -0.3959807             -10.7752
        78        2.0000           -0.3945836             -10.7372
        79        2.0000           -0.3850565             -10.4779
        80        2.0000           -0.3792088             -10.3188
        81        1.0000           -0.3565271              -9.7016
        82        1.0000           -0.2807081              -7.6385 (HOMO)
        83        0.0000           -0.2522577              -6.8643 (LUMO)
        84                         -0.2472535              -6.7281
        85                         -0.2256799              -6.1411
        86                         -0.2244123              -6.1066
        87                         -0.2238365              -6.0909
        88                         -0.2225077              -6.0547
        89                         -0.2141834              -5.8282
        90                         -0.2070444              -5.6340
        91                         -0.1898872              -5.1671
        92                         -0.1748703              -4.7585
        93                         -0.1459878              -3.9725
       ...                                ...                  ...
       162                          0.7333111              19.9544
      -------------------------------------------------------------
                  HL-Gap            0.0284505 Eh            0.7742 eV

     #   Z          covCN         q      C6AA      α(0)
     1   6 C        2.921    -0.033    28.825     8.804
     2   6 C        2.922    -0.033    28.810     8.802
     3   6 C        2.914    -0.034    28.839     8.806
     4   6 C        3.055     0.005    27.857     8.656
     5   6 C        3.035     0.000    27.984     8.677
     6   6 C        2.914    -0.034    28.856     8.809
     7   6 C        3.036     0.000    27.993     8.678
     8   6 C        2.914    -0.035    28.864     8.810
     9   6 C        2.921    -0.033    28.832     8.805
    10   6 C        2.923    -0.033    28.811     8.802
    11   6 C        2.913    -0.034    28.839     8.806
    12   6 C        3.055     0.005    27.860     8.656
    13   6 C        3.974     0.009    20.353     6.410
    14   6 C        3.055     0.006    27.833     8.652
    15   6 C        2.911    -0.034    28.849     8.807
    16   6 C        2.922    -0.034    28.838     8.806
    17   6 C        2.918    -0.032    28.797     8.800
    18   6 C        2.912    -0.037    28.919     8.818
    19   6 C        3.032     0.002    27.958     8.673
    20   6 C        3.033    -0.003    28.067     8.690
    21   6 C        2.906    -0.035    28.859     8.809
    22   6 C        2.918    -0.038    28.941     8.822
    23   6 C        2.971     0.009    27.809     8.650
    24   6 C        2.969     0.000    28.019     8.683
    25   6 C        2.914    -0.037    28.919     8.818
    26   6 C        2.906    -0.032    28.793     8.799
    27   6 C        2.917    -0.042    29.051     8.839
    28   6 C        2.979     0.014    27.705     8.634
    29   6 C        2.921    -0.039    28.968     8.826
    30   6 C        2.912    -0.031    28.768     8.795
    31   6 C        2.915    -0.032    28.802     8.800
    32   6 C        2.919    -0.035    28.878     8.812
    33   6 C        2.978     0.009    27.807     8.650
    34   6 C        2.912    -0.040    28.999     8.830
    35   6 C        3.044     0.005    27.863     8.658
    36   1 H        0.926     0.033     2.549     2.496
    37   1 H        0.926     0.032     2.554     2.499
    38   1 H        0.926     0.026     2.637     2.539
    39   1 H        0.926     0.033     2.538     2.491
    40   1 H        0.926     0.034     2.535     2.490
    41   1 H        0.926     0.033     2.547     2.496
    42   1 H        0.926     0.032     2.554     2.499
    43   1 H        0.926     0.027     2.632     2.537
    44   1 H        0.926     0.026     2.644     2.543
    45   1 H        0.926     0.031     2.566     2.505
    46   1 H        0.926     0.032     2.559     2.501
    47   1 H        0.926     0.033     2.547     2.496
    48   1 H        0.926     0.034     2.524     2.484
    49   1 H        0.926     0.037     2.488     2.467
    50   1 H        0.926     0.036     2.501     2.473
    51   1 H        0.926     0.031     2.566     2.505
    52   1 H        0.926     0.032     2.564     2.504
    53   1 H        0.926     0.033     2.551     2.498
    54   1 H        0.926     0.031     2.567     2.505
    55   1 H        0.926     0.031     2.577     2.511
    56   1 H        0.926     0.035     2.517     2.481
    57   1 H        0.926     0.031     2.570     2.507

molecular dipole:
                 x           y           z       tot (Debye)
 q only:        0.085      -0.016      -0.003
   full:        0.069      -0.001       0.005       0.176

 projected vibrational frequencies (cm⁻¹)
eigval :       -0.00    -0.00    -0.00     0.00     0.00     0.00
eigval :       11.99    22.34    27.57    43.33    50.07    58.78
eigval :       80.96    86.85   117.66   126.59   136.60   154.09
eigval :      166.74   192.80   211.76   223.98   245.24   259.64
eigval :      273.73   284.96   301.61   341.95   357.09   384.58
eigval :      390.53   411.61   414.33   419.06   442.23   449.67
eigval :      452.51   459.64   466.59   473.67   491.04   503.40
eigval :      506.89   523.42   538.71   550.72   574.31   576.35
eigval :      590.36   600.33   618.88   629.24   659.49   674.85
eigval :      688.92   691.93   696.44   711.01   720.55   733.24
eigval :      747.70   751.23   757.71   760.20   768.65   772.45
eigval :      784.68   800.71   810.90   836.11   838.08   859.37
eigval :      865.90   877.03   880.12   891.82   893.72   894.04
eigval :      897.89   905.15   906.33   908.22   911.94   917.48
eigval :      919.01   924.50   925.78   927.60   955.92  1003.67
eigval :     1007.53  1065.03  1067.18  1073.65  1077.61  1079.35
eigval :     1090.88  1103.86  1124.49  1131.27  1143.12  1150.18
eigval :     1155.21  1168.66  1176.90  1177.23  1180.52  1186.37
eigval :     1190.74  1208.35  1209.53  1220.57  1226.47  1244.88
eigval :     1253.60  1258.47  1259.68  1261.51  1274.97  1284.24
eigval :     1303.56  1324.30  1325.30  1343.07  1362.04  1364.62
eigval :     1368.35  1379.88  1396.80  1403.72  1423.64  1427.44
eigval :     1429.20  1441.01  1449.45  1460.52  1461.00  1469.61
eigval :     1486.00  1506.12  1518.02  1520.66  1559.26  1581.05
eigval :     1583.34  1594.25  1597.34  1601.52  1602.46  3067.96
eigval :     3068.28  3068.55  3068.80  3069.49  3071.43  3071.79
eigval :     3072.52  3072.63  3073.68  3078.78  3079.56  3080.16
eigval :     3081.13  3081.73  3085.58  3086.77  3088.69  3089.20
eigval :     3090.25  3091.85  3101.26

   temp. (K)  partition function   enthalpy   heat capacity  entropy
                                   cal/mol     cal/K/mol   cal/K/mol   J/K/mol
 298.15  VIB  0.333E+11            14800.587     99.855     89.288
         ROT  0.234E+08              888.752      2.981     36.704
         INT  0.779E+18            15689.339    102.836    125.992
         TR   0.901E+28             1481.254      4.968     44.132
         TOT                       17170.5932   107.8037   170.1238   711.7978

       T/K    H(0)-H(T)+PV         H(T)/Eh          T*S/Eh         G(T)/Eh
   ------------------------------------------------------------------------
    298.15    0.273631E-01    0.464294E+00    0.808313E-01    0.383462E+00
   ------------------------------------------------------------------------

         :::::::::::::::::::::::::::::::::::::::::::::::::::::
         ::                  THERMODYNAMIC                  ::
         :::::::::::::::::::::::::::::::::::::::::::::::::::::
         :: total free energy         -85.749016568447 Eh   ::
         ::.................................................::
         :: total energy              -86.132479022001 Eh   ::
         :: zero point energy           0.436930663403 Eh   ::
         :: G(RRHO) w/o ZPVE           -0.053468209850 Eh   ::
         :: G(RRHO) contrib.            0.383462453554 Eh   ::
         :::::::::::::::::::::::::::::::::::::::::::::::::::::

           -------------------------------------------------
          | TOTAL ENERGY              -86.132479022001 Eh   |
          | TOTAL ENTHALPY            -85.668185276642 Eh   |
          | TOTAL FREE ENERGY         -85.749016568447 Eh   |
          | GRADIENT NORM               0.000036420191 Eh/α |
          | HOMO-LUMO GAP               0.774176189654 eV   |
           -------------------------------------------------

 * finished run on 2025/09/10 at 08:45:30.856
