   * xtb version 6.7.1 (edcfbbe) compiled by 'albert@albert-system' on 2024-07-22

   ID    Z sym.   atoms
    1    6 C      1-35
    2    1 H      36-57

          program call               : xtb data2507/toluene/1SBFN/1SBFN_toluene_S0_crest.xyz --gfn 2 --gbsa toluene --ohess vtight --parallel 40 --molden --ceasefiles --namespace data2507/toluene/1SBFN/1SBFN_toluene_S0_finalOpt
      * Solvation model:               GBSA
        Solvent                        toluene
        Solvent mass                       9.2140E+01 g/mol
          :  Hamiltonian                  GFN2-xTB          :
 * total energy  :   -86.2226713 Eh     change       -0.2056865E-08 Eh
 * total energy  :   -86.2226932 Eh     change       -0.2187535E-04 Eh
 * total energy  :   -86.2226993 Eh     change       -0.6039548E-05 Eh
 * total energy  :   -86.2227060 Eh     change       -0.6787878E-05 Eh
 * total energy  :   -86.2227134 Eh     change       -0.7352838E-05 Eh
 * total energy  :   -86.2227217 Eh     change       -0.8271070E-05 Eh
 * total energy  :   -86.2227306 Eh     change       -0.8966921E-05 Eh
 * total energy  :   -86.2227387 Eh     change       -0.8018834E-05 Eh
 * total energy  :   -86.2227460 Eh     change       -0.7394410E-05 Eh
 * total energy  :   -86.2227538 Eh     change       -0.7703346E-05 Eh
 * total energy  :   -86.2228163 Eh     change       -0.1201822E-05 Eh
 * total energy  :   -86.2228173 Eh     change       -0.1005181E-05 Eh
 * total energy  :   -86.2228181 Eh     change       -0.8287122E-06 Eh
 * total energy  :   -86.2228188 Eh     change       -0.6894507E-06 Eh
 * total energy  :   -86.2228194 Eh     change       -0.6083838E-06 Eh
 * total energy  :   -86.2228200 Eh     change       -0.5448888E-06 Eh
 * total energy  :   -86.2228205 Eh     change       -0.4956732E-06 Eh
 * total energy  :   -86.2228209 Eh     change       -0.4587693E-06 Eh
 * total energy  :   -86.2228209 Eh     change       -0.2792689E-08 Eh
   *** GEOMETRY OPTIMIZATION CONVERGED AFTER 44 ITERATIONS ***

 final structure:
================
57
 xtb: 6.7.1 (edcfbbe)
C           -1.46594755043404        3.72557777164911       -2.04793382512736
C           -1.31192146726477        2.57461758099629       -2.80659816016051
C           -1.40879718802775        1.31885581387749       -2.22112493232996
C           -1.66080186104372        1.24244418183298       -0.86856904293799
C           -1.81729484842104        2.40290739678131       -0.09638673218687
C           -1.72050319018287        3.65236726527512       -0.68738703629482
C           -2.07475366608104        2.00903029378237        1.28046971033062
C           -2.30807819575503        2.76389945420755        2.41863865351584
C           -2.53512856771307        2.10560051763308        3.61708153600866
C           -2.52834677750410        0.72003686857555        3.68095364169408
C           -2.29444829254461       -0.04306182809031        2.54431451344927
C           -2.06951077736563        0.60802042161108        1.35084677454031
C           -1.80384613318017        0.00823207670667       -0.00934762887379
C           -2.89143515673312       -0.93057563128121       -0.47562638437166
C           -4.23471740106062       -0.67041365147185       -0.63784657498674
C           -5.05856072275568       -1.69595032396919       -1.08382918870948
C           -4.54159746361696       -2.95304775018900       -1.36056700391818
C           -3.19109372620616       -3.21875709420386       -1.19772538053078
C           -2.36329596435115       -2.20078707197060       -0.75202839825481
C           -0.93348854891047       -2.17218490069781       -0.49005614347418
C            0.04134451083631       -3.15064846932855       -0.60179830424040
C            1.34942917138105       -2.82698994183830       -0.28514679326642
C            1.70112350607965       -1.54439879583696        0.13408188983690
C            3.10365939004619       -1.24112940119184        0.47256358539079
C            3.74506683054618       -2.00563544953365        1.41909608724552
C            5.06451962112054       -1.73360334176337        1.80235245426843
C            5.74482492632669       -0.69345722366113        1.23424807573279
C            5.13645347447800        0.10433194874260        0.24251583541278
C            5.83055378725957        1.16849326302554       -0.37235238950344
C            5.24225227907481        1.91926484409709       -1.35054123765801
C            3.93508503485664        1.62683735719773       -1.76846270319531
C            3.23423353363591        0.60532453037444       -1.18980739117148
C            3.80058354871582       -0.17218835642485       -0.15635120405148
C            0.71399794278004       -0.56395487038985        0.25985023072816
C           -0.58647631926606       -0.88496855891778       -0.05282978936306
H           -1.38715055277819        4.69195932468767       -2.52515022645717
H           -1.11439616930657        2.65504269963114       -3.86576523384925
H           -1.28909391800029        0.42251347977776       -2.81311002920681
H           -1.84047257944900        4.55164953924542       -0.10140773836926
H           -2.31499356752548        3.84302478535812        2.37443024187764
H           -2.72059590639356        2.67866219755845        4.51427045276181
H           -2.70829245973459        0.22802619256592        4.62587427026919
H           -2.29096004009840       -1.12254777825237        2.59435059082237
H           -4.63792545791565        0.30892331941442       -0.42283357528890
H           -6.11472685395510       -1.51153047051119       -1.21690425674696
H           -5.20158811262959       -3.73546850008850       -1.70707099563894
H           -2.79352249234947       -4.19940899591627       -1.41406528156617
H           -0.21040901312442       -4.14751931925360       -0.93245407591336
H            2.12404882466721       -3.57485890163787       -0.37887991981899
H            3.21211968636619       -2.81772056377641        1.89350791146242
H            5.53377001090000       -2.34949794717483        2.55608575432261
H            6.75966552773680       -0.46944841488470        1.53128884471453
H            6.84372912525179        1.37390275839867       -0.05578718239806
H            5.78123528038217        2.73206834421786       -1.81584108938144
H            3.48543985228699        2.21266778361430       -2.55739518793638
H            2.23541136067975        0.37714775296190       -1.53044430842200
H            0.97186594507096        0.42517417595423        0.61113644791923

          :  Hamiltonian                  GFN2-xTB          :
         :: gradient norm              0.000045619975 Eh/a0 ::
         :: HOMO-LUMO gap              2.877548011764 eV    ::
         :: SCC energy               -87.918705538803 Eh    ::
         :: -> dispersion             -0.080946423748 Eh    ::
         :: -> Gsolv                  -0.034458953365 Eh    ::
         :: repulsion energy           1.695884603436 Eh    ::

    * Orbital Energies and Occupations

         #    Occupation            Energy/Eh            Energy/eV
      -------------------------------------------------------------
         1        2.0000           -0.6627203             -18.0335
       ...           ...                  ...                  ...
        69        2.0000           -0.4205872             -11.4448
        70        2.0000           -0.4189907             -11.4013
        71        2.0000           -0.4146020             -11.2819
        72        2.0000           -0.4127064             -11.2303
        73        2.0000           -0.4115389             -11.1985
        74        2.0000           -0.4084100             -11.1134
        75        2.0000           -0.4008141             -10.9067
        76        2.0000           -0.3992702             -10.8647
        77        2.0000           -0.3953901             -10.7591
        78        2.0000           -0.3950560             -10.7500
        79        2.0000           -0.3847005             -10.4682
        80        2.0000           -0.3794878             -10.3264
        81        2.0000           -0.3699269             -10.0662 (HOMO)
        82                         -0.2641790              -7.1887 (LUMO)
        83                         -0.2524447              -6.8694
        84                         -0.2474272              -6.7328
        85                         -0.2273269              -6.1859
        86                         -0.2259565              -6.1486
        87                         -0.2256636              -6.1406
        88                         -0.2252860              -6.1303
        89                         -0.2164988              -5.8912
        90                         -0.1982921              -5.3958
        91                         -0.1900401              -5.1713
        92                         -0.1787013              -4.8627
       ...                                ...                  ...
       162                          0.7303819              19.8747
      -------------------------------------------------------------
                  HL-Gap            0.1057479 Eh            2.8775 eV

     #   Z          covCN         q      C6AA      α(0)
     1   6 C        2.921    -0.033    28.826     8.804
     2   6 C        2.922    -0.032    28.808     8.802
     3   6 C        2.913    -0.034    28.838     8.806
     4   6 C        3.055     0.006    27.842     8.653
     5   6 C        3.035     0.000    27.987     8.677
     6   6 C        2.914    -0.034    28.858     8.809
     7   6 C        3.036     0.000    27.991     8.678
     8   6 C        2.914    -0.035    28.863     8.810
     9   6 C        2.921    -0.033    28.830     8.805
    10   6 C        2.922    -0.032    28.810     8.802
    11   6 C        2.913    -0.034    28.838     8.806
    12   6 C        3.055     0.006    27.845     8.654
    13   6 C        3.978     0.010    20.341     6.408
    14   6 C        3.055     0.005    27.848     8.654
    15   6 C        2.913    -0.034    28.838     8.806
    16   6 C        2.923    -0.033    28.813     8.803
    17   6 C        2.921    -0.033    28.830     8.805
    18   6 C        2.914    -0.035    28.870     8.811
    19   6 C        3.035     0.000    27.983     8.677
    20   6 C        3.035    -0.002    28.043     8.686
    21   6 C        2.913    -0.035    28.875     8.812
    22   6 C        2.926    -0.038    28.943     8.823
    23   6 C        2.980     0.010    27.798     8.649
    24   6 C        2.974     0.004    27.939     8.670
    25   6 C        2.923    -0.037    28.912     8.818
    26   6 C        2.913    -0.032    28.800     8.800
    27   6 C        2.919    -0.039    28.967     8.826
    28   6 C        2.986     0.011    27.766     8.644
    29   6 C        2.919    -0.037    28.911     8.817
    30   6 C        2.915    -0.031    28.777     8.797
    31   6 C        2.916    -0.032    28.792     8.799
    32   6 C        2.917    -0.035    28.863     8.810
    33   6 C        2.986     0.008    27.836     8.654
    34   6 C        2.918    -0.036    28.907     8.817
    35   6 C        3.053     0.005    27.860     8.656
    36   1 H        0.926     0.033     2.546     2.495
    37   1 H        0.926     0.032     2.552     2.498
    38   1 H        0.926     0.026     2.637     2.539
    39   1 H        0.926     0.034     2.536     2.490
    40   1 H        0.926     0.034     2.535     2.490
    41   1 H        0.926     0.033     2.547     2.496
    42   1 H        0.926     0.032     2.552     2.498
    43   1 H        0.926     0.027     2.628     2.535
    44   1 H        0.926     0.027     2.633     2.537
    45   1 H        0.926     0.032     2.555     2.500
    46   1 H        0.926     0.033     2.548     2.496
    47   1 H        0.926     0.034     2.534     2.489
    48   1 H        0.926     0.035     2.521     2.483
    49   1 H        0.926     0.033     2.539     2.492
    50   1 H        0.926     0.031     2.576     2.510
    51   1 H        0.926     0.032     2.565     2.504
    52   1 H        0.926     0.032     2.557     2.500
    53   1 H        0.926     0.032     2.555     2.500
    54   1 H        0.926     0.031     2.574     2.509
    55   1 H        0.926     0.030     2.592     2.518
    56   1 H        0.926     0.032     2.560     2.502
    57   1 H        0.926     0.028     2.614     2.528

molecular dipole:
                 x           y           z       tot (Debye)
 q only:        0.013       0.005       0.000
   full:       -0.004       0.009       0.006       0.030

 projected vibrational frequencies (cm⁻¹)
eigval :       -0.00    -0.00     0.00     0.00     0.00     0.00
eigval :       16.65    21.04    27.53    45.65    45.90    52.44
eigval :       82.04    85.78   120.74   125.19   138.86   156.11
eigval :      168.31   195.96   214.13   230.85   236.79   251.87
eigval :      285.45   285.95   325.92   343.52   382.52   389.22
eigval :      404.88   413.74   416.61   424.39   435.74   448.63
eigval :      452.70   473.00   481.10   497.99   503.91   508.26
eigval :      518.26   538.56   548.20   575.17   587.41   591.26
eigval :      603.55   609.37   632.74   644.26   666.20   688.48
eigval :      690.82   707.34   712.98   727.12   740.21   752.89
eigval :      763.47   764.20   772.27   774.96   780.33   784.80
eigval :      814.03   825.43   845.37   874.20   876.33   878.05
eigval :      880.31   888.23   897.57   899.46   901.38   909.05
eigval :      910.54   911.56   913.92   920.83   925.02   925.21
eigval :      925.62   926.30   933.68   933.93   993.07  1007.63
eigval :     1010.73  1071.85  1074.13  1076.89  1077.58  1082.05
eigval :     1110.52  1124.16  1133.27  1141.25  1152.94  1166.88
eigval :     1173.02  1176.16  1177.28  1178.82  1179.79  1193.15
eigval :     1205.11  1207.58  1221.87  1222.49  1227.55  1244.02
eigval :     1250.29  1258.91  1260.16  1272.87  1283.94  1297.59
eigval :     1321.50  1325.25  1336.41  1359.69  1364.66  1372.35
eigval :     1390.28  1414.46  1421.77  1427.44  1430.07  1434.27
eigval :     1446.37  1457.06  1460.65  1470.31  1476.10  1507.53
eigval :     1563.61  1572.96  1583.88  1591.59  1594.37  1595.10
eigval :     1596.39  1602.17  1602.78  1603.25  1609.04  3063.21
eigval :     3066.17  3067.48  3068.29  3068.62  3069.61  3070.96
eigval :     3071.25  3072.29  3072.65  3073.11  3076.43  3079.21
eigval :     3080.00  3080.15  3080.56  3083.12  3084.07  3087.19
eigval :     3088.58  3089.38  3090.61

   temp. (K)  partition function   enthalpy   heat capacity  entropy
                                   cal/mol     cal/K/mol   cal/K/mol   J/K/mol
 298.15  VIB  0.221E+11            14539.233     97.875     87.642
         ROT  0.244E+08              888.752      2.981     36.781
         INT  0.538E+18            15427.985    100.856    124.422
         TR   0.901E+28             1481.254      4.968     44.132
         TOT                       16909.2394   105.8244   168.5539   705.2296

       T/K    H(0)-H(T)+PV         H(T)/Eh          T*S/Eh         G(T)/Eh
   ------------------------------------------------------------------------
    298.15    0.269466E-01    0.467654E+00    0.800854E-01    0.387568E+00
   ------------------------------------------------------------------------

         :::::::::::::::::::::::::::::::::::::::::::::::::::::
         ::                  THERMODYNAMIC                  ::
         :::::::::::::::::::::::::::::::::::::::::::::::::::::
         :: total free energy         -85.835252488484 Eh   ::
         ::.................................................::
         :: total energy              -86.222820935838 Eh   ::
         :: zero point energy           0.440707262815 Eh   ::
         :: G(RRHO) w/o ZPVE           -0.053138815461 Eh   ::
         :: G(RRHO) contrib.            0.387568447354 Eh   ::
         :::::::::::::::::::::::::::::::::::::::::::::::::::::

           -------------------------------------------------
          | TOTAL ENERGY              -86.222820935838 Eh   |
          | TOTAL ENTHALPY            -85.755167084786 Eh   |
          | TOTAL FREE ENERGY         -85.835252488484 Eh   |
          | GRADIENT NORM               0.000045615943 Eh/α |
          | HOMO-LUMO GAP               2.877548001725 eV   |
           -------------------------------------------------

 * finished run on 2025/09/10 at 08:45:25.753
