   * xtb version 6.7.1 (edcfbbe) compiled by 'albert@albert-system' on 2024-07-22

   ID    Z sym.   atoms
    1    6 C      1-17, 19-34, 36-49
    2    7 N      18, 35
    3    1 H      50-81

          program call               : xtb data2507/toluene/-ph-pCzAnBzt/-ph-pCzAnBzt_toluene_T1_crest.xyz --gfn 2 --uhf 2 --gbsa toluene --ohess vtight --parallel 40 --molden --ceasefiles --namespace data2507/toluene/-ph-pCzAnBzt/-ph-pCzAnBzt_toluene_T1_finalOpt
      * Solvation model:               GBSA
        Solvent                        toluene
        Solvent mass                       9.2140E+01 g/mol
          :  Hamiltonian                  GFN2-xTB          :
 * total energy  :  -122.8060196 Eh     change       -0.2554046E-08 Eh
 * total energy  :  -122.8060575 Eh     change       -0.3794810E-04 Eh
 * total energy  :  -122.8060707 Eh     change       -0.1316053E-04 Eh
 * total energy  :  -122.8060441 Eh     change        0.2659360E-04 Eh
 * total energy  :  -122.8060797 Eh     change       -0.3555147E-04 Eh
 * total energy  :  -122.8060892 Eh     change       -0.9518033E-05 Eh
 * total energy  :  -122.8060943 Eh     change       -0.5116638E-05 Eh
 * total energy  :  -122.8061032 Eh     change       -0.8941753E-05 Eh
 * total energy  :  -122.8061088 Eh     change       -0.5610276E-05 Eh
 * total energy  :  -122.8061128 Eh     change       -0.3980014E-05 Eh
 * total energy  :  -122.8061813 Eh     change       -0.2774112E-06 Eh
 * total energy  :  -122.8061815 Eh     change       -0.2332535E-06 Eh
 * total energy  :  -122.8061817 Eh     change       -0.2178236E-06 Eh
 * total energy  :  -122.8061819 Eh     change       -0.2171260E-06 Eh
 * total energy  :  -122.8061821 Eh     change       -0.1395428E-06 Eh
 * total energy  :  -122.8061822 Eh     change       -0.1026566E-06 Eh
 * total energy  :  -122.8061823 Eh     change       -0.1199725E-06 Eh
 * total energy  :  -122.8061824 Eh     change       -0.1078682E-06 Eh
 * total energy  :  -122.8061825 Eh     change       -0.5116588E-07 Eh
   *** GEOMETRY OPTIMIZATION CONVERGED AFTER 61 ITERATIONS ***

 final structure:
================
81
 xtb: 6.7.1 (edcfbbe)
C           -1.24169379633766        2.30078973301207        1.37347497552586
C           -0.57691805208118        1.15431732648672        0.66977438778415
C            0.80793642787307        1.09960191096881        0.62382791430661
C            1.49293893238497        0.07124340051901       -0.01708789390410
C            2.96348542544169        0.06069791986066        0.00269681582850
C            3.68857199078553        1.05133883933655       -0.71455345746491
C            3.03117810202559        2.03064324846287       -1.46972000697338
C            3.73397657979716        3.05165982912316       -2.10039760417499
C            5.10648886355712        3.11808230071910       -1.97393789403487
C            5.78790749418812        2.13144334333368       -1.26352895699075
C            5.11553803264126        1.05915983186881       -0.67126958839590
C            5.81195758344855        0.01433060176303        0.02068991848869
C            7.26132517944854       -0.01623518964572        0.01840383860884
C            7.98805518349526       -0.11133547840186        1.21877182261455
C            9.36147036763452       -0.13469663707816        1.22103762580424
C           10.06844638757362       -0.08695723093388        0.01044700937759
C           11.47177469828164       -0.12532269178922        0.00620125344658
N           12.62290336900590       -0.15696542962899        0.00273574509833
C            9.35790184882764       -0.00114095252070       -1.19604214126047
C            7.98519542807684        0.04599281210333       -1.18590006743351
C            5.07445643359040       -0.99394563288871        0.72305659204554
C            5.69997464372315       -2.08251883127846        1.33712889098837
C            4.97684298904132       -3.02003882821139        2.07235117076948
C            3.60939107460319       -2.88749150131307        2.20267854643185
C            2.95086136137165       -1.85530090399401        1.54277292653090
C            3.64931570732838       -0.92921736635804        0.75821606219258
C            0.76467139484276       -0.92572777883166       -0.67964341125887
C            1.46088084986376       -2.01617153483538       -1.43735899362606
C           -0.61716840142097       -0.86133270950491       -0.64674690292118
C           -1.30270026233699        0.14487903343543        0.03025755846148
C           -2.77657402294990        0.11038612268418        0.02616032522539
C           -3.46919446643245        0.04310102256688       -1.18075191424727
C           -4.84903030296965       -0.00167016837142       -1.20495000123542
C           -5.56780069504415       -0.00156177020207       -0.01269357557155
N           -6.97064192111907       -0.04667728095880       -0.03100462945021
C           -7.74272257634843       -0.95875704534752       -0.72151278813870
C           -7.35123184300721       -2.04183879800574       -1.49674974757928
C           -8.34122295639914       -2.82192073741097       -2.06350305170204
C           -9.69175878786525       -2.54388589931069       -1.86147526299203
C          -10.08779607169129       -1.48078392199593       -1.07349936839410
C           -9.11118052228527       -0.68144649483179       -0.49376011077029
C           -9.15599632166972        0.46258881854371        0.37430690006556
C          -10.19212150746423        1.20398673590374        0.92716688509920
C           -9.87910134943227        2.28835593851535        1.72350082205069
C           -8.55274262035445        2.64473458103050        1.95988660239546
C           -7.50471737900348        1.92329719206353        1.42046087479212
C           -7.81256402998753        0.81897538843350        0.63747785171858
C           -4.88342996933569        0.04507776171539        1.19879343679066
C           -3.50410200959321        0.10840481511308        1.21387970938370
H           -0.64165449372181        3.20293624033855        1.27085663018600
H           -2.23396991503274        2.48787015360801        0.97042728822585
H           -1.33979090488484        2.08859387438404        2.43850855807623
H            1.38198036178030        1.87269978201315        1.11626892372374
H            1.95603224174608        1.99273185727992       -1.55635028951535
H            3.19918786118944        3.79586150495363       -2.67183695255599
H            5.66172694192055        3.92608325677997       -2.42668756737350
H            6.85947589077611        2.21094731613723       -1.16352112764879
H            7.45229196633739       -0.11930271553692        2.15668595688665
H            9.90842672447458       -0.18396117268384        2.15182814705166
H            9.90155411572889        0.02157087593501       -2.12979352405703
H            7.44514902838726        0.08424485893743       -2.12062363054197
H            6.76631994794600       -2.21357621551312        1.23568480601036
H            5.49636823676694       -3.84154119840684        2.54290474498801
H            3.04416283405151       -3.59036893263811        2.79687264289399
H            1.87908326810353       -1.76207492280058        1.63381047618997
H            1.86760454898479       -2.76091455805954       -0.75297535977376
H            2.29138545202733       -1.61192443678032       -2.01409107286780
H            0.76940305017224       -2.51384343731135       -2.11316584788670
H           -1.19114509830320       -1.62542547491138       -1.15306304300154
H           -2.91769814240036        0.05104649764293       -2.10973145996814
H           -5.37839373963195       -0.02220211091688       -2.14613876991191
H           -6.30802275130167       -2.27570959844385       -1.64597412552358
H           -8.06194482750860       -3.66855870847814       -2.67380174828589
H          -10.43599210865803       -3.17623793936623       -2.32315480980128
H          -11.13445939951851       -1.27445297298359       -0.90589579369352
H          -11.22033738718838        0.93742223771719        0.73261961644769
H          -10.67063618274836        2.87651904347918        2.16447536174818
H           -8.33937711829588        3.50680730181356        2.57513925267149
H           -6.48080294280038        2.21755122039313        1.59520226628648
H           -5.43842949453428        0.01798542074316        2.12489114365311
H           -2.98170886807623        0.12899264890528        2.15827081495982

          :  Hamiltonian                  GFN2-xTB          :
         :: gradient norm              0.000112669042 Eh/a0 ::
         :: HOMO-LUMO gap              0.814218091053 eV    ::
         :: SCC energy              -125.170623754666 Eh    ::
         :: -> dispersion             -0.114155692399 Eh    ::
         :: -> Gsolv                  -0.054385595437 Eh    ::
         :: repulsion energy           2.364441284243 Eh    ::

    * Orbital Energies and Occupations

         #    Occupation            Energy/Eh            Energy/eV
      -------------------------------------------------------------
         1        2.0000           -0.6775359             -18.4367
       ...           ...                  ...                  ...
       104        2.0000           -0.4127547             -11.2316
       105        2.0000           -0.4105066             -11.1705
       106        2.0000           -0.4087353             -11.1223
       107        2.0000           -0.4064956             -11.0613
       108        2.0000           -0.4058432             -11.0436
       109        2.0000           -0.4051888             -11.0257
       110        2.0000           -0.4029017             -10.9635
       111        2.0000           -0.3947819             -10.7426
       112        2.0000           -0.3836864             -10.4406
       113        2.0000           -0.3799966             -10.3402
       114        1.9725           -0.3628419              -9.8734
       115        1.0275           -0.3560704              -9.6892
       116        1.0000           -0.2952035              -8.0329 (HOMO)
       117        0.0000           -0.2652811              -7.2187 (LUMO)
       118                         -0.2489677              -6.7748
       119                         -0.2427092              -6.6045
       120                         -0.2347734              -6.3885
       121                         -0.2319583              -6.3119
       122                         -0.2310784              -6.2880
       123                         -0.2274593              -6.1895
       124                         -0.2234674              -6.0809
       125                         -0.2189911              -5.9591
       126                         -0.2134056              -5.8071
       127                         -0.2052338              -5.5847
       ...                                ...                  ...
       228                          1.1614119              31.6036
      -------------------------------------------------------------
                  HL-Gap            0.0299224 Eh            0.8142 eV

     #   Z          covCN         q      C6AA      α(0)
     1   6 C        3.757    -0.107    22.603     6.778
     2   6 C        2.966     0.009    27.807     8.649
     3   6 C        2.930    -0.045    29.108     8.848
     4   6 C        2.978     0.003    27.959     8.674
     5   6 C        2.975    -0.004    28.111     8.697
     6   6 C        2.978     0.010    27.792     8.648
     7   6 C        2.921    -0.035    28.883     8.813
     8   6 C        2.913    -0.029    28.713     8.787
     9   6 C        2.914    -0.031    28.784     8.798
    10   6 C        2.920    -0.035    28.875     8.812
    11   6 C        2.976     0.008    27.835     8.654
    12   6 C        2.971    -0.005    28.147     8.702
    13   6 C        2.972     0.019    27.582     8.615
    14   6 C        2.921    -0.031    28.766     8.795
    15   6 C        2.921    -0.023    28.585     8.768
    16   6 C        2.971     0.004    27.928     8.668
    17   6 C        1.911     0.112    28.330     8.596
    18   7 N        0.911    -0.301    27.749     7.619
    19   6 C        2.921    -0.023    28.585     8.768
    20   6 C        2.921    -0.031    28.765     8.795
    21   6 C        2.976     0.008    27.826     8.653
    22   6 C        2.920    -0.035    28.881     8.813
    23   6 C        2.914    -0.031    28.785     8.798
    24   6 C        2.913    -0.029    28.730     8.789
    25   6 C        2.921    -0.035    28.867     8.811
    26   6 C        2.979     0.011    27.754     8.642
    27   6 C        2.966     0.010    27.784     8.646
    28   6 C        3.757    -0.106    22.576     6.774
    29   6 C        2.930    -0.047    29.156     8.855
    30   6 C        2.979    -0.003    28.083     8.693
    31   6 C        2.977     0.012    27.733     8.638
    32   6 C        2.925    -0.033    28.832     8.806
    33   6 C        2.920    -0.043    29.067     8.841
    34   6 C        2.913     0.061    26.636     8.463
    35   7 N        2.802    -0.043    22.074     6.978
    36   6 C        3.075     0.048    26.852     8.496
    37   6 C        2.909    -0.051    29.265     8.871
    38   6 C        2.923    -0.035    28.868     8.811
    39   6 C        2.920    -0.042    29.040     8.837
    40   6 C        2.912    -0.034    28.856     8.809
    41   6 C        3.067    -0.018    28.395     8.738
    42   6 C        3.067    -0.018    28.395     8.738
    43   6 C        2.912    -0.034    28.856     8.809
    44   6 C        2.920    -0.042    29.040     8.837
    45   6 C        2.923    -0.035    28.867     8.811
    46   6 C        2.909    -0.051    29.266     8.871
    47   6 C        3.076     0.048    26.853     8.496
    48   6 C        2.920    -0.043    29.073     8.842
    49   6 C        2.924    -0.032    28.799     8.800
    50   1 H        0.925     0.045     2.385     2.415
    51   1 H        0.925     0.044     2.397     2.421
    52   1 H        0.924     0.049     2.333     2.389
    53   1 H        0.925     0.032     2.551     2.498
    54   1 H        0.926     0.038     2.471     2.458
    55   1 H        0.926     0.034     2.531     2.488
    56   1 H        0.926     0.032     2.554     2.499
    57   1 H        0.926     0.035     2.517     2.481
    58   1 H        0.926     0.043     2.413     2.429
    59   1 H        0.926     0.035     2.522     2.483
    60   1 H        0.926     0.035     2.521     2.483
    61   1 H        0.926     0.043     2.415     2.430
    62   1 H        0.926     0.035     2.515     2.480
    63   1 H        0.926     0.032     2.558     2.501
    64   1 H        0.926     0.033     2.542     2.493
    65   1 H        0.926     0.037     2.487     2.466
    66   1 H        0.925     0.049     2.338     2.391
    67   1 H        0.925     0.042     2.423     2.434
    68   1 H        0.925     0.044     2.402     2.424
    69   1 H        0.925     0.034     2.534     2.489
    70   1 H        0.926     0.040     2.443     2.444
    71   1 H        0.926     0.041     2.442     2.444
    72   1 H        0.926     0.031     2.568     2.506
    73   1 H        0.926     0.031     2.577     2.511
    74   1 H        0.926     0.028     2.610     2.527
    75   1 H        0.926     0.031     2.578     2.511
    76   1 H        0.926     0.031     2.579     2.511
    77   1 H        0.926     0.028     2.610     2.526
    78   1 H        0.926     0.031     2.574     2.509
    79   1 H        0.926     0.032     2.564     2.504
    80   1 H        0.926     0.041     2.432     2.439
    81   1 H        0.926     0.044     2.398     2.421

molecular dipole:
                 x           y           z       tot (Debye)
 q only:       -3.029       0.111       0.046
   full:       -3.340       0.114       0.057       8.497

 projected vibrational frequencies (cm⁻¹)
eigval :       -0.00    -0.00    -0.00    -0.00     0.00     0.00
eigval :        9.09    11.08    14.95    20.74    31.68    38.85
eigval :       42.72    48.34    65.41    69.99    76.63    82.92
eigval :       85.19    93.28   105.19   115.94   122.69   123.84
eigval :      127.46   129.29   135.56   143.58   175.48   179.45
eigval :      185.23   189.12   225.26   225.76   235.41   239.80
eigval :      243.82   270.44   272.13   278.95   306.87   340.92
eigval :      348.50   361.63   368.96   377.95   384.07   385.23
eigval :      389.39   391.33   399.03   414.15   421.96   425.72
eigval :      434.11   436.61   442.29   450.48   467.50   467.84
eigval :      470.68   516.78   520.00   523.63   528.72   534.56
eigval :      538.47   540.79   560.00   573.13   582.19   582.26
eigval :      593.58   602.21   607.45   610.98   622.31   638.01
eigval :      640.33   669.46   674.14   674.69   679.38   690.22
eigval :      700.77   702.89   709.97   719.82   735.88   747.90
eigval :      756.36   761.56   766.84   772.73   778.21   792.46
eigval :      813.80   823.58   842.17   848.76   863.76   865.63
eigval :      866.82   872.03   880.50   882.30   888.16   891.42
eigval :      893.81   895.79   897.50   900.91   901.62   907.77
eigval :      908.45   918.39   918.83   919.93   925.21   926.66
eigval :      929.80   933.57   935.54   944.38   989.16  1007.65
eigval :     1010.99  1011.50  1027.13  1030.67  1034.08  1038.19
eigval :     1068.13  1071.29  1098.99  1101.47  1108.05  1114.08
eigval :     1115.95  1133.44  1135.52  1149.12  1163.11  1174.15
eigval :     1178.90  1179.51  1179.92  1180.83  1181.36  1190.30
eigval :     1192.40  1198.43  1224.77  1229.43  1234.62  1242.34
eigval :     1242.87  1252.87  1256.44  1263.54  1264.80  1280.70
eigval :     1282.09  1298.36  1298.63  1304.81  1306.05  1311.60
eigval :     1311.81  1315.07  1350.36  1354.27  1357.92  1358.72
eigval :     1365.64  1368.47  1374.72  1395.10  1403.71  1405.82
eigval :     1408.87  1409.17  1412.47  1417.62  1424.76  1428.99
eigval :     1458.56  1470.00  1471.73  1473.61  1477.84  1480.37
eigval :     1482.99  1486.14  1486.39  1488.59  1494.01  1502.75
eigval :     1524.06  1525.12  1542.58  1543.78  1559.64  1564.10
eigval :     1571.70  1585.16  1587.07  1593.73  1595.41  1609.73
eigval :     2317.69  2993.92  2997.51  3021.33  3027.78  3038.05
eigval :     3041.36  3065.74  3067.52  3070.75  3071.35  3074.04
eigval :     3074.50  3075.42  3075.70  3076.43  3077.30  3077.72
eigval :     3082.89  3083.31  3083.71  3084.60  3085.70  3086.43
eigval :     3088.26  3090.28  3090.91  3091.38  3092.30  3093.90
eigval :     3095.88  3097.06  3097.81

   temp. (K)  partition function   enthalpy   heat capacity  entropy
                                   cal/mol     cal/K/mol   cal/K/mol   J/K/mol
 298.15  VIB  0.183E+19            23611.286    148.881    147.391
         ROT  0.108E+09              888.752      2.981     39.737
         INT  0.198E+27            24500.038    151.862    187.128
         TR   0.151E+29             1481.254      4.968     45.159
         TOT                       25981.2924   156.8301   232.2866   971.8871

       T/K    H(0)-H(T)+PV         H(T)/Eh          T*S/Eh         G(T)/Eh
   ------------------------------------------------------------------------
    298.15    0.414038E-01    0.665466E+00    0.110367E+00    0.555099E+00
   ------------------------------------------------------------------------

         :::::::::::::::::::::::::::::::::::::::::::::::::::::
         ::                  THERMODYNAMIC                  ::
         :::::::::::::::::::::::::::::::::::::::::::::::::::::
         :: total free energy        -122.251083418981 Eh   ::
         ::.................................................::
         :: total energy             -122.806182469169 Eh   ::
         :: zero point energy           0.624062085527 Eh   ::
         :: G(RRHO) w/o ZPVE           -0.068963035338 Eh   ::
         :: G(RRHO) contrib.            0.555099050189 Eh   ::
         :::::::::::::::::::::::::::::::::::::::::::::::::::::

           -------------------------------------------------
          | TOTAL ENERGY             -122.806182469169 Eh   |
          | TOTAL ENTHALPY           -122.140716558805 Eh   |
          | TOTAL FREE ENERGY        -122.251083418981 Eh   |
          | GRADIENT NORM               0.000112924878 Eh/α |
          | HOMO-LUMO GAP               0.814229446711 eV   |
           -------------------------------------------------

 * finished run on 2025/08/26 at 13:07:07.438
