   * xtb version 6.7.1 (edcfbbe) compiled by 'albert@albert-system' on 2024-07-22

   ID    Z sym.   atoms
    1    6 C      1-17, 19-34, 36-49
    2    7 N      18, 35
    3    1 H      50-81

          program call               : xtb data2507/toluene/-ph-pCzAnBzt/-ph-pCzAnBzt_toluene_S0_finalOpt.xtbopt.xyz --gfn 2 --uhf 2 --gbsa toluene --ohess vtight --parallel 40 --molden --ceasefiles --namespace data2507/toluene/-ph-pCzAnBzt/-ph-pCzAnBzt_toluene_T1_preOpt
      * Solvation model:               GBSA
        Solvent                        toluene
        Solvent mass                       9.2140E+01 g/mol
          :  Hamiltonian                  GFN2-xTB          :
 * total energy  :  -122.7974122 Eh     change       -0.4327916E-09 Eh
 * total energy  :  -122.8028851 Eh     change       -0.5472934E-02 Eh
 * total energy  :  -122.8043610 Eh     change       -0.1475943E-02 Eh
 * total energy  :  -122.8045577 Eh     change       -0.1966325E-03 Eh
 * total energy  :  -122.8047841 Eh     change       -0.2264070E-03 Eh
 * total energy  :  -122.8049423 Eh     change       -0.1581677E-03 Eh
 * total energy  :  -122.8050793 Eh     change       -0.1370482E-03 Eh
 * total energy  :  -122.8052196 Eh     change       -0.1402902E-03 Eh
 * total energy  :  -122.8053610 Eh     change       -0.1413674E-03 Eh
 * total energy  :  -122.8054590 Eh     change       -0.9808392E-04 Eh
 * total energy  :  -122.8060451 Eh     change       -0.9011046E-06 Eh
 * total energy  :  -122.8060458 Eh     change       -0.6442844E-06 Eh
 * total energy  :  -122.8060462 Eh     change       -0.4198826E-06 Eh
 * total energy  :  -122.8060466 Eh     change       -0.3860170E-06 Eh
 * total energy  :  -122.8060469 Eh     change       -0.3525181E-06 Eh
 * total energy  :  -122.8060473 Eh     change       -0.3841899E-06 Eh
 * total energy  :  -122.8060478 Eh     change       -0.4989649E-06 Eh
 * total energy  :  -122.8060483 Eh     change       -0.4862186E-06 Eh
 * total energy  :  -122.8060483 Eh     change       -0.3738407E-08 Eh
   *** GEOMETRY OPTIMIZATION CONVERGED AFTER 68 ITERATIONS ***

 final structure:
================
81
 xtb: 6.7.1 (edcfbbe)
C           -1.22807279056461       -2.22064692912106        1.55160573982767
C           -0.57337136855040       -1.12071854621888        0.76841824893397
C            0.81168815797397       -1.06775217694424        0.71337428579309
C            1.49290954127429       -0.05142765188434        0.05162259821998
C            2.96469393805623       -0.04786876708407        0.04483150164470
C            3.67039792625207        0.88300771207024        0.85513506060821
C            2.98784401409972        1.75031746625947        1.71756539716732
C            3.67032679382196        2.61273012125238        2.56826691896016
C            5.04965890248236        2.58974222246076        2.60281043904046
C            5.75227362701735        1.72310068411541        1.76806954545035
C            5.09708156851559        0.89000601097819        0.85701820827821
C            5.81265195169115       -0.01490143130698        0.00557448183013
C            7.26169487696680        0.00517233145588       -0.01934444460347
C            8.00791493051094       -1.17034157592749        0.18036627535143
C            9.38124591863836       -1.15424328046778        0.16610176143227
C           10.06860195330365        0.04450240747427       -0.07569489874479
C           11.47176887541947        0.06421858054607       -0.10679738898004
N           12.62293784539297        0.08091932859959       -0.13273811692287
C            9.33874693061243        1.22371305222273       -0.28726762305236
C            7.96608060487678        1.20154366216029       -0.24573536075165
C            5.09408566041720       -0.94692400167164       -0.81372915374372
C            5.74154250700613       -1.76837150190198       -1.74029235633632
C            5.03807812103644       -2.67223503623834       -2.53449751396191
C            3.66374728982142       -2.74812388092877       -2.43921850444751
C            2.98431733029260       -1.89525019549849       -1.57630474364896
C            3.66782453771106       -0.98342459975603       -0.76164444844403
C            0.76201182330506        0.95281884923748       -0.59617506309983
C            1.46096893888291        2.04617674639457       -1.34663684088519
C           -0.61918223764591        0.89428497230600       -0.54938221335388
C           -1.30338033740254       -0.12331057350974        0.11384306093621
C           -2.77661651744032       -0.09900684817908        0.09204383238792
C           -3.45939207271535        1.06052628078801        0.45500990439799
C           -4.83864500886870        1.11200691393366        0.42253949598510
C           -5.56828193761598        0.00123721697183        0.00808797949051
N           -6.97080635203543        0.04935859857891       -0.03041686297102
C           -7.72827891851759        1.01211776849124       -0.66551043807919
C           -7.31865246341517        2.09542451221763       -1.43084344023452
C           -8.29576823313127        2.90101956848990       -1.98395260432317
C           -9.65069596306027        2.63805388962809       -1.79082664299285
C          -10.06455997222013        1.54867654603702       -1.04920737337039
C           -9.10116569060166        0.72357412804986       -0.48348785705829
C           -9.16393667814683       -0.47365916240246        0.30847471760598
C          -10.21116542282950       -1.22805957948743        0.82139846724662
C           -9.91430769529173       -2.34255415778461        1.58151809616943
C           -8.59316316466172       -2.70048584121245        1.84354955739649
C           -7.53419629594682       -1.96650434522657        1.34388590459814
C           -7.82604585991383       -0.85754109535501        0.56146493607872
C           -4.89531934744989       -1.15652339245410       -0.37155909748035
C           -3.51612599363437       -1.20383108949516       -0.32455435171474
H           -2.21786349955069       -1.92744589221533        1.89245940641625
H           -1.32720205267140       -3.11807083691012        0.94020236071972
H           -0.61854894133209       -2.47719406555686        2.41604001424420
H            1.38796082897552       -1.82914501166970        1.22117913772562
H            1.90842063868471        1.73450681943487        1.72971210704696
H            3.11643256141367        3.27989379342370        3.21222931513343
H            5.59305565928970        3.23122139214962        3.28066862743149
H            6.82795512941764        1.68810219600386        1.84585457854528
H            7.48689421767516       -2.09197126445495        0.39477230466884
H            9.94349032759737       -2.05960644490312        0.34564146428038
H            9.86802796309711        2.14441108840835       -0.48773811442721
H            7.41135925007429        2.10847143651640       -0.43701390706599
H            6.81105447248450       -1.69447893517679       -1.86355206491721
H            5.57691511870403       -3.30243598317045       -3.22639294998793
H            3.10948246961455       -3.44797127109230       -3.04699375237882
H            1.90614271105451       -1.92607371277338       -1.53747572837350
H            0.75879239498979        2.59286449789592       -1.97143929983668
H            2.24860304947749        1.63435928091248       -1.97612880177176
H            1.92668881607090        2.74835348764894       -0.65492252416929
H           -1.19421342094816        1.65129777713191       -1.06458850802545
H           -2.90058193738888        1.92307273577463        0.78792481038085
H           -5.35956512009219        2.00679680194837        0.73002870199252
H           -6.27153774297711        2.29799758797845       -1.59818615196480
H           -8.00297944256138        3.75186817624614       -2.58194573691543
H          -10.38452280587116        3.29303343189435       -2.23739661189834
H          -11.11478837980228        1.33728195778285       -0.91309907238258
H          -11.23533625757234       -0.94335004522812        0.63131806243621
H          -10.71467228349186       -2.94357829417970        1.98785099400965
H           -8.39294863096461       -3.56965896007125        2.45323975929622
H           -6.51404041622952       -2.24333765406153        1.56353974725265
H           -5.45919533876726       -2.01051973272842       -0.71681890980900
H           -3.00418824713582       -2.09897251633045       -0.64276896882563

          :  Hamiltonian                  GFN2-xTB          :
         :: gradient norm              0.000063239985 Eh/a0 ::
         :: HOMO-LUMO gap              0.806819729632 eV    ::
         :: SCC energy              -125.170595631524 Eh    ::
         :: -> dispersion             -0.113993945340 Eh    ::
         :: -> Gsolv                  -0.054512481747 Eh    ::
         :: repulsion energy           2.364547314852 Eh    ::

    * Orbital Energies and Occupations

         #    Occupation            Energy/Eh            Energy/eV
      -------------------------------------------------------------
         1        2.0000           -0.6774897             -18.4354
       ...           ...                  ...                  ...
       104        2.0000           -0.4128620             -11.2345
       105        2.0000           -0.4104043             -11.1677
       106        2.0000           -0.4080061             -11.1024
       107        2.0000           -0.4065370             -11.0624
       108        2.0000           -0.4062667             -11.0551
       109        2.0000           -0.4054363             -11.0325
       110        2.0000           -0.4039910             -10.9932
       111        2.0000           -0.3952551             -10.7554
       112        2.0000           -0.3838673             -10.4456
       113        2.0000           -0.3799261             -10.3383
       114        1.9749           -0.3628291              -9.8731
       115        1.0251           -0.3558757              -9.6839
       116        1.0000           -0.2948055              -8.0221 (HOMO)
       117        0.0000           -0.2651554              -7.2152 (LUMO)
       118                         -0.2495779              -6.7914
       119                         -0.2435151              -6.6264
       120                         -0.2346104              -6.3841
       121                         -0.2318273              -6.3083
       122                         -0.2311652              -6.2903
       123                         -0.2273513              -6.1865
       124                         -0.2233845              -6.0786
       125                         -0.2194495              -5.9715
       126                         -0.2123408              -5.7781
       127                         -0.2051740              -5.5831
       ...                                ...                  ...
       228                          1.1616234              31.6094
      -------------------------------------------------------------
                  HL-Gap            0.0296501 Eh            0.8068 eV

     #   Z          covCN         q      C6AA      α(0)
     1   6 C        3.758    -0.108    22.607     6.779
     2   6 C        2.965     0.010    27.797     8.648
     3   6 C        2.930    -0.045    29.109     8.848
     4   6 C        2.978     0.003    27.942     8.671
     5   6 C        2.976    -0.004    28.116     8.698
     6   6 C        2.978     0.011    27.758     8.642
     7   6 C        2.922    -0.036    28.886     8.814
     8   6 C        2.913    -0.029    28.728     8.789
     9   6 C        2.914    -0.032    28.788     8.798
    10   6 C        2.920    -0.036    28.887     8.814
    11   6 C        2.975     0.008    27.830     8.653
    12   6 C        2.971    -0.005    28.149     8.703
    13   6 C        2.972     0.019    27.585     8.615
    14   6 C        2.921    -0.031    28.765     8.795
    15   6 C        2.921    -0.023    28.586     8.768
    16   6 C        2.972     0.004    27.927     8.668
    17   6 C        1.911     0.112    28.331     8.596
    18   7 N        0.911    -0.301    27.754     7.619
    19   6 C        2.921    -0.023    28.586     8.768
    20   6 C        2.921    -0.031    28.765     8.795
    21   6 C        2.975     0.008    27.834     8.654
    22   6 C        2.920    -0.036    28.885     8.813
    23   6 C        2.914    -0.032    28.787     8.798
    24   6 C        2.913    -0.029    28.714     8.787
    25   6 C        2.921    -0.036    28.892     8.815
    26   6 C        2.978     0.010    27.790     8.647
    27   6 C        2.966     0.011    27.776     8.645
    28   6 C        3.757    -0.106    22.577     6.774
    29   6 C        2.930    -0.047    29.158     8.856
    30   6 C        2.978    -0.002    28.076     8.692
    31   6 C        2.977     0.012    27.735     8.639
    32   6 C        2.925    -0.033    28.833     8.806
    33   6 C        2.920    -0.043    29.060     8.840
    34   6 C        2.913     0.061    26.633     8.463
    35   7 N        2.802    -0.044    22.082     6.979
    36   6 C        3.076     0.048    26.851     8.496
    37   6 C        2.909    -0.051    29.266     8.871
    38   6 C        2.923    -0.035    28.867     8.811
    39   6 C        2.920    -0.042    29.042     8.837
    40   6 C        2.912    -0.034    28.857     8.809
    41   6 C        3.067    -0.018    28.397     8.738
    42   6 C        3.067    -0.018    28.397     8.738
    43   6 C        2.912    -0.034    28.857     8.809
    44   6 C        2.920    -0.042    29.042     8.837
    45   6 C        2.923    -0.035    28.867     8.811
    46   6 C        2.909    -0.051    29.266     8.871
    47   6 C        3.076     0.048    26.851     8.496
    48   6 C        2.920    -0.043    29.071     8.842
    49   6 C        2.924    -0.032    28.805     8.801
    50   1 H        0.925     0.045     2.390     2.417
    51   1 H        0.924     0.049     2.327     2.385
    52   1 H        0.925     0.045     2.381     2.413
    53   1 H        0.925     0.033     2.549     2.497
    54   1 H        0.926     0.037     2.488     2.467
    55   1 H        0.926     0.033     2.542     2.493
    56   1 H        0.926     0.032     2.560     2.502
    57   1 H        0.926     0.035     2.520     2.483
    58   1 H        0.926     0.043     2.413     2.429
    59   1 H        0.926     0.034     2.524     2.484
    60   1 H        0.926     0.035     2.522     2.483
    61   1 H        0.926     0.043     2.408     2.427
    62   1 H        0.926     0.035     2.517     2.481
    63   1 H        0.926     0.032     2.556     2.500
    64   1 H        0.926     0.034     2.535     2.490
    65   1 H        0.926     0.038     2.480     2.463
    66   1 H        0.925     0.043     2.404     2.425
    67   1 H        0.925     0.042     2.417     2.431
    68   1 H        0.925     0.049     2.327     2.386
    69   1 H        0.925     0.034     2.528     2.486
    70   1 H        0.926     0.041     2.436     2.441
    71   1 H        0.926     0.040     2.443     2.444
    72   1 H        0.926     0.031     2.572     2.508
    73   1 H        0.926     0.031     2.578     2.511
    74   1 H        0.926     0.028     2.612     2.527
    75   1 H        0.926     0.030     2.580     2.512
    76   1 H        0.926     0.030     2.580     2.512
    77   1 H        0.926     0.028     2.611     2.527
    78   1 H        0.926     0.031     2.575     2.509
    79   1 H        0.926     0.031     2.569     2.506
    80   1 H        0.926     0.041     2.434     2.440
    81   1 H        0.926     0.045     2.382     2.414

molecular dipole:
                 x           y           z       tot (Debye)
 q only:       -3.043      -0.101       0.076
   full:       -3.352      -0.108       0.085       8.527

 projected vibrational frequencies (cm⁻¹)
eigval :       -0.00    -0.00     0.00     0.00     0.00     0.00
eigval :        6.61    10.32    11.98    19.99    30.46    35.04
eigval :       42.20    50.36    66.10    72.38    74.39    77.36
eigval :       80.37    87.35    95.07   101.52   120.08   123.75
eigval :      128.83   130.69   143.21   158.30   169.84   176.86
eigval :      191.52   194.54   223.23   228.52   237.21   239.40
eigval :      242.13   267.83   270.22   280.15   308.31   342.34
eigval :      349.21   365.77   369.94   372.33   380.78   383.17
eigval :      385.19   396.51   402.11   417.91   422.12   426.34
eigval :      432.72   433.51   439.61   452.09   467.38   469.82
eigval :      475.58   516.46   518.59   522.45   526.53   533.90
eigval :      536.30   538.38   559.41   574.36   581.84   582.94
eigval :      593.54   603.77   606.99   612.09   618.57   639.44
eigval :      641.21   664.96   673.55   677.25   679.08   690.61
eigval :      701.99   703.03   706.70   720.04   736.24   747.50
eigval :      756.30   760.51   767.18   772.61   778.16   792.14
eigval :      812.49   821.23   842.52   847.31   862.95   864.51
eigval :      866.46   871.37   877.74   882.81   887.61   890.77
eigval :      893.28   895.49   897.45   900.90   902.07   906.18
eigval :      909.34   918.65   919.79   920.72   923.05   925.40
eigval :      929.95   931.21   934.88   944.26   989.42  1007.24
eigval :     1011.03  1011.77  1027.06  1028.93  1031.58  1037.95
eigval :     1067.98  1071.19  1101.22  1104.29  1108.38  1115.42
eigval :     1116.13  1133.16  1134.27  1149.58  1163.56  1174.71
eigval :     1177.98  1179.97  1180.63  1181.37  1182.01  1191.08
eigval :     1192.11  1199.02  1225.06  1231.82  1234.68  1242.50
eigval :     1243.10  1255.32  1259.13  1262.77  1263.81  1281.47
eigval :     1282.43  1298.01  1298.93  1303.37  1306.23  1311.80
eigval :     1312.15  1314.02  1350.63  1354.41  1358.08  1358.91
eigval :     1365.59  1368.47  1374.67  1394.70  1402.89  1404.55
eigval :     1409.00  1409.10  1412.36  1418.53  1424.77  1428.93
eigval :     1458.12  1470.53  1471.90  1473.64  1479.14  1480.18
eigval :     1483.11  1484.58  1486.17  1489.49  1493.85  1502.34
eigval :     1524.91  1525.76  1541.93  1544.10  1559.32  1564.22
eigval :     1571.63  1583.73  1586.68  1593.87  1595.97  1609.69
eigval :     2317.13  2992.52  2997.49  3018.43  3027.11  3039.72
eigval :     3042.35  3068.01  3068.89  3071.04  3071.30  3073.20
eigval :     3074.71  3075.06  3075.64  3076.70  3077.29  3077.75
eigval :     3083.37  3083.57  3084.08  3085.02  3085.81  3085.82
eigval :     3087.64  3089.92  3091.19  3092.39  3092.94  3094.60
eigval :     3097.78  3098.37  3098.85

   temp. (K)  partition function   enthalpy   heat capacity  entropy
                                   cal/mol     cal/K/mol   cal/K/mol   J/K/mol
 298.15  VIB  0.476E+19            23651.497    148.749    148.452
         ROT  0.108E+09              888.752      2.981     39.737
         INT  0.513E+27            24540.249    151.729    188.189
         TR   0.151E+29             1481.254      4.968     45.159
         TOT                       26021.5030   156.6976   233.3479   976.3274

       T/K    H(0)-H(T)+PV         H(T)/Eh          T*S/Eh         G(T)/Eh
   ------------------------------------------------------------------------
    298.15    0.414679E-01    0.665452E+00    0.110871E+00    0.554581E+00
   ------------------------------------------------------------------------

         :::::::::::::::::::::::::::::::::::::::::::::::::::::
         ::                  THERMODYNAMIC                  ::
         :::::::::::::::::::::::::::::::::::::::::::::::::::::
         :: total free energy        -122.251467471529 Eh   ::
         ::.................................................::
         :: total energy             -122.806048319476 Eh   ::
         :: zero point energy           0.623984041157 Eh   ::
         :: G(RRHO) w/o ZPVE           -0.069403193211 Eh   ::
         :: G(RRHO) contrib.            0.554580847946 Eh   ::
         :::::::::::::::::::::::::::::::::::::::::::::::::::::

           -------------------------------------------------
          | TOTAL ENERGY             -122.806048319476 Eh   |
          | TOTAL ENTHALPY           -122.140596373688 Eh   |
          | TOTAL FREE ENERGY        -122.251467471529 Eh   |
          | GRADIENT NORM               0.000063258270 Eh/α |
          | HOMO-LUMO GAP               0.806820679612 eV   |
           -------------------------------------------------

 * finished run on 2025/08/26 at 13:02:21.163
