   * xtb version 6.7.1 (edcfbbe) compiled by 'albert@albert-system' on 2024-07-22

   ID    Z sym.   atoms
    1    6 C      1-17, 19-34, 36-49
    2    7 N      18, 35
    3    1 H      50-81

          program call               : xtb data2507/toluene/-ph-pCzAnBzt/-ph-pCzAnBzt.xyz --gfn 2 --gbsa toluene --ohess vtight --parallel 40 --molden --ceasefiles --namespace data2507/toluene/-ph-pCzAnBzt/-ph-pCzAnBzt_toluene_S0_preOpt
      * Solvation model:               GBSA
        Solvent                        toluene
        Solvent mass                       9.2140E+01 g/mol
          :  Hamiltonian                  GFN2-xTB          :
 * total energy  :  -122.8517709 Eh     change       -0.1638853E-08 Eh
 * total energy  :  -122.8683002 Eh     change       -0.1652930E-01 Eh
 * total energy  :  -122.8721280 Eh     change       -0.3827828E-02 Eh
 * total energy  :  -122.8726763 Eh     change       -0.5482704E-03 Eh
 * total energy  :  -122.8731176 Eh     change       -0.4413346E-03 Eh
 * total energy  :  -122.8730986 Eh     change        0.1897954E-04 Eh
 * total energy  :  -122.8734331 Eh     change       -0.3345181E-03 Eh
 * total energy  :  -122.8735212 Eh     change       -0.8811699E-04 Eh
 * total energy  :  -122.8736068 Eh     change       -0.8551288E-04 Eh
 * total energy  :  -122.8736511 Eh     change       -0.4436488E-04 Eh
 * total energy  :  -122.8745279 Eh     change       -0.3214646E-05 Eh
 * total energy  :  -122.8745319 Eh     change       -0.4002847E-05 Eh
 * total energy  :  -122.8745361 Eh     change       -0.4200184E-05 Eh
 * total energy  :  -122.8745398 Eh     change       -0.3685978E-05 Eh
 * total energy  :  -122.8745423 Eh     change       -0.2537030E-05 Eh
 * total energy  :  -122.8745441 Eh     change       -0.1752127E-05 Eh
 * total energy  :  -122.8745454 Eh     change       -0.1357543E-05 Eh
 * total energy  :  -122.8745467 Eh     change       -0.1257399E-05 Eh
 * total energy  :  -122.8745467 Eh     change       -0.6179533E-08 Eh
   *** GEOMETRY OPTIMIZATION CONVERGED AFTER 68 ITERATIONS ***

 final structure:
================
81
 xtb: 6.7.1 (edcfbbe)
C           -1.03099176992691       -0.73537709141761       -2.55319263806264
C           -0.35628841364472       -0.36069149567022       -1.26655622814112
C            1.03063876098376       -0.34465234574651       -1.20244543773991
C            1.70954176438747       -0.01637746855592       -0.03794853593745
C            3.19151474770121       -0.01149489087773       -0.03087845392165
C            3.88950811484753       -1.15030396603309        0.39049596390897
C            3.20839907544288       -2.32361695270748        0.81013400532919
C            3.89165070098744       -3.43050628829592        1.20972163523184
C            5.30160270105711       -3.43433382753134        1.20386304093768
C            5.99201931857320       -2.33074280505910        0.80591971761604
C            5.31910714415912       -1.14890720167679        0.39617114547041
C            6.01373950803979       -0.00418074514832       -0.02079106214028
C            7.49244906704277       -0.00103948222252       -0.01532140944271
C            8.20137532568343       -0.05317238236829       -1.21461066105447
C            9.58124491592314       -0.05556398554782       -1.21755767205507
C           10.27616411887129       -0.00036689633421       -0.00697533506235
C           11.68752756687211       -0.00119005585720       -0.00252197996940
N           12.83593613591301       -0.00213276711664        0.00144313589731
C            9.57390820235137        0.05511690955746        1.19933729337470
C            8.19403692414754        0.05210966703967        1.18819439096827
C            5.31620138096751        1.13591700672270       -0.44515549167949
C            5.98590420594629        2.32141744406323       -0.84958462175223
C            5.29264367910530        3.42118377586285       -1.25309289707724
C            3.88282263640957        3.40907742774644       -1.27190103496892
C            3.20234673944781        2.29807750726705       -0.87918398522894
C            3.88641473341162        1.12922506529582       -0.45195441176530
C            0.99021605447227        0.30081772497609        1.11732045377541
C            1.70666579999118        0.66227600197216        2.38315960616415
C           -0.39274846077590        0.27365209844308        1.05718704512818
C           -1.07681517934364       -0.04029907715235       -0.11404516331931
C           -2.55322585432556       -0.02712566075733       -0.08787374319253
C           -3.24252692622529       -0.84884478975823        0.79965730881401
C           -4.62289944255505       -0.83472289174233        0.85110656462182
C           -5.34257930007244        0.01027110379898        0.01172475128555
N           -6.74683860021006        0.02288807559596        0.05614117618279
C           -7.54006810359219        1.13905429651669        0.22475495180999
C           -7.17163359483263        2.46175549017130        0.42869848626526
C           -8.17799373438921        3.39326982131516        0.59795329242440
C           -9.52204317997268        3.02474848939313        0.57453165674875
C           -9.89430020567370        1.70771669995375        0.39174631198004
C           -8.90078821542983        0.75208936294222        0.21884205010627
C           -8.91824214907032       -0.67142770275381        0.02842508615556
C           -9.93584275876279       -1.61078752633388       -0.08277948169125
C           -9.59698378998078       -2.93339732053808       -0.28885452324950
C           -8.26299666108463       -3.32363318121953       -0.39443644309901
C           -7.23323187031748       -2.40851600522171       -0.28802615590234
C           -7.56695193631874       -1.08023155112280       -0.06189325438595
C           -4.66115095527850        0.84287039992450       -0.87094474183175
C           -3.28078134960936        0.82217637090326       -0.91662825310697
H           -2.01859557231765       -1.15317458271447       -2.37312157316530
H           -1.14444147547685        0.14161906453381       -3.19130962665951
H           -0.43109156535743       -1.46349002531837       -3.09562931749769
H            1.60373178410968       -0.59776234908183       -2.08418080970089
H            2.12818834525032       -2.31863898487276        0.80106562044428
H            3.36141789006206       -4.31649601836347        1.52766964780458
H            5.82938059322356       -4.32471415998069        1.51392036672523
H            7.07201606990428       -2.34342481335821        0.79286658903230
H            7.65983366187359       -0.09740135232852       -2.14816563765575
H           10.13005032861533       -0.09970636716368       -2.14704635867801
H           10.11727103256102        0.09929886525469        2.13202730817568
H            7.64706473488760        0.09593912011798        2.11858935257740
H            7.06568915207751        2.33995445399630       -0.82765421455006
H            5.81798049925523        4.31466926859916       -1.55835978658904
H            3.35039624577293        4.29200782932241       -1.59461506321572
H            2.12224838425144        2.28596030241823       -0.88138220289875
H            2.30843259317298       -0.17629400634967        2.73349983649314
H            0.99968092592281        0.93433853433346        3.16306147006056
H            2.38061935557335        1.50119192747359        2.21129882480451
H           -0.96629486933005        0.51965676931447        1.94047935403240
H           -2.68795074702749       -1.50862583962818        1.45135631680418
H           -5.15096590521161       -1.46921472879254        1.54779470309959
H           -6.13265982555340        2.75365670304421        0.46350145936971
H           -7.91752423027263        4.42994753652869        0.75579936963087
H          -10.27973052316043        3.78299029870156        0.70901338854010
H          -10.93565784347749        1.42142327028686        0.38751915465351
H          -10.97016859035359       -1.30771269126723       -0.01418633576022
H          -10.37369660544083       -3.67907318916250       -0.37705869697342
H           -8.02950456986164       -4.36419393656490       -0.56822770344929
H           -6.20320580209920       -2.71728162914780       -0.38609617813357
H           -5.21963275654115        1.49524212544465       -1.52602924235206
H           -2.75854058636937        1.47723422003901       -1.59777546937256

          :  Hamiltonian                  GFN2-xTB          :
         :: gradient norm              0.000156874851 Eh/a0 ::
         :: HOMO-LUMO gap              2.079105429376 eV    ::
         :: SCC energy              -125.258935073061 Eh    ::
         :: -> dispersion             -0.113952621100 Eh    ::
         :: -> Gsolv                  -0.053585586445 Eh    ::
         :: repulsion energy           2.384388366535 Eh    ::

    * Orbital Energies and Occupations

         #    Occupation            Energy/Eh            Energy/eV
      -------------------------------------------------------------
         1        2.0000           -0.6750269             -18.3684
       ...           ...                  ...                  ...
       103        2.0000           -0.4171326             -11.3508
       104        2.0000           -0.4114948             -11.1973
       105        2.0000           -0.4113320             -11.1929
       106        2.0000           -0.4087248             -11.1220
       107        2.0000           -0.4066547             -11.0656
       108        2.0000           -0.4046867             -11.0121
       109        2.0000           -0.4037233             -10.9859
       110        2.0000           -0.4020653             -10.9408
       111        2.0000           -0.3936361             -10.7114
       112        2.0000           -0.3817153             -10.3870
       113        2.0000           -0.3778369             -10.2815
       114        2.0000           -0.3623068              -9.8589
       115        2.0000           -0.3608294              -9.8187 (HOMO)
       116                         -0.2844237              -7.7396 (LUMO)
       117                         -0.2726708              -7.4197
       118                         -0.2462498              -6.7008
       119                         -0.2426839              -6.6038
       120                         -0.2399549              -6.5295
       121                         -0.2339553              -6.3662
       122                         -0.2298332              -6.2541
       123                         -0.2232900              -6.0760
       124                         -0.2212446              -6.0204
       125                         -0.2174034              -5.9158
       126                         -0.2134829              -5.8092
       ...                                ...                  ...
       228                          1.1579825              31.5103
      -------------------------------------------------------------
                  HL-Gap            0.0764057 Eh            2.0791 eV

     #   Z          covCN         q      C6AA      α(0)
     1   6 C        3.757    -0.107    22.592     6.777
     2   6 C        2.967     0.008    27.829     8.653
     3   6 C        2.929    -0.046    29.133     8.852
     4   6 C        2.981     0.002    27.987     8.678
     5   6 C        2.978     0.002    27.985     8.677
     6   6 C        2.984     0.007    27.860     8.658
     7   6 C        2.918    -0.033    28.828     8.805
     8   6 C        2.914    -0.031    28.769     8.795
     9   6 C        2.914    -0.030    28.743     8.791
    10   6 C        2.917    -0.036    28.893     8.814
    11   6 C        2.983     0.007    27.861     8.658
    12   6 C        2.977    -0.009    28.246     8.718
    13   6 C        2.976     0.029    27.341     8.577
    14   6 C        2.923    -0.027    28.678     8.782
    15   6 C        2.924    -0.019    28.481     8.752
    16   6 C        2.973     0.013    27.714     8.635
    17   6 C        1.912     0.118    28.193     8.575
    18   7 N        0.911    -0.277    27.147     7.536
    19   6 C        2.924    -0.019    28.481     8.752
    20   6 C        2.922    -0.027    28.678     8.782
    21   6 C        2.983     0.007    27.863     8.659
    22   6 C        2.917    -0.036    28.894     8.815
    23   6 C        2.914    -0.030    28.743     8.791
    24   6 C        2.914    -0.031    28.767     8.795
    25   6 C        2.918    -0.033    28.828     8.805
    26   6 C        2.984     0.006    27.869     8.660
    27   6 C        2.967     0.009    27.817     8.651
    28   6 C        3.757    -0.105    22.555     6.771
    29   6 C        2.930    -0.047    29.167     8.857
    30   6 C        2.979    -0.004    28.121     8.699
    31   6 C        2.977     0.012    27.745     8.640
    32   6 C        2.925    -0.034    28.839     8.807
    33   6 C        2.920    -0.043    29.069     8.842
    34   6 C        2.913     0.061    26.635     8.463
    35   7 N        2.802    -0.048    22.170     6.993
    36   6 C        3.077     0.048    26.847     8.495
    37   6 C        2.909    -0.052    29.295     8.875
    38   6 C        2.924    -0.035    28.883     8.813
    39   6 C        2.919    -0.043    29.075     8.842
    40   6 C        2.912    -0.035    28.878     8.812
    41   6 C        3.067    -0.019    28.423     8.742
    42   6 C        3.067    -0.019    28.423     8.742
    43   6 C        2.912    -0.035    28.878     8.812
    44   6 C        2.919    -0.043    29.075     8.842
    45   6 C        2.924    -0.035    28.883     8.813
    46   6 C        2.909    -0.052    29.295     8.875
    47   6 C        3.077     0.048    26.847     8.495
    48   6 C        2.920    -0.043    29.078     8.843
    49   6 C        2.924    -0.032    28.802     8.801
    50   1 H        0.925     0.042     2.419     2.432
    51   1 H        0.924     0.048     2.344     2.394
    52   1 H        0.925     0.044     2.395     2.420
    53   1 H        0.925     0.030     2.592     2.518
    54   1 H        0.926     0.035     2.519     2.482
    55   1 H        0.926     0.031     2.573     2.508
    56   1 H        0.926     0.030     2.581     2.512
    57   1 H        0.926     0.029     2.603     2.523
    58   1 H        0.926     0.046     2.365     2.405
    59   1 H        0.926     0.043     2.414     2.430
    60   1 H        0.926     0.043     2.413     2.429
    61   1 H        0.926     0.047     2.361     2.403
    62   1 H        0.926     0.029     2.603     2.523
    63   1 H        0.926     0.030     2.580     2.512
    64   1 H        0.926     0.031     2.573     2.508
    65   1 H        0.926     0.035     2.521     2.483
    66   1 H        0.925     0.046     2.374     2.409
    67   1 H        0.925     0.042     2.422     2.434
    68   1 H        0.925     0.044     2.399     2.422
    69   1 H        0.925     0.031     2.577     2.510
    70   1 H        0.926     0.039     2.464     2.455
    71   1 H        0.926     0.039     2.459     2.452
    72   1 H        0.926     0.029     2.597     2.520
    73   1 H        0.926     0.029     2.600     2.522
    74   1 H        0.926     0.027     2.635     2.539
    75   1 H        0.926     0.029     2.604     2.523
    76   1 H        0.926     0.029     2.603     2.523
    77   1 H        0.926     0.027     2.635     2.538
    78   1 H        0.926     0.029     2.600     2.522
    79   1 H        0.926     0.029     2.602     2.522
    80   1 H        0.926     0.040     2.450     2.448
    81   1 H        0.926     0.042     2.426     2.435

molecular dipole:
                 x           y           z       tot (Debye)
 q only:       -1.109       0.009      -0.055
   full:       -1.431       0.012      -0.062       3.641

 projected vibrational frequencies (cm⁻¹)
eigval :       -0.00    -0.00    -0.00     0.00     0.00     0.00
eigval :      -40.00     9.17    12.05    13.90    22.48    24.14
eigval :       32.74    41.77    45.67    54.25    70.91    73.84
eigval :       76.56    81.66    89.87    94.73   104.12   105.29
eigval :      118.72   122.47   131.49   144.91   168.49   175.41
eigval :      187.65   190.40   211.70   213.86   230.63   236.78
eigval :      242.82   262.78   271.17   280.75   304.50   337.39
eigval :      348.54   361.17   375.94   379.24   387.65   390.98
eigval :      393.97   401.78   418.77   421.89   426.83   432.88
eigval :      437.79   445.38   447.69   453.14   457.17   468.04
eigval :      478.21   517.54   520.85   528.93   534.06   536.01
eigval :      537.88   541.58   564.25   582.00   583.97   586.34
eigval :      595.20   609.45   611.48   618.91   633.01   644.35
eigval :      645.04   671.45   674.29   686.33   691.34   697.22
eigval :      701.41   705.24   708.22   737.15   739.64   756.64
eigval :      768.60   773.93   778.07   779.64   780.12   797.40
eigval :      816.03   823.29   864.96   867.37   870.70   872.81
eigval :      874.94   877.90   880.88   885.60   890.14   897.52
eigval :      898.56   901.34   902.83   918.04   919.90   919.99
eigval :      920.69   921.57   924.27   926.06   929.93   930.45
eigval :      931.41   932.09   932.34   934.99   989.35  1009.82
eigval :     1011.17  1018.06  1027.23  1029.72  1031.42  1038.25
eigval :     1068.42  1071.75  1079.34  1079.96  1115.23  1117.21
eigval :     1131.72  1132.27  1133.76  1150.06  1173.77  1175.57
eigval :     1179.41  1179.51  1181.39  1183.43  1185.69  1191.14
eigval :     1197.58  1206.30  1228.76  1228.99  1235.76  1241.10
eigval :     1245.20  1255.43  1258.48  1260.98  1264.42  1265.64
eigval :     1297.52  1301.91  1302.83  1306.10  1306.55  1311.06
eigval :     1338.07  1348.05  1355.29  1360.87  1362.28  1378.19
eigval :     1384.21  1391.19  1396.97  1402.63  1403.48  1411.14
eigval :     1419.68  1427.64  1427.69  1431.99  1445.24  1471.02
eigval :     1473.65  1474.51  1477.57  1479.31  1483.71  1486.84
eigval :     1487.27  1491.49  1510.09  1524.74  1529.78  1541.38
eigval :     1544.88  1556.41  1563.99  1573.00  1584.93  1587.31
eigval :     1596.12  1597.14  1601.50  1606.68  1613.33  1621.17
eigval :     2360.40  2992.63  2997.40  3012.80  3028.59  3038.99
eigval :     3039.68  3064.78  3066.09  3069.29  3069.62  3070.05
eigval :     3070.08  3074.71  3075.31  3075.66  3075.75  3075.94
eigval :     3080.03  3081.30  3081.82  3082.78  3083.60  3084.23
eigval :     3084.64  3087.94  3089.49  3089.66  3090.85  3091.17
eigval :     3091.75  3092.84  3093.83

   temp. (K)  partition function   enthalpy   heat capacity  entropy
                                   cal/mol     cal/K/mol   cal/K/mol   J/K/mol
 298.15  VIB  0.246E+19            23209.923    145.517    145.500
         ROT  0.107E+09              888.752      2.981     39.727
         INT  0.263E+27            24098.676    148.498    185.227
         TR   0.151E+29             1481.254      4.968     45.159
         TOT                       25579.9298   153.4662   230.3857   963.9336

       T/K    H(0)-H(T)+PV         H(T)/Eh          T*S/Eh         G(T)/Eh
   ------------------------------------------------------------------------
    298.15    0.407642E-01    0.666900E+00    0.109464E+00    0.557436E+00
   ------------------------------------------------------------------------

         :::::::::::::::::::::::::::::::::::::::::::::::::::::
         ::                  THERMODYNAMIC                  ::
         :::::::::::::::::::::::::::::::::::::::::::::::::::::
         :: total free energy        -122.317110696622 Eh   ::
         ::.................................................::
         :: total energy             -122.874546702397 Eh   ::
         :: zero point energy           0.626135456102 Eh   ::
         :: G(RRHO) w/o ZPVE           -0.068699450327 Eh   ::
         :: G(RRHO) contrib.            0.557436005775 Eh   ::
         :::::::::::::::::::::::::::::::::::::::::::::::::::::

           -------------------------------------------------
          | TOTAL ENERGY             -122.874546702397 Eh   |
          | TOTAL ENTHALPY           -122.207647033461 Eh   |
          | TOTAL FREE ENERGY        -122.317110696622 Eh   |
          | GRADIENT NORM               0.000156874605 Eh/α |
          | HOMO-LUMO GAP               2.079105181531 eV   |
           -------------------------------------------------

 * finished run on 2025/08/26 at 12:58:07.605
