   * xtb version 6.7.1 (edcfbbe) compiled by 'albert@albert-system' on 2024-07-22

   ID    Z sym.   atoms
    1    6 C      1-17, 19-34, 36-49
    2    7 N      18, 35
    3    1 H      50-81

          program call               : xtb data2507/toluene/-ph-pCzAnBzt/-ph-pCzAnBzt_toluene_S0_crest.xyz --gfn 2 --gbsa toluene --ohess vtight --parallel 40 --molden --ceasefiles --namespace data2507/toluene/-ph-pCzAnBzt/-ph-pCzAnBzt_toluene_S0_finalOpt
      * Solvation model:               GBSA
        Solvent                        toluene
        Solvent mass                       9.2140E+01 g/mol
          :  Hamiltonian                  GFN2-xTB          :
 * total energy  :  -122.8745757 Eh     change       -0.1252261E-08 Eh
 * total energy  :  -122.8746050 Eh     change       -0.2929468E-04 Eh
 * total energy  :  -122.8746168 Eh     change       -0.1177780E-04 Eh
 * total energy  :  -122.8746206 Eh     change       -0.3844855E-05 Eh
 * total energy  :  -122.8746307 Eh     change       -0.1006567E-04 Eh
 * total energy  :  -122.8746363 Eh     change       -0.5576428E-05 Eh
 * total energy  :  -122.8746400 Eh     change       -0.3768395E-05 Eh
 * total energy  :  -122.8746440 Eh     change       -0.4000821E-05 Eh
 * total energy  :  -122.8746466 Eh     change       -0.2575317E-05 Eh
 * total energy  :  -122.8746488 Eh     change       -0.2170223E-05 Eh
 * total energy  :  -122.8746538 Eh     change       -0.1219409E-05 Eh
 * total energy  :  -122.8746548 Eh     change       -0.9931318E-06 Eh
 * total energy  :  -122.8746553 Eh     change       -0.4961653E-06 Eh
 * total energy  :  -122.8746556 Eh     change       -0.3281769E-06 Eh
 * total energy  :  -122.8746560 Eh     change       -0.3832796E-06 Eh
 * total energy  :  -122.8746564 Eh     change       -0.3579108E-06 Eh
 * total energy  :  -122.8746567 Eh     change       -0.3682256E-06 Eh
 * total energy  :  -122.8746571 Eh     change       -0.4223989E-06 Eh
 * total energy  :  -122.8746571 Eh     change       -0.6142358E-08 Eh
   *** GEOMETRY OPTIMIZATION CONVERGED AFTER 22 ITERATIONS ***

 final structure:
================
81
 xtb: 6.7.1 (edcfbbe)
C           -1.25077891114022       -1.97609689114807        1.85168380175046
C           -0.57879297274932       -0.99123945253649        0.94076791791428
C            0.80826782342443       -0.94288578087268        0.89410317668717
C            1.48662937146328       -0.03944734870828        0.08887951500987
C            2.96883552727723       -0.03790145154368        0.06897883264586
C            3.67785296530365        0.77223130316791        0.96460630954247
C            3.00662381238853        1.59717927945192        1.90566578553475
C            3.69892607507846        2.37231582314391        2.78395405250520
C            5.10873572393924        2.35771977600430        2.78276177931856
C            5.78961492299389        1.58168975580866        1.89535780835343
C            5.10751428281761        0.77629066973654        0.94479284967494
C            5.79170766418400       -0.02332656725302        0.01666744690895
C            7.26860488380847       -0.00807228758343       -0.01932395208863
C            7.99718068625054       -1.13537536740188        0.35916296888447
C            9.37640850211879       -1.12885910654137        0.32168146812612
C           10.05195256910159        0.01817239961810       -0.10186761042057
C           11.46212271204255        0.03099399523821       -0.14827156183681
N           12.60985381824753        0.04230375242435       -0.18734081062513
C            9.33102188107542        1.15271305301502       -0.48209337431208
C            7.95218524138398        1.13346485949466       -0.43726187113543
C            5.08191745386495       -0.83497518400017       -0.88156987147723
C            5.73634715548977       -1.63389127864575       -1.85673770309179
C            5.03118146537169       -2.41769853870244       -2.71792287372810
C            3.62261029494432       -2.44711653491991       -2.66651072338408
C            2.95551395845251       -1.67934874594221       -1.76265411196915
C            3.65257869878726       -0.84667798845249       -0.84746284033984
C            0.76606028695187        0.86679716817194       -0.69378978406486
C            1.48130412721503        1.85915534677424       -1.55973905876948
C           -0.61655161964077        0.82196444537198       -0.64422567201195
C           -1.30091836908334       -0.09701237139627        0.14722345682548
C           -2.77640500186219       -0.08050201605816        0.11679965834183
C           -3.46691878466727        1.09278163533975        0.40960850366809
C           -4.84683638998738        1.13246097643473        0.36781143141454
C           -5.56637117552572       -0.00311606866097        0.00739445565038
N           -6.96926687754095        0.03462147008444       -0.04523545197235
C           -7.72741872027917        0.96751360312193       -0.72320341101983
C           -7.31953745030414        2.02232650260955       -1.52821754183994
C           -8.29724215803100        2.80159181934413       -2.11652090791781
C           -9.65221280358476        2.54016579040956       -1.92056305591932
C          -10.06442749849527        1.47826377879584       -1.14025032219572
C           -9.10003978649931        0.67973603557202       -0.53826465260794
C           -9.16249586845195       -0.48568960732926        0.29868224967866
C          -10.21038431819642       -1.22603757200735        0.83147745527576
C           -9.91477611216172       -2.30916984683935        1.63516363880970
C           -8.59379005307417       -2.64959930579386        1.92101795144721
C           -7.53461575895659       -1.92911824317376        1.40297459821832
C           -7.82471558323780       -0.85228111636614        0.57634355406242
C           -4.88370661591596       -1.17542846842644       -0.30378699513034
C           -3.50449194905212       -1.21217357227237       -0.24031190102637
H           -2.23292321923555       -1.62251368248181        2.15652042825842
H           -1.37473319812065       -2.93635118306814        1.35013491670905
H           -0.64317786969070       -2.14289745140369        2.73902038148230
H            1.38141948660818       -1.62694423864029        1.50527848310146
H            1.92641734710035        1.59260892723826        1.90983691370732
H            3.17632003503903        2.99687904693274        3.49388185210826
H            5.64461155506080        2.96550551139882        3.49754809253519
H            6.86945244245583        1.56639387950281        1.90944681956678
H            7.47127811654552       -2.01934070987913        0.68897630912572
H            9.94001324517166       -2.00218230077523        0.61643204151529
H            9.85995506229188        2.03615352293222       -0.80912709328724
H            7.39126680066509        2.00709023111341       -0.73535930970125
H            6.81465320001920       -1.60787119224495       -1.91057472071076
H            5.54651327299846       -3.02043181080836       -3.45184310100167
H            3.08043268675669       -3.07714697682628       -3.35664337801638
H            1.87596815222024       -1.68650555903889       -1.72648756981730
H            0.77256307111858        2.47581577547020       -2.10699842172267
H            2.12513351482306        1.34668989895836       -2.27421036564390
H            2.11377147901199        2.50682021699058       -0.95273989259747
H           -1.18997439971360        1.50995079734313       -1.25035046740749
H           -2.91411469888011        1.97668482502578        0.69351033530830
H           -5.37521556122838        2.03889639791983        0.62426706111487
H           -6.27259310707030        2.22354752908215       -1.69869653816671
H           -8.00489779989197        3.63011812569593       -2.74542262058471
H          -10.38652028339432        3.17456189050665       -2.39534126446381
H          -11.11435233447497        1.26671077288701       -1.00124436634066
H          -11.23430983456976       -0.95387552627268        0.62203476901110
H          -10.71531429764543       -2.89914958763759        2.05721426282573
H           -8.39385262755007       -3.49389013532039        2.56493063321366
H           -6.51514825783886       -2.19205126995111        1.64221538879482
H           -5.43944271252364       -2.05049179101125       -0.60701893238771
H           -2.98300199299638       -2.12202660729583       -0.49672950969108

          :  Hamiltonian                  GFN2-xTB          :
         :: gradient norm              0.000094541253 Eh/a0 ::
         :: HOMO-LUMO gap              2.049025086490 eV    ::
         :: SCC energy              -125.258682173953 Eh    ::
         :: -> dispersion             -0.114062976012 Eh    ::
         :: -> Gsolv                  -0.053515300501 Eh    ::
         :: repulsion energy           2.384025027086 Eh    ::

    * Orbital Energies and Occupations

         #    Occupation            Energy/Eh            Energy/eV
      -------------------------------------------------------------
         1        2.0000           -0.6750635             -18.3694
       ...           ...                  ...                  ...
       103        2.0000           -0.4172478             -11.3539
       104        2.0000           -0.4113071             -11.1922
       105        2.0000           -0.4110843             -11.1862
       106        2.0000           -0.4088100             -11.1243
       107        2.0000           -0.4066322             -11.0650
       108        2.0000           -0.4047258             -11.0132
       109        2.0000           -0.4037270             -10.9860
       110        2.0000           -0.4021057             -10.9419
       111        2.0000           -0.3935189             -10.7082
       112        2.0000           -0.3818645             -10.3911
       113        2.0000           -0.3779227             -10.2838
       114        2.0000           -0.3622523              -9.8574
       115        2.0000           -0.3606671              -9.8143 (HOMO)
       116                         -0.2853668              -7.7652 (LUMO)
       117                         -0.2716552              -7.3921
       118                         -0.2468398              -6.7169
       119                         -0.2424198              -6.5966
       120                         -0.2403872              -6.5413
       121                         -0.2340263              -6.3682
       122                         -0.2295124              -6.2453
       123                         -0.2232968              -6.0762
       124                         -0.2213584              -6.0235
       125                         -0.2173733              -5.9150
       126                         -0.2132914              -5.8040
       ...                                ...                  ...
       228                          1.1584187              31.5222
      -------------------------------------------------------------
                  HL-Gap            0.0753003 Eh            2.0490 eV

     #   Z          covCN         q      C6AA      α(0)
     1   6 C        3.757    -0.107    22.589     6.776
     2   6 C        2.966     0.008    27.829     8.653
     3   6 C        2.929    -0.046    29.134     8.852
     4   6 C        2.981     0.002    27.985     8.678
     5   6 C        2.978     0.002    27.978     8.676
     6   6 C        2.984     0.007    27.864     8.659
     7   6 C        2.918    -0.033    28.829     8.805
     8   6 C        2.914    -0.031    28.768     8.795
     9   6 C        2.914    -0.030    28.743     8.791
    10   6 C        2.916    -0.036    28.898     8.815
    11   6 C        2.983     0.007    27.859     8.658
    12   6 C        2.976    -0.009    28.247     8.718
    13   6 C        2.976     0.029    27.350     8.578
    14   6 C        2.922    -0.027    28.680     8.782
    15   6 C        2.924    -0.019    28.486     8.753
    16   6 C        2.974     0.013    27.718     8.636
    17   6 C        1.912     0.118    28.195     8.575
    18   7 N        0.911    -0.277    27.160     7.537
    19   6 C        2.924    -0.019    28.485     8.752
    20   6 C        2.923    -0.027    28.680     8.782
    21   6 C        2.983     0.007    27.860     8.658
    22   6 C        2.917    -0.036    28.902     8.816
    23   6 C        2.914    -0.030    28.744     8.791
    24   6 C        2.914    -0.031    28.767     8.795
    25   6 C        2.918    -0.033    28.828     8.805
    26   6 C        2.984     0.007    27.865     8.659
    27   6 C        2.967     0.009    27.818     8.651
    28   6 C        3.757    -0.105    22.553     6.771
    29   6 C        2.931    -0.047    29.169     8.857
    30   6 C        2.979    -0.004    28.122     8.699
    31   6 C        2.977     0.011    27.755     8.642
    32   6 C        2.925    -0.034    28.844     8.808
    33   6 C        2.920    -0.043    29.080     8.843
    34   6 C        2.913     0.061    26.636     8.463
    35   7 N        2.802    -0.048    22.161     6.992
    36   6 C        3.076     0.048    26.849     8.495
    37   6 C        2.909    -0.052    29.294     8.875
    38   6 C        2.924    -0.036    28.884     8.813
    39   6 C        2.919    -0.043    29.073     8.842
    40   6 C        2.912    -0.035    28.877     8.812
    41   6 C        3.067    -0.019    28.421     8.742
    42   6 C        3.067    -0.019    28.421     8.742
    43   6 C        2.912    -0.035    28.877     8.812
    44   6 C        2.919    -0.043    29.073     8.842
    45   6 C        2.924    -0.035    28.884     8.813
    46   6 C        2.909    -0.052    29.295     8.875
    47   6 C        3.076     0.048    26.850     8.496
    48   6 C        2.920    -0.044    29.086     8.844
    49   6 C        2.924    -0.032    28.808     8.802
    50   1 H        0.925     0.042     2.418     2.431
    51   1 H        0.924     0.048     2.345     2.395
    52   1 H        0.925     0.044     2.397     2.421
    53   1 H        0.925     0.030     2.592     2.518
    54   1 H        0.926     0.035     2.521     2.483
    55   1 H        0.926     0.031     2.573     2.508
    56   1 H        0.926     0.030     2.580     2.512
    57   1 H        0.926     0.030     2.593     2.518
    58   1 H        0.926     0.047     2.361     2.403
    59   1 H        0.926     0.042     2.417     2.431
    60   1 H        0.926     0.042     2.416     2.431
    61   1 H        0.926     0.047     2.358     2.401
    62   1 H        0.926     0.030     2.591     2.517
    63   1 H        0.926     0.030     2.580     2.512
    64   1 H        0.926     0.031     2.573     2.508
    65   1 H        0.926     0.035     2.522     2.483
    66   1 H        0.925     0.042     2.423     2.434
    67   1 H        0.925     0.044     2.393     2.419
    68   1 H        0.925     0.045     2.383     2.414
    69   1 H        0.925     0.031     2.575     2.509
    70   1 H        0.926     0.039     2.464     2.455
    71   1 H        0.926     0.039     2.460     2.453
    72   1 H        0.926     0.029     2.596     2.520
    73   1 H        0.926     0.029     2.600     2.521
    74   1 H        0.926     0.027     2.634     2.538
    75   1 H        0.926     0.029     2.602     2.523
    76   1 H        0.926     0.029     2.603     2.523
    77   1 H        0.926     0.027     2.634     2.538
    78   1 H        0.926     0.029     2.597     2.520
    79   1 H        0.926     0.030     2.591     2.517
    80   1 H        0.926     0.040     2.451     2.448
    81   1 H        0.926     0.042     2.423     2.434

molecular dipole:
                 x           y           z       tot (Debye)
 q only:       -1.140      -0.069       0.088
   full:       -1.465      -0.077       0.096       3.737

 projected vibrational frequencies (cm⁻¹)
eigval :       -0.00    -0.00    -0.00     0.00     0.00     0.00
eigval :        9.55    11.36    12.12    21.38    27.96    33.81
eigval :       42.08    43.01    54.64    70.91    75.11    76.98
eigval :       83.70    86.07    93.74   105.47   107.67   120.01
eigval :      124.72   128.10   131.22   144.75   169.62   176.48
eigval :      187.94   188.80   213.00   223.78   231.95   237.20
eigval :      240.87   263.48   272.11   279.51   306.28   343.58
eigval :      352.32   361.65   374.45   382.63   385.56   390.93
eigval :      394.04   399.23   414.92   422.23   427.23   433.74
eigval :      441.96   446.05   447.91   453.36   458.30   468.73
eigval :      479.33   517.76   519.98   528.11   533.99   536.65
eigval :      539.11   542.06   564.66   582.06   583.95   586.57
eigval :      596.29   608.30   611.14   617.18   634.17   644.25
eigval :      644.79   671.25   674.21   686.35   692.48   697.10
eigval :      701.42   705.31   709.55   737.21   740.06   756.92
eigval :      766.35   771.70   774.88   778.49   779.52   797.42
eigval :      814.35   825.15   864.03   866.66   868.85   872.00
eigval :      873.93   876.24   882.71   885.38   889.15   897.60
eigval :      898.71   899.96   901.69   914.54   917.19   917.94
eigval :      919.62   920.29   924.10   927.55   927.58   928.61
eigval :      930.09   930.53   931.94   936.56   989.64  1009.65
eigval :     1011.16  1017.29  1027.01  1031.00  1032.91  1038.79
eigval :     1068.52  1071.54  1079.29  1080.03  1115.75  1117.40
eigval :     1130.53  1133.50  1134.14  1150.97  1174.34  1175.87
eigval :     1179.29  1180.37  1182.12  1182.81  1184.09  1191.75
eigval :     1198.98  1206.07  1227.25  1229.66  1235.49  1241.25
eigval :     1245.30  1256.99  1257.99  1259.59  1265.07  1265.47
eigval :     1297.95  1301.51  1302.74  1306.29  1307.09  1311.62
eigval :     1337.38  1348.48  1355.55  1360.78  1361.97  1377.96
eigval :     1383.54  1391.39  1396.97  1404.15  1404.51  1411.73
eigval :     1419.54  1427.40  1427.43  1431.43  1444.87  1470.80
eigval :     1474.68  1474.71  1479.62  1480.98  1486.18  1486.62
eigval :     1487.34  1490.98  1509.93  1524.54  1528.86  1540.82
eigval :     1544.27  1556.02  1563.61  1573.18  1583.97  1587.18
eigval :     1595.16  1596.96  1601.81  1606.85  1613.22  1621.22
eigval :     2359.94  2993.91  2998.47  3013.44  3028.59  3038.74
eigval :     3040.46  3065.15  3066.35  3069.62  3069.97  3070.17
eigval :     3070.55  3075.20  3075.91  3076.30  3076.47  3076.77
eigval :     3079.31  3080.66  3082.01  3083.55  3084.41  3085.37
eigval :     3086.12  3089.20  3090.27  3090.32  3090.51  3091.65
eigval :     3092.47  3092.78  3094.62

   temp. (K)  partition function   enthalpy   heat capacity  entropy
                                   cal/mol     cal/K/mol   cal/K/mol   J/K/mol
 298.15  VIB  0.523E+19            23613.223    147.419    148.313
         ROT  0.107E+09              888.752      2.981     39.729
         INT  0.562E+27            24501.975    150.400    188.041
         TR   0.151E+29             1481.254      4.968     45.159
         TOT                       25983.2293   155.3684   233.2001   975.7093

       T/K    H(0)-H(T)+PV         H(T)/Eh          T*S/Eh         G(T)/Eh
   ------------------------------------------------------------------------
    298.15    0.414069E-01    0.667898E+00    0.110801E+00    0.557097E+00
   ------------------------------------------------------------------------

         :::::::::::::::::::::::::::::::::::::::::::::::::::::
         ::                  THERMODYNAMIC                  ::
         :::::::::::::::::::::::::::::::::::::::::::::::::::::
         :: total free energy        -122.317560393139 Eh   ::
         ::.................................................::
         :: total energy             -122.874657154648 Eh   ::
         :: zero point energy           0.626490751955 Eh   ::
         :: G(RRHO) w/o ZPVE           -0.069393990446 Eh   ::
         :: G(RRHO) contrib.            0.557096761509 Eh   ::
         :::::::::::::::::::::::::::::::::::::::::::::::::::::

           -------------------------------------------------
          | TOTAL ENERGY             -122.874657154648 Eh   |
          | TOTAL ENTHALPY           -122.206759491169 Eh   |
          | TOTAL FREE ENERGY        -122.317560393139 Eh   |
          | GRADIENT NORM               0.000094566513 Eh/α |
          | HOMO-LUMO GAP               2.049025295125 eV   |
           -------------------------------------------------

 * finished run on 2025/08/26 at 13:02:12.522
