   * xtb version 6.7.1 (edcfbbe) compiled by 'albert@albert-system' on 2024-07-22

   ID    Z sym.   atoms
    1    6 C      1-6, 8-13, 15-23
    2    8 O      7
    3    7 N      14, 24
    4    1 H      25-38

          program call               : xtb data2507/toluene/PXZ-QL/PXZ-QL_toluene_T1_crest.xyz --gfn 2 --uhf 2 --gbsa toluene --ohess vtight --parallel 40 --molden --ceasefiles --namespace data2507/toluene/PXZ-QL/PXZ-QL_toluene_T1_finalOpt
      * Solvation model:               GBSA
        Solvent                        toluene
        Solvent mass                       9.2140E+01 g/mol
          :  Hamiltonian                  GFN2-xTB          :
 * total energy  :   -61.9826671 Eh     change       -0.1112482E-07 Eh
 * total energy  :   -61.9827020 Eh     change       -0.3491504E-04 Eh
 * total energy  :   -61.9827166 Eh     change       -0.1465218E-04 Eh
 * total energy  :   -61.9827199 Eh     change       -0.3260217E-05 Eh
 * total energy  :   -61.9827224 Eh     change       -0.2495968E-05 Eh
 * total energy  :   -61.9827247 Eh     change       -0.2293303E-05 Eh
 * total energy  :   -61.9827273 Eh     change       -0.2603406E-05 Eh
 * total energy  :   -61.9827299 Eh     change       -0.2630770E-05 Eh
 * total energy  :   -61.9827324 Eh     change       -0.2439022E-05 Eh
 * total energy  :   -61.9827347 Eh     change       -0.2344538E-05 Eh
 * total energy  :   -61.9827373 Eh     change       -0.2572789E-05 Eh
 * total energy  :   -61.9827404 Eh     change       -0.3084597E-05 Eh
 * total energy  :   -61.9827427 Eh     change       -0.2307319E-05 Eh
 * total energy  :   -61.9827438 Eh     change       -0.1158317E-05 Eh
 * total energy  :   -61.9827445 Eh     change       -0.6169375E-06 Eh
 * total energy  :   -61.9827448 Eh     change       -0.3456006E-06 Eh
 * total energy  :   -61.9827450 Eh     change       -0.2174895E-06 Eh
 * total energy  :   -61.9827452 Eh     change       -0.1470970E-06 Eh
 * total energy  :   -61.9827452 Eh     change       -0.8509834E-07 Eh
   *** GEOMETRY OPTIMIZATION CONVERGED AFTER 19 ITERATIONS ***

 final structure:
================
38
 xtb: 6.7.1 (edcfbbe)
C           -2.33287507395036       -3.81182440464887        0.21651934157804
C           -0.95394073393542       -3.62971559513891        0.21247235976280
C           -0.41341109597803       -2.36024289935114        0.15467553915300
C           -1.24254883830299       -1.24008634899489        0.07408647051131
C           -2.64100677516880       -1.43515831438305        0.08835487489796
C           -3.17356984380459       -2.71687109337920        0.16149984011443
O           -3.51623210841520       -0.39591810366861        0.04399555931652
C           -3.01575704186406        0.86016979822604       -0.10488179869953
C           -3.92093708884618        1.90464380364760       -0.22558124449629
C           -3.46737853813249        3.19465140818393       -0.42646739028234
C           -2.09806219394422        3.44001355635204       -0.52952030167668
C           -1.18976379167890        2.41395456912845       -0.39507763613972
C           -1.62233441399525        1.10429583789105       -0.15360507629142
N           -0.74222937667087        0.05120218406456        0.01280558148746
C            0.62691618328418        0.29548997927377        0.22441110898729
C            1.02692324989318        1.12470256672432        1.26178888600908
C            2.38093868976434        1.31950148455995        1.48587680390863
C            3.33210474210506        0.69075967297784        0.64418851439093
C            4.71209219119325        0.84970248526701        0.76785647650596
C            5.58906880179046        0.20523302698249       -0.10119856061779
C            5.09813586091226       -0.59525812401383       -1.11645081020928
C            3.72977719224649       -0.76207314508020       -1.28148799580309
C            2.82421261992254       -0.13164757929012       -0.41454358772145
N            1.50828886070918       -0.30142765780610       -0.60406002373687
H           -2.74950686300812       -4.80480368827426        0.27294995604313
H           -0.29559336338984       -4.48233909516728        0.26507171101260
H            0.65477515246552       -2.22028525639702        0.14940190845908
H           -4.24625233187309       -2.82407020085065        0.17759375280087
H           -4.97351780289780        1.67799327511140       -0.16751875518251
H           -4.17245083327947        4.00485527707367       -0.51753029031206
H           -1.74296733610188        4.44084594763512       -0.71793703288270
H           -0.13185000441778        2.60427945093575       -0.48380442890869
H            0.28159867154788        1.56816571170129        1.90586955098420
H            2.71670343735048        1.92749474915307        2.31169055010249
H            5.09656790463705        1.49286486295780        1.54747147916808
H            6.65472459150543        0.33724572589539        0.02098075168813
H            5.77928144107463       -1.09580475351280       -1.78999664724040
H            3.33614099775376       -1.39956320088560       -2.05855641978140

          :  Hamiltonian                  GFN2-xTB          :
         :: gradient norm              0.000092234234 Eh/a0 ::
         :: HOMO-LUMO gap              0.146268255283 eV    ::
         :: SCC energy               -63.047890865507 Eh    ::
         :: -> dispersion             -0.048076046815 Eh    ::
         :: -> Gsolv                  -0.027790666960 Eh    ::
         :: repulsion energy           1.065145616271 Eh    ::

    * Orbital Energies and Occupations

         #    Occupation            Energy/Eh            Energy/eV
      -------------------------------------------------------------
         1        2.0000           -0.7597523             -20.6739
       ...           ...                  ...                  ...
        46        2.0000           -0.4449790             -12.1085
        47        2.0000           -0.4428257             -12.0499
        48        2.0000           -0.4337721             -11.8035
        49        2.0000           -0.4316525             -11.7459
        50        2.0000           -0.4256661             -11.5830
        51        2.0000           -0.4238997             -11.5349
        52        2.0000           -0.4162852             -11.3277
        53        2.0000           -0.4111879             -11.1890
        54        2.0000           -0.3969628             -10.8019
        55        1.9998           -0.3727394             -10.1428
        56        1.9973           -0.3701099             -10.0712
        57        1.0028           -0.3589089              -9.7664
        58        0.9442           -0.2662699              -7.2456 (HOMO)
        59        0.0558           -0.2608952              -7.0993 (LUMO)
        60                         -0.2466028              -6.7104
        61                         -0.2350166              -6.3951
        62                         -0.2235552              -6.0832
        63                         -0.2132414              -5.8026
        64                         -0.1866570              -5.0792
        65                         -0.1444293              -3.9301
        66                         -0.1228183              -3.3421
        67                         -0.0949386              -2.5834
        68                         -0.0542799              -1.4770
        69                         -0.0186711              -0.5081
       ...                                ...                  ...
       110                          0.6941953              18.8900
      -------------------------------------------------------------
                  HL-Gap            0.0053747 Eh            0.1463 eV

     #   Z          covCN         q      C6AA      α(0)
     1   6 C        2.918    -0.026    28.651     8.778
     2   6 C        2.917    -0.031    28.771     8.796
     3   6 C        2.919    -0.045    29.115     8.848
     4   6 C        2.927     0.050    26.877     8.502
     5   6 C        2.887     0.130    25.145     8.221
     6   6 C        2.915    -0.053    29.305     8.877
     7   8 O        1.710    -0.211    17.513     5.650
     8   6 C        2.886     0.129    25.181     8.227
     9   6 C        2.914    -0.051    29.259     8.870
    10   6 C        2.918    -0.031    28.762     8.794
    11   6 C        2.916    -0.031    28.765     8.795
    12   6 C        2.918    -0.045    29.123     8.850
    13   6 C        2.927     0.042    27.068     8.532
    14   7 N        2.754    -0.013    21.502     6.887
    15   6 C        2.883     0.115    25.472     8.274
    16   6 C        2.909    -0.062    29.554     8.914
    17   6 C        2.920    -0.069    29.719     8.940
    18   6 C        2.976    -0.003    28.088     8.693
    19   6 C        2.917    -0.063    29.556     8.915
    20   6 C        2.913    -0.042    29.035     8.836
    21   6 C        2.914    -0.043    29.061     8.840
    22   6 C        2.920    -0.067    29.673     8.933
    23   6 C        2.943     0.093    25.942     8.354
    24   7 N        1.845    -0.288    28.317     7.887
    25   1 H        0.926     0.064     2.155     2.295
    26   1 H        0.926     0.059     2.213     2.326
    27   1 H        0.926     0.066     2.133     2.284
    28   1 H        0.926     0.069     2.097     2.264
    29   1 H        0.926     0.068     2.106     2.269
    30   1 H        0.926     0.062     2.179     2.308
    31   1 H        0.926     0.058     2.221     2.331
    32   1 H        0.926     0.053     2.287     2.365
    33   1 H        0.926     0.022     2.700     2.570
    34   1 H        0.926     0.020     2.739     2.588
    35   1 H        0.925     0.014     2.820     2.626
    36   1 H        0.926     0.016     2.789     2.612
    37   1 H        0.926     0.018     2.758     2.597
    38   1 H        0.926     0.025     2.656     2.548

molecular dipole:
                 x           y           z       tot (Debye)
 q only:       -2.761      -0.204       0.104
   full:       -2.533      -0.026       0.361       6.503

 projected vibrational frequencies (cm⁻¹)
eigval :       -0.00    -0.00     0.00     0.00     0.00     0.00
eigval :       24.93    31.89    42.34    68.68   104.30   137.94
eigval :      162.45   165.29   195.78   242.00   258.84   279.02
eigval :      287.20   336.05   346.33   394.10   414.42   417.70
eigval :      429.11   441.06   464.20   478.33   484.22   490.77
eigval :      519.48   521.15   534.86   563.88   572.70   597.43
eigval :      608.48   655.45   666.22   671.75   686.01   709.44
eigval :      740.81   758.87   767.54   771.53   782.70   793.75
eigval :      825.21   830.87   851.98   852.86   855.77   858.14
eigval :      867.41   889.76   896.30   897.10   905.22   912.60
eigval :      912.66   983.92  1063.08  1075.04  1077.24  1088.97
eigval :     1106.01  1116.72  1123.90  1149.44  1165.88  1173.37
eigval :     1181.43  1198.63  1207.81  1215.62  1224.35  1235.97
eigval :     1239.48  1257.45  1281.52  1296.52  1311.13  1319.36
eigval :     1329.13  1350.92  1377.26  1391.82  1401.39  1406.17
eigval :     1416.91  1424.25  1437.98  1468.03  1501.16  1502.93
eigval :     1508.68  1517.48  1525.58  1534.71  3055.33  3061.99
eigval :     3065.07  3074.34  3081.63  3088.52  3098.29  3099.12
eigval :     3105.11  3105.89  3109.79  3114.96  3116.85  3120.85

   temp. (K)  partition function   enthalpy   heat capacity  entropy
                                   cal/mol     cal/K/mol   cal/K/mol   J/K/mol
 298.15  VIB  0.183E+07             9651.508     67.240     56.511
         ROT  0.889E+07              888.752      2.981     34.777
         INT  0.162E+14            10540.260     70.221     91.288
         TR   0.529E+28             1481.254      4.968     43.074
         TOT                       12021.5142    75.1887   134.3620   562.1707

       T/K    H(0)-H(T)+PV         H(T)/Eh          T*S/Eh         G(T)/Eh
   ------------------------------------------------------------------------
    298.15    0.191575E-01    0.300420E+00    0.638397E-01    0.236580E+00
   ------------------------------------------------------------------------

         :::::::::::::::::::::::::::::::::::::::::::::::::::::
         ::                  THERMODYNAMIC                  ::
         :::::::::::::::::::::::::::::::::::::::::::::::::::::
         :: total free energy         -61.746165199137 Eh   ::
         ::.................................................::
         :: total energy              -61.982745244410 Eh   ::
         :: zero point energy           0.281262278787 Eh   ::
         :: G(RRHO) w/o ZPVE           -0.044682233514 Eh   ::
         :: G(RRHO) contrib.            0.236580045273 Eh   ::
         :::::::::::::::::::::::::::::::::::::::::::::::::::::

           -------------------------------------------------
          | TOTAL ENERGY              -61.982745244410 Eh   |
          | TOTAL ENTHALPY            -61.682325463324 Eh   |
          | TOTAL FREE ENERGY         -61.746165199137 Eh   |
          | GRADIENT NORM               0.000090359404 Eh/α |
          | HOMO-LUMO GAP               0.146253096942 eV   |
           -------------------------------------------------

 * finished run on 2025/08/30 at 23:40:21.986
