   * xtb version 6.7.1 (edcfbbe) compiled by 'albert@albert-system' on 2024-07-22

   ID    Z sym.   atoms
    1    6 C      1-6, 8-13, 15-23
    2    8 O      7
    3    7 N      14, 24
    4    1 H      25-38

          program call               : xtb data2507/toluene/PXZ-QL/PXZ-QL.xyz --gfn 2 --gbsa toluene --ohess vtight --parallel 40 --molden --ceasefiles --namespace data2507/toluene/PXZ-QL/PXZ-QL_toluene_S0_preOpt
      * Solvation model:               GBSA
        Solvent                        toluene
        Solvent mass                       9.2140E+01 g/mol
          :  Hamiltonian                  GFN2-xTB          :
 * total energy  :   -62.0545079 Eh     change       -0.6415846E-09 Eh
 * total energy  :   -62.0629314 Eh     change       -0.8423561E-02 Eh
 * total energy  :   -62.0657008 Eh     change       -0.2769415E-02 Eh
 * total energy  :   -62.0662600 Eh     change       -0.5591714E-03 Eh
 * total energy  :   -62.0665334 Eh     change       -0.2734080E-03 Eh
 * total energy  :   -62.0665991 Eh     change       -0.6563049E-04 Eh
 * total energy  :   -62.0666625 Eh     change       -0.6348692E-04 Eh
 * total energy  :   -62.0667280 Eh     change       -0.6550028E-04 Eh
 * total energy  :   -62.0668118 Eh     change       -0.8375453E-04 Eh
 * total energy  :   -62.0669269 Eh     change       -0.1151237E-03 Eh
 * total energy  :   -62.0688473 Eh     change       -0.1595450E-06 Eh
 * total energy  :   -62.0688475 Eh     change       -0.1919249E-06 Eh
 * total energy  :   -62.0688478 Eh     change       -0.2601867E-06 Eh
 * total energy  :   -62.0688481 Eh     change       -0.3349025E-06 Eh
 * total energy  :   -62.0688484 Eh     change       -0.3508451E-06 Eh
 * total energy  :   -62.0688488 Eh     change       -0.3199253E-06 Eh
 * total energy  :   -62.0688490 Eh     change       -0.2460735E-06 Eh
 * total energy  :   -62.0688492 Eh     change       -0.1512203E-06 Eh
 * total energy  :   -62.0688492 Eh     change       -0.8742465E-07 Eh
   *** GEOMETRY OPTIMIZATION CONVERGED AFTER 60 ITERATIONS ***

 final structure:
================
38
 xtb: 6.7.1 (edcfbbe)
C           -3.57942706525659       -3.21974343326446       -0.14131093109894
C           -2.28787616922035       -3.40904866585110       -0.59894815706082
C           -1.38615692750676       -2.35807779998862       -0.59860212335840
C           -1.75650939179314       -1.10778419433508       -0.11557212298047
C           -3.08079802987163       -0.91215896844301        0.28837532908276
C           -3.98228373392102       -1.96408666077870        0.28315558106213
O           -3.53022613629014        0.31996648582231        0.69075440096869
C           -2.76462014009242        1.39621488201699        0.29775925382249
C           -3.36847377822950        2.64150213115580        0.33369729895033
C           -2.65561925007940        3.77069335796419       -0.03486232980514
C           -1.34644822778249        3.64199557742525       -0.45804735562123
C           -0.74163882013072        2.39591005387047       -0.50787300234452
C           -1.43320264034599        1.25812829956170       -0.11538384657677
N           -0.85710251905964       -0.02849493001454       -0.07740679132807
C            0.49972400711196       -0.25822444553044        0.11052533808098
C            0.90061971522992       -1.32130696193933        0.96942782170061
C            2.22850015616137       -1.53477310749989        1.17806265526344
C            3.18341067816044       -0.70724995502497        0.54029706982872
C            4.57215004140246       -0.86233557630773        0.69180851492308
C            5.43666383697784       -0.01333278531951        0.05313435968876
C            4.94464708189193        1.01995756869811       -0.75749082739319
C            3.59743408980829        1.19952070753377       -0.92197382776050
C            2.68473681273097        0.33945265885803       -0.27920344599244
N            1.36397037106389        0.53436189721985       -0.47489384377799
H           -4.28131017169690       -4.03870418778429       -0.12968500758487
H           -1.97404008649888       -4.37546665395933       -0.96198093240114
H           -0.38192993612328       -2.50460364232110       -0.96694344702909
H           -4.98995727349490       -1.77910142945704        0.62033425392707
H           -4.39318853645126        2.70356433256887        0.66531895412110
H           -3.12911761235580        4.73924091303237        0.00588319471980
H           -0.78256224144279        4.51295512844720       -0.75502812712947
H            0.28033023108139        2.28937440237199       -0.82882086614338
H            0.15211245479000       -1.91838253994057        1.46722091334452
H            2.56585158221657       -2.32035183110936        1.84014702476448
H            4.94179605736549       -1.66220326301237        1.31814641613187
H            6.50351689543069       -0.13469893681917        0.16958096700104
H            5.64177820017963        1.67846246150608       -1.25492093407778
H            3.20524847604038        1.98882811064854       -1.54468042791647

          :  Hamiltonian                  GFN2-xTB          :
         :: gradient norm              0.000033787789 Eh/a0 ::
         :: HOMO-LUMO gap              2.121763003734 eV    ::
         :: SCC energy               -63.147973870523 Eh    ::
         :: -> dispersion             -0.048175543299 Eh    ::
         :: -> Gsolv                  -0.025142377666 Eh    ::
         :: repulsion energy           1.079124629075 Eh    ::

    * Orbital Energies and Occupations

         #    Occupation            Energy/Eh            Energy/eV
      -------------------------------------------------------------
         1        2.0000           -0.7342066             -19.9788
       ...           ...                  ...                  ...
        45        2.0000           -0.4481027             -12.1935
        46        2.0000           -0.4412513             -12.0071
        47        2.0000           -0.4395089             -11.9596
        48        2.0000           -0.4375758             -11.9070
        49        2.0000           -0.4367066             -11.8834
        50        2.0000           -0.4260001             -11.5921
        51        2.0000           -0.4184021             -11.3853
        52        2.0000           -0.4166630             -11.3380
        53        2.0000           -0.4115512             -11.1989
        54        2.0000           -0.3970713             -10.8049
        55        2.0000           -0.3937637             -10.7149
        56        2.0000           -0.3719802             -10.1221
        57        2.0000           -0.3532268              -9.6118 (HOMO)
        58                         -0.2752535              -7.4900 (LUMO)
        59                         -0.2440920              -6.6421
        60                         -0.2398474              -6.5266
        61                         -0.2332755              -6.3477
        62                         -0.2200160              -5.9869
        63                         -0.2090273              -5.6879
        64                         -0.2002116              -5.4480
        65                         -0.1568703              -4.2687
        66                         -0.1063947              -2.8951
        67                         -0.0865421              -2.3549
        68                         -0.0685398              -1.8651
       ...                                ...                  ...
       110                          0.6880193              18.7220
      -------------------------------------------------------------
                  HL-Gap            0.0779733 Eh            2.1218 eV

     #   Z          covCN         q      C6AA      α(0)
     1   6 C        2.920    -0.037    28.911     8.817
     2   6 C        2.919    -0.038    28.949     8.823
     3   6 C        2.923    -0.052    29.298     8.876
     4   6 C        2.929     0.041    27.072     8.533
     5   6 C        2.891     0.125    25.249     8.238
     6   6 C        2.918    -0.056    29.395     8.891
     7   8 O        1.708    -0.268    18.445     5.799
     8   6 C        2.892     0.122    25.328     8.251
     9   6 C        2.919    -0.057    29.411     8.893
    10   6 C        2.919    -0.038    28.937     8.821
    11   6 C        2.920    -0.038    28.939     8.822
    12   6 C        2.922    -0.059    29.471     8.903
    13   6 C        2.923     0.045    26.981     8.518
    14   7 N        2.754    -0.075    22.704     7.077
    15   6 C        2.891     0.157    24.602     8.132
    16   6 C        2.913    -0.061    29.508     8.908
    17   6 C        2.921    -0.022    28.564     8.764
    18   6 C        2.985    -0.008    28.199     8.711
    19   6 C        2.916    -0.036    28.892     8.814
    20   6 C        2.916    -0.033    28.812     8.802
    21   6 C        2.917    -0.028    28.693     8.784
    22   6 C        2.920    -0.044    29.085     8.844
    23   6 C        2.963     0.091    25.977     8.360
    24   7 N        1.848    -0.286    28.259     7.879
    25   1 H        0.926     0.050     2.324     2.384
    26   1 H        0.926     0.047     2.351     2.398
    27   1 H        0.926     0.039     2.456     2.451
    28   1 H        0.926     0.054     2.268     2.355
    29   1 H        0.926     0.051     2.301     2.372
    30   1 H        0.926     0.047     2.358     2.401
    31   1 H        0.926     0.047     2.364     2.404
    32   1 H        0.926     0.074     2.039     2.233
    33   1 H        0.926     0.036     2.505     2.475
    34   1 H        0.925     0.041     2.433     2.439
    35   1 H        0.926     0.038     2.481     2.463
    36   1 H        0.926     0.039     2.456     2.451
    37   1 H        0.926     0.041     2.431     2.438
    38   1 H        0.926     0.047     2.356     2.400

molecular dipole:
                 x           y           z       tot (Debye)
 q only:        0.336      -0.245      -0.056
   full:        0.479      -0.574       0.216       1.977

 projected vibrational frequencies (cm⁻¹)
eigval :       -0.00    -0.00    -0.00    -0.00     0.00     0.00
eigval :       20.48    43.79    60.70    66.42   103.27   137.19
eigval :      168.40   175.03   213.57   242.11   254.51   291.38
eigval :      302.69   339.80   363.04   393.82   409.48   426.49
eigval :      437.45   446.09   452.81   498.25   506.68   508.99
eigval :      526.81   534.93   545.50   579.63   597.51   619.83
eigval :      641.21   660.53   667.63   683.56   732.41   761.39
eigval :      774.71   779.46   786.79   804.71   828.59   837.40
eigval :      853.61   865.03   870.39   875.81   891.81   899.23
eigval :      903.68   911.91   914.81   917.17   922.59   926.97
eigval :      928.47  1000.72  1069.60  1084.22  1086.45  1100.27
eigval :     1116.91  1138.52  1163.74  1168.94  1171.69  1174.80
eigval :     1179.81  1196.12  1214.95  1230.35  1236.00  1237.73
eigval :     1250.09  1294.23  1299.28  1310.68  1326.27  1334.97
eigval :     1363.42  1379.13  1405.21  1423.55  1439.25  1452.34
eigval :     1467.81  1491.76  1496.24  1542.48  1570.31  1575.87
eigval :     1582.40  1588.82  1597.08  1604.01  3061.79  3066.80
eigval :     3076.22  3086.90  3087.60  3088.29  3092.67  3094.12
eigval :     3096.66  3098.52  3101.59  3106.51  3110.40  3130.68

   temp. (K)  partition function   enthalpy   heat capacity  entropy
                                   cal/mol     cal/K/mol   cal/K/mol   J/K/mol
 298.15  VIB  0.912E+06             9341.945     65.746     55.006
         ROT  0.887E+07              888.752      2.981     34.774
         INT  0.809E+13            10230.697     68.727     89.780
         TR   0.529E+28             1481.254      4.968     43.074
         TOT                       11711.9510    73.6948   132.8541   555.8615

       T/K    H(0)-H(T)+PV         H(T)/Eh          T*S/Eh         G(T)/Eh
   ------------------------------------------------------------------------
    298.15    0.186642E-01    0.304737E+00    0.631233E-01    0.241613E+00
   ------------------------------------------------------------------------

         :::::::::::::::::::::::::::::::::::::::::::::::::::::
         ::                  THERMODYNAMIC                  ::
         :::::::::::::::::::::::::::::::::::::::::::::::::::::
         :: total free energy         -61.827235831528 Eh   ::
         ::.................................................::
         :: total energy              -62.068849237570 Eh   ::
         :: zero point energy           0.286072490384 Eh   ::
         :: G(RRHO) w/o ZPVE           -0.044459084342 Eh   ::
         :: G(RRHO) contrib.            0.241613406042 Eh   ::
         :::::::::::::::::::::::::::::::::::::::::::::::::::::

           -------------------------------------------------
          | TOTAL ENERGY              -62.068849237570 Eh   |
          | TOTAL ENTHALPY            -61.764112565242 Eh   |
          | TOTAL FREE ENERGY         -61.827235831528 Eh   |
          | GRADIENT NORM               0.000033796107 Eh/α |
          | HOMO-LUMO GAP               2.121762021776 eV   |
           -------------------------------------------------

 * finished run on 2025/08/30 at 23:37:49.369
