   * xtb version 6.7.1 (edcfbbe) compiled by 'albert@albert-system' on 2024-07-22

   ID    Z sym.   atoms
    1    6 C      1-6, 8-13, 15-23
    2    8 O      7
    3    7 N      14, 24
    4    1 H      25-38

          program call               : xtb data2507/toluene/PXZ-QL/PXZ-QL_toluene_S0_crest.xyz --gfn 2 --gbsa toluene --ohess vtight --parallel 40 --molden --ceasefiles --namespace data2507/toluene/PXZ-QL/PXZ-QL_toluene_S0_finalOpt
      * Solvation model:               GBSA
        Solvent                        toluene
        Solvent mass                       9.2140E+01 g/mol
          :  Hamiltonian                  GFN2-xTB          :
 * total energy  :   -62.0688037 Eh     change       -0.5285798E-09 Eh
 * total energy  :   -62.0688245 Eh     change       -0.2080818E-04 Eh
 * total energy  :   -62.0688288 Eh     change       -0.4286991E-05 Eh
 * total energy  :   -62.0688302 Eh     change       -0.1395970E-05 Eh
 * total energy  :   -62.0688309 Eh     change       -0.7530376E-06 Eh
 * total energy  :   -62.0688315 Eh     change       -0.6084487E-06 Eh
 * total energy  :   -62.0688321 Eh     change       -0.5876872E-06 Eh
 * total energy  :   -62.0688327 Eh     change       -0.5531070E-06 Eh
 * total energy  :   -62.0688332 Eh     change       -0.5410914E-06 Eh
 * total energy  :   -62.0688338 Eh     change       -0.6105838E-06 Eh
 * total energy  :   -62.0688357 Eh     change       -0.6126020E-06 Eh
 * total energy  :   -62.0688364 Eh     change       -0.7336492E-06 Eh
 * total energy  :   -62.0688371 Eh     change       -0.6470582E-06 Eh
 * total energy  :   -62.0688375 Eh     change       -0.4864204E-06 Eh
 * total energy  :   -62.0688378 Eh     change       -0.3033855E-06 Eh
 * total energy  :   -62.0688381 Eh     change       -0.2215390E-06 Eh
 * total energy  :   -62.0688383 Eh     change       -0.1967374E-06 Eh
 * total energy  :   -62.0688384 Eh     change       -0.1602846E-06 Eh
 * total energy  :   -62.0688384 Eh     change       -0.1340617E-08 Eh
   *** GEOMETRY OPTIMIZATION CONVERGED AFTER 22 ITERATIONS ***

 final structure:
================
38
 xtb: 6.7.1 (edcfbbe)
C           -3.50798724731523       -3.13931577157094       -0.40024875835195
C           -2.22438164780177       -3.33189638478610       -0.87892330836261
C           -1.29089832423212       -2.31189226667132       -0.80366229594427
C           -1.62197258572838       -1.09152625143641       -0.22512990292620
C           -2.93841736509009       -0.88711460951352        0.19932695898076
C           -3.87136198298559       -1.90843770237138        0.12094451044774
O           -3.34782948136311        0.32571889587848        0.69285063105868
C           -2.55992704932974        1.40467630561833        0.35438083807931
C           -3.13475868380042        2.65996483895768        0.45779905748096
C           -2.39812183152992        3.78946643970572        0.14077562550835
C           -1.09543460002401        3.65246980267967       -0.29974539180997
C           -0.51936533221785        2.39717648038017       -0.41599461945350
C           -1.23462166514862        1.25755646506610       -0.07475075049905
N           -0.69133922053155       -0.04393973776688       -0.10977016438573
C            0.65524735369991       -0.32204395595307        0.07779804775620
C            1.01797909621091       -1.46787527899740        0.84275279475284
C            2.33694611064256       -1.73372552876589        1.04687966270660
C            3.32136180190326       -0.87640228362110        0.49971436161739
C            4.70341540850084       -1.08105227346716        0.65274171126902
C            5.59782216632240       -0.19602591229986        0.11146901533481
C            5.14292459916548        0.92435656551020       -0.59890959238415
C            3.80305921059506        1.15194735890778       -0.76418950432726
C            2.86014580389955        0.25611725217613       -0.22168542633553
N            1.54778690458867        0.50025314034244       -0.41802117737952
H           -4.23384435313904       -3.93586979445900       -0.44628009340339
H           -1.94172661908418       -4.27703391758360       -1.31608716055265
H           -0.29240280279385       -2.46018463616088       -1.18659939477604
H           -4.87150436097887       -1.71976509472793        0.47786019144418
H           -4.15558123225696        2.72870942810523        0.79992966856616
H           -2.84857639499856        4.76540199523383        0.23383454186071
H           -0.51431695406453        4.52432122046364       -0.55837887757303
H            0.49772133581042        2.28331891687663       -0.74916102527184
H            0.24841121045815       -2.08664025743637        1.27793102197166
H            2.64518212208356       -2.58458116383560        1.63881352011472
H            5.04397932865227       -1.94733726711586        1.20262573951123
H            6.65960327285495       -0.35497250109532        0.22942043795596
H            5.86309966438763        1.61136485569418       -1.01899155178672
H            3.43984200303892        2.00811255343957       -1.31158001889391

          :  Hamiltonian                  GFN2-xTB          :
         :: gradient norm              0.000033017277 Eh/a0 ::
         :: HOMO-LUMO gap              2.147168583854 eV    ::
         :: SCC energy               -63.147882052753 Eh    ::
         :: -> dispersion             -0.048178976149 Eh    ::
         :: -> Gsolv                  -0.025136419726 Eh    ::
         :: repulsion energy           1.079043632868 Eh    ::

    * Orbital Energies and Occupations

         #    Occupation            Energy/Eh            Energy/eV
      -------------------------------------------------------------
         1        2.0000           -0.7342619             -19.9803
       ...           ...                  ...                  ...
        45        2.0000           -0.4477438             -12.1837
        46        2.0000           -0.4413027             -12.0085
        47        2.0000           -0.4396470             -11.9634
        48        2.0000           -0.4374051             -11.9024
        49        2.0000           -0.4364961             -11.8777
        50        2.0000           -0.4259536             -11.5908
        51        2.0000           -0.4183804             -11.3847
        52        2.0000           -0.4166434             -11.3374
        53        2.0000           -0.4114631             -11.1965
        54        2.0000           -0.3968995             -10.8002
        55        2.0000           -0.3937182             -10.7136
        56        2.0000           -0.3714834             -10.1086
        57        2.0000           -0.3536919              -9.6244 (HOMO)
        58                         -0.2747849              -7.4773 (LUMO)
        59                         -0.2439345              -6.6378
        60                         -0.2397357              -6.5235
        61                         -0.2332807              -6.3479
        62                         -0.2202790              -5.9941
        63                         -0.2093601              -5.6970
        64                         -0.2000723              -5.4442
        65                         -0.1563021              -4.2532
        66                         -0.1064523              -2.8967
        67                         -0.0873645              -2.3773
        68                         -0.0681304              -1.8539
       ...                                ...                  ...
       110                          0.6883574              18.7312
      -------------------------------------------------------------
                  HL-Gap            0.0789070 Eh            2.1472 eV

     #   Z          covCN         q      C6AA      α(0)
     1   6 C        2.920    -0.036    28.906     8.817
     2   6 C        2.919    -0.038    28.948     8.823
     3   6 C        2.923    -0.052    29.287     8.875
     4   6 C        2.930     0.041    27.076     8.533
     5   6 C        2.892     0.126    25.246     8.238
     6   6 C        2.918    -0.056    29.391     8.890
     7   8 O        1.708    -0.268    18.449     5.799
     8   6 C        2.892     0.122    25.327     8.251
     9   6 C        2.919    -0.057    29.408     8.893
    10   6 C        2.919    -0.037    28.932     8.820
    11   6 C        2.920    -0.038    28.937     8.821
    12   6 C        2.922    -0.059    29.460     8.901
    13   6 C        2.923     0.045    26.983     8.519
    14   7 N        2.754    -0.075    22.698     7.076
    15   6 C        2.890     0.157    24.603     8.132
    16   6 C        2.913    -0.061    29.517     8.909
    17   6 C        2.921    -0.022    28.566     8.765
    18   6 C        2.985    -0.008    28.207     8.712
    19   6 C        2.916    -0.036    28.894     8.815
    20   6 C        2.916    -0.033    28.818     8.803
    21   6 C        2.917    -0.028    28.697     8.784
    22   6 C        2.920    -0.044    29.089     8.845
    23   6 C        2.963     0.091    25.976     8.360
    24   7 N        1.848    -0.287    28.287     7.882
    25   1 H        0.926     0.050     2.321     2.382
    26   1 H        0.926     0.048     2.348     2.396
    27   1 H        0.926     0.040     2.449     2.447
    28   1 H        0.926     0.054     2.265     2.354
    29   1 H        0.926     0.052     2.300     2.372
    30   1 H        0.926     0.047     2.356     2.400
    31   1 H        0.926     0.047     2.360     2.403
    32   1 H        0.926     0.075     2.030     2.228
    33   1 H        0.926     0.036     2.508     2.477
    34   1 H        0.925     0.041     2.438     2.442
    35   1 H        0.926     0.037     2.486     2.466
    36   1 H        0.926     0.039     2.461     2.453
    37   1 H        0.926     0.041     2.435     2.440
    38   1 H        0.926     0.047     2.360     2.402

molecular dipole:
                 x           y           z       tot (Debye)
 q only:        0.281      -0.250      -0.099
   full:        0.413      -0.606       0.147       1.900

 projected vibrational frequencies (cm⁻¹)
eigval :       -0.00    -0.00     0.00     0.00     0.00     0.00
eigval :       18.93    48.19    61.11    67.92   103.33   136.74
eigval :      168.70   174.70   214.30   241.96   255.00   290.60
eigval :      304.33   341.56   361.02   393.88   409.20   426.14
eigval :      436.31   443.85   454.24   499.31   507.00   509.27
eigval :      527.71   535.56   545.36   579.66   597.64   619.59
eigval :      639.69   660.79   669.00   685.67   732.51   761.17
eigval :      775.04   777.36   786.17   805.07   828.48   835.71
eigval :      853.27   861.96   868.34   874.53   891.21   897.74
eigval :      900.91   911.64   914.83   916.95   917.15   927.63
eigval :      929.54  1000.15  1070.62  1083.27  1085.53  1100.07
eigval :     1115.56  1137.95  1162.54  1168.30  1170.86  1172.51
eigval :     1179.46  1194.96  1214.43  1230.31  1236.22  1237.78
eigval :     1249.16  1293.53  1299.91  1310.82  1326.30  1334.32
eigval :     1363.63  1379.32  1405.66  1423.15  1438.50  1452.54
eigval :     1466.90  1491.25  1496.33  1542.36  1570.22  1575.73
eigval :     1582.72  1588.58  1596.79  1604.06  3061.53  3065.82
eigval :     3075.89  3086.20  3087.50  3087.72  3091.85  3093.61
eigval :     3096.31  3098.13  3101.22  3105.94  3110.07  3133.20

   temp. (K)  partition function   enthalpy   heat capacity  entropy
                                   cal/mol     cal/K/mol   cal/K/mol   J/K/mol
 298.15  VIB  0.880E+06             9337.688     65.880     55.040
         ROT  0.887E+07              888.752      2.981     34.774
         INT  0.781E+13            10226.440     68.861     89.813
         TR   0.529E+28             1481.254      4.968     43.074
         TOT                       11707.6944    73.8290   132.8874   556.0007

       T/K    H(0)-H(T)+PV         H(T)/Eh          T*S/Eh         G(T)/Eh
   ------------------------------------------------------------------------
    298.15    0.186574E-01    0.304665E+00    0.631391E-01    0.241526E+00
   ------------------------------------------------------------------------

         :::::::::::::::::::::::::::::::::::::::::::::::::::::
         ::                  THERMODYNAMIC                  ::
         :::::::::::::::::::::::::::::::::::::::::::::::::::::
         :: total free energy         -61.827312666793 Eh   ::
         ::.................................................::
         :: total energy              -62.068838416059 Eh   ::
         :: zero point energy           0.286007422090 Eh   ::
         :: G(RRHO) w/o ZPVE           -0.044481672825 Eh   ::
         :: G(RRHO) contrib.            0.241525749266 Eh   ::
         :::::::::::::::::::::::::::::::::::::::::::::::::::::

           -------------------------------------------------
          | TOTAL ENERGY              -62.068838416059 Eh   |
          | TOTAL ENTHALPY            -61.764173595378 Eh   |
          | TOTAL FREE ENERGY         -61.827312666793 Eh   |
          | GRADIENT NORM               0.000033016635 Eh/α |
          | HOMO-LUMO GAP               2.147168867378 eV   |
           -------------------------------------------------

 * finished run on 2025/08/30 at 23:38:53.984
