   * xtb version 6.7.1 (edcfbbe) compiled by 'albert@albert-system' on 2024-07-22

   ID    Z sym.   atoms
    1    6 C      1-6, 8-13, 15-23
    2    8 O      7
    3    7 N      14, 24
    4    1 H      25-38

          program call               : xtb data2507/toluene/PXZ-QL/PXZ-QL_toluene_S0_finalOpt.xtbopt.xyz --gfn 2 --uhf 2 --gbsa toluene --ohess vtight --parallel 40 --molden --ceasefiles --namespace data2507/toluene/PXZ-QL/PXZ-QL_toluene_T1_preOpt
      * Solvation model:               GBSA
        Solvent                        toluene
        Solvent mass                       9.2140E+01 g/mol
          :  Hamiltonian                  GFN2-xTB          :
 * total energy  :   -61.9738235 Eh     change       -0.1257781E-08 Eh
 * total energy  :   -61.9781660 Eh     change       -0.4342478E-02 Eh
 * total energy  :   -61.9794952 Eh     change       -0.1329221E-02 Eh
 * total energy  :   -61.9797659 Eh     change       -0.2706754E-03 Eh
 * total energy  :   -61.9800836 Eh     change       -0.3177322E-03 Eh
 * total energy  :   -61.9803338 Eh     change       -0.2501578E-03 Eh
 * total energy  :   -61.9806410 Eh     change       -0.3072108E-03 Eh
 * total energy  :   -61.9810231 Eh     change       -0.3821058E-03 Eh
 * total energy  :   -61.9813860 Eh     change       -0.3628788E-03 Eh
 * total energy  :   -61.9816682 Eh     change       -0.2822593E-03 Eh
 * total energy  :   -61.9827411 Eh     change       -0.1868342E-05 Eh
 * total energy  :   -61.9827435 Eh     change       -0.2429135E-05 Eh
 * total energy  :   -61.9827454 Eh     change       -0.1889407E-05 Eh
 * total energy  :   -61.9827464 Eh     change       -0.9816792E-06 Eh
 * total energy  :   -61.9827468 Eh     change       -0.4948377E-06 Eh
 * total energy  :   -61.9827471 Eh     change       -0.2850340E-06 Eh
 * total energy  :   -61.9827473 Eh     change       -0.2041923E-06 Eh
 * total energy  :   -61.9827473 Eh     change        0.5682082E-08 Eh
 * total energy  :   -61.9827473 Eh     change       -0.1675048E-08 Eh
   *** GEOMETRY OPTIMIZATION CONVERGED AFTER 45 ITERATIONS ***

 final structure:
================
38
 xtb: 6.7.1 (edcfbbe)
C           -3.47245355993276       -3.18160074700650       -0.64869218364817
C           -2.10152542487606       -3.42124559651377       -0.73983803607626
C           -1.19677369250334       -2.40194014017662       -0.54336951860554
C           -1.63474155059713       -1.10480588898415       -0.24995476546717
C           -3.02895805566579       -0.86377744949196       -0.21476199390326
C           -3.93077287215765       -1.90201622794602       -0.39792408288377
O           -3.53389248840251        0.38443051728486       -0.02159171095408
C           -2.66103393755908        1.42105867569846        0.08655473110497
C           -3.19669458267149        2.69797701117479        0.20486128354681
C           -2.35867061107319        3.78976776374252        0.32665436136166
C           -0.97987888550222        3.60806805058634        0.34614539344267
C           -0.43661736133335        2.34263333708463        0.24298743328677
C           -1.26236107979254        1.22705377921507        0.09194669402357
N           -0.75904689983303       -0.05926490827271       -0.02200116714969
C            0.60977289096771       -0.30927327438206        0.18433838361316
C            1.00949500536133       -1.18846147810641        1.17952743387703
C            2.36354756402867       -1.39216284478265        1.39607827075903
C            3.31502513880743       -0.72137897026216        0.58774802597911
C            4.69499503803101       -0.88611864808705        0.70361066311479
C            5.57227993593989       -0.19678751921798       -0.13021642835255
C            5.08170858416440        0.65589280092051       -1.10216331177471
C            3.71330744255772        0.83001156681032       -1.25954937400476
C            2.80745559053400        0.15409830586496       -0.42773601082368
N            1.49175008363491        0.33153769396372       -0.61071590211757
H           -4.17491640257185       -3.98721048686262       -0.78804264219011
H           -1.74188742180330       -4.41227819149977       -0.96742493187049
H           -0.13744287760122       -2.58815459455713       -0.62314500988743
H           -4.98440654031468       -1.67823937814170       -0.34838909716516
H           -4.26959643141981        2.80402477340041        0.20251857389555
H           -2.77765384582539        4.77912076753476        0.41798452885290
H           -0.32390305391421        4.45746544074832        0.45274387845852
H            0.63155796453710        2.20375782521159        0.25606190982534
H            0.26382296808160       -1.66461633274869        1.79941814723650
H            2.69878613966194       -2.03920383134258        2.19192049612206
H            5.07938491871112       -1.56900389550388        1.44874897501446
H            6.63788501492132       -0.33473695285269       -0.01439548203629
H            5.76308474378455        1.19168442773609       -1.74780319385277
H            3.31951568448889        1.50696136520654       -2.00241363026530

          :  Hamiltonian                  GFN2-xTB          :
         :: gradient norm              0.000069104045 Eh/a0 ::
         :: HOMO-LUMO gap              0.144493505930 eV    ::
         :: SCC energy               -63.047851022491 Eh    ::
         :: -> dispersion             -0.048075545178 Eh    ::
         :: -> Gsolv                  -0.027815036306 Eh    ::
         :: repulsion energy           1.065103682503 Eh    ::

    * Orbital Energies and Occupations

         #    Occupation            Energy/Eh            Energy/eV
      -------------------------------------------------------------
         1        2.0000           -0.7597437             -20.6737
       ...           ...                  ...                  ...
        46        2.0000           -0.4449208             -12.1069
        47        2.0000           -0.4428282             -12.0500
        48        2.0000           -0.4338016             -11.8043
        49        2.0000           -0.4316862             -11.7468
        50        2.0000           -0.4255624             -11.5801
        51        2.0000           -0.4238808             -11.5344
        52        2.0000           -0.4162271             -11.3261
        53        2.0000           -0.4111747             -11.1886
        54        2.0000           -0.3969351             -10.8012
        55        1.9998           -0.3726948             -10.1415
        56        1.9972           -0.3700000             -10.0682
        57        1.0030           -0.3588871              -9.7658
        58        0.9424           -0.2662444              -7.2449 (HOMO)
        59        0.0576           -0.2609345              -7.1004 (LUMO)
        60                         -0.2466300              -6.7111
        61                         -0.2350000              -6.3947
        62                         -0.2235370              -6.0828
        63                         -0.2131064              -5.7989
        64                         -0.1866373              -5.0787
        65                         -0.1443714              -3.9285
        66                         -0.1228443              -3.3428
        67                         -0.0947964              -2.5795
        68                         -0.0542457              -1.4761
        69                         -0.0187966              -0.5115
       ...                                ...                  ...
       110                          0.6942256              18.8908
      -------------------------------------------------------------
                  HL-Gap            0.0053100 Eh            0.1445 eV

     #   Z          covCN         q      C6AA      α(0)
     1   6 C        2.918    -0.030    28.759     8.794
     2   6 C        2.916    -0.031    28.763     8.795
     3   6 C        2.918    -0.045    29.126     8.850
     4   6 C        2.927     0.042    27.065     8.532
     5   6 C        2.886     0.129    25.178     8.226
     6   6 C        2.914    -0.051    29.259     8.870
     7   8 O        1.710    -0.211    17.514     5.650
     8   6 C        2.887     0.130    25.145     8.221
     9   6 C        2.915    -0.053    29.305     8.877
    10   6 C        2.918    -0.026    28.653     8.778
    11   6 C        2.917    -0.031    28.770     8.796
    12   6 C        2.919    -0.045    29.111     8.848
    13   6 C        2.927     0.050    26.875     8.502
    14   7 N        2.754    -0.013    21.499     6.887
    15   6 C        2.883     0.115    25.476     8.275
    16   6 C        2.909    -0.063    29.557     8.915
    17   6 C        2.920    -0.069    29.722     8.940
    18   6 C        2.976    -0.003    28.088     8.693
    19   6 C        2.917    -0.063    29.556     8.915
    20   6 C        2.913    -0.042    29.035     8.836
    21   6 C        2.913    -0.043    29.061     8.840
    22   6 C        2.920    -0.067    29.673     8.933
    23   6 C        2.943     0.093    25.941     8.353
    24   7 N        1.845    -0.288    28.323     7.887
    25   1 H        0.926     0.062     2.177     2.307
    26   1 H        0.926     0.058     2.220     2.330
    27   1 H        0.926     0.053     2.285     2.364
    28   1 H        0.926     0.068     2.105     2.269
    29   1 H        0.926     0.069     2.097     2.264
    30   1 H        0.926     0.064     2.155     2.296
    31   1 H        0.926     0.059     2.214     2.327
    32   1 H        0.926     0.065     2.137     2.286
    33   1 H        0.926     0.022     2.698     2.569
    34   1 H        0.926     0.019     2.742     2.589
    35   1 H        0.925     0.014     2.821     2.626
    36   1 H        0.926     0.016     2.789     2.612
    37   1 H        0.926     0.018     2.759     2.597
    38   1 H        0.926     0.025     2.656     2.549

molecular dipole:
                 x           y           z       tot (Debye)
 q only:       -2.768       0.188       0.096
   full:       -2.539      -0.001       0.344       6.513

 projected vibrational frequencies (cm⁻¹)
eigval :       -0.00    -0.00     0.00     0.00     0.00     0.00
eigval :       22.29    32.59    43.91    68.92   104.63   138.15
eigval :      163.34   166.05   196.09   242.01   259.29   278.55
eigval :      287.04   335.80   346.88   394.23   412.87   418.67
eigval :      428.16   440.99   464.65   478.62   484.66   491.31
eigval :      520.01   520.96   535.23   564.16   572.92   597.67
eigval :      608.32   657.13   665.23   670.67   686.10   706.25
eigval :      742.59   758.65   766.93   770.53   782.43   796.68
eigval :      825.17   833.86   852.72   853.88   855.67   856.77
eigval :      867.75   891.57   894.23   897.61   905.36   909.83
eigval :      914.01   983.62  1062.92  1074.78  1076.72  1088.61
eigval :     1106.56  1116.45  1123.64  1149.65  1165.43  1173.20
eigval :     1180.63  1198.49  1207.53  1215.15  1224.35  1235.40
eigval :     1238.90  1256.95  1281.50  1296.58  1311.11  1319.34
eigval :     1328.85  1350.71  1377.63  1391.62  1400.48  1406.07
eigval :     1416.94  1424.15  1437.82  1468.17  1500.87  1502.97
eigval :     1508.24  1517.27  1524.26  1535.17  3055.26  3061.93
eigval :     3066.33  3074.52  3081.39  3088.60  3098.21  3099.12
eigval :     3105.09  3106.02  3109.70  3115.30  3116.73  3121.27

   temp. (K)  partition function   enthalpy   heat capacity  entropy
                                   cal/mol     cal/K/mol   cal/K/mol   J/K/mol
 298.15  VIB  0.190E+07             9648.735     67.263     56.543
         ROT  0.889E+07              888.752      2.981     34.777
         INT  0.169E+14            10537.487     70.244     91.320
         TR   0.529E+28             1481.254      4.968     43.074
         TOT                       12018.7408    75.2118   134.3942   562.3055

       T/K    H(0)-H(T)+PV         H(T)/Eh          T*S/Eh         G(T)/Eh
   ------------------------------------------------------------------------
    298.15    0.191531E-01    0.300413E+00    0.638550E-01    0.236558E+00
   ------------------------------------------------------------------------

         :::::::::::::::::::::::::::::::::::::::::::::::::::::
         ::                  THERMODYNAMIC                  ::
         :::::::::::::::::::::::::::::::::::::::::::::::::::::
         :: total free energy         -61.746189642146 Eh   ::
         ::.................................................::
         :: total energy              -61.982747344300 Eh   ::
         :: zero point energy           0.281259663542 Eh   ::
         :: G(RRHO) w/o ZPVE           -0.044701961387 Eh   ::
         :: G(RRHO) contrib.            0.236557702154 Eh   ::
         :::::::::::::::::::::::::::::::::::::::::::::::::::::

           -------------------------------------------------
          | TOTAL ENERGY              -61.982747344300 Eh   |
          | TOTAL ENTHALPY            -61.682334598178 Eh   |
          | TOTAL FREE ENERGY         -61.746189642146 Eh   |
          | GRADIENT NORM               0.000068082243 Eh/α |
          | HOMO-LUMO GAP               0.144491710873 eV   |
           -------------------------------------------------

 * finished run on 2025/08/30 at 23:38:56.096
