   * xtb version 6.7.1 (edcfbbe) compiled by 'albert@albert-system' on 2024-07-22

   ID    Z sym.   atoms
    1    6 C      1-9, 11-15, 17-30, 32-38
    2    7 N      10, 16, 31
    3    1 H      39-63

          program call               : xtb data2507/gas/α-DMAC-DBP/α-DMAC-DBP_gas_T1_crest.xyz --gfn 2 --spinpol --tblite --uhf 2 --ohess vtight --parallel 40 --molden --ceasefiles --namespace data2507/gas/α-DMAC-DBP/α-DMAC-DBP_gas_T1_finalOpt
 * total energy  :   -96.4897753 Eh     change       -0.2428177E-07 Eh
 * total energy  :   -96.4897965 Eh     change       -0.2118093E-04 Eh
 * total energy  :   -96.4898014 Eh     change       -0.4908574E-05 Eh
 * total energy  :   -96.4898023 Eh     change       -0.9447946E-06 Eh
 * total energy  :   -96.4898028 Eh     change       -0.4679235E-06 Eh
 * total energy  :   -96.4898027 Eh     change        0.5551954E-07 Eh
 * total energy  :   -96.4898031 Eh     change       -0.3122810E-06 Eh
 * total energy  :   -96.4898035 Eh     change       -0.3960561E-06 Eh
 * total energy  :   -96.4898037 Eh     change       -0.2282487E-06 Eh
 * total energy  :   -96.4898038 Eh     change       -0.1242985E-06 Eh
 * total energy  :   -96.4898041 Eh     change       -0.1588256E-06 Eh
 * total energy  :   -96.4898043 Eh     change       -0.2385166E-06 Eh
 * total energy  :   -96.4898046 Eh     change       -0.2838044E-06 Eh
 * total energy  :   -96.4898048 Eh     change       -0.1920936E-06 Eh
 * total energy  :   -96.4898050 Eh     change       -0.1783116E-06 Eh
 * total energy  :   -96.4898052 Eh     change       -0.1578550E-06 Eh
 * total energy  :   -96.4898054 Eh     change       -0.2029892E-06 Eh
 * total energy  :   -96.4898055 Eh     change       -0.1623544E-06 Eh
 * total energy  :   -96.4898056 Eh     change       -0.8864826E-07 Eh
   *** GEOMETRY OPTIMIZATION CONVERGED AFTER 20 ITERATIONS ***

 final structure:
================
63
 xtb: 6.7.1 (edcfbbe)
C           -5.00066472558012        2.08743611323774        0.20822376439305
C           -3.63287455389724        1.58412328174315       -0.28913928652575
C           -3.02760494445445        2.58177434763680       -1.29486149679828
C           -2.70467993230587        1.46663493931049        0.90032521767884
C           -2.42436026287776        2.59001155686873        1.66674472917357
C           -1.60709595569559        2.53175837395244        2.78009521873120
C           -1.07627973551907        1.31342264394248        3.16989830223832
C           -1.33747980119318        0.18479362597458        2.42643162732739
C           -2.12047754060074        0.24816967975488        1.26576570819024
N           -2.32044299942443       -0.90533850094857        0.52625751112090
C           -1.37244186612293       -1.94723456744280        0.69059852884394
C           -1.72958628701804       -3.23649051868743        1.06207201099881
C           -0.76591923910455       -4.22858763847272        1.14472516629931
C            0.56180927493137       -3.95206355487952        0.86373067792247
C            0.96294993763091       -2.66574695528291        0.50992797842118
N            2.23209673001277       -2.33847454065213        0.26416942064659
C            2.60388769845832       -1.08971137612967        0.00243790485766
C            3.97308725208182       -0.76165640193702       -0.24910181575152
C            4.93457969316566       -1.78495025377707       -0.22650912812763
C            6.25516518249935       -1.51345648045054       -0.47287571092770
C            6.64890724865432       -0.20400713870623       -0.74950373654081
C            5.72212079478575        0.81027349715150       -0.77250383491025
C            4.36261437789319        0.57069129962232       -0.52261641795386
C            3.36741186221448        1.61815512698896       -0.52851194670424
C            3.67396614934120        2.96778144039904       -0.75740733691927
C            2.70143412632236        3.93883998140098       -0.74355759677808
C            1.37020112235157        3.60315535076531       -0.49395728372239
C            1.03330355647495        2.29435460517462       -0.26840107621279
C            2.01388822240248        1.28896345023649       -0.28563292346295
C            1.62575316743602       -0.06211051750282       -0.03914185138911
N            0.35153325321530       -0.37848926112543        0.16634794217065
C           -0.02855465657468       -1.62231814015414        0.43359376689011
C           -3.13109926811274       -0.90191920418748       -0.60247552598488
C           -3.27977126769704       -2.06961444963112       -1.35939125658770
C           -4.12033786981252       -2.11021038012079       -2.45030177951716
C           -4.82981988254903       -0.97985749004684       -2.81692891255113
C           -4.66076481204396        0.18531432164281       -2.09398302276132
C           -3.81673078821313        0.25536565761894       -0.99320195901856
H           -5.69493937814713        2.21012943556180       -0.61805429279400
H           -4.90139724598026        3.04462649541404        0.71226480858361
H           -5.42453686911458        1.37198232322260        0.91040155384820
H           -2.87755565173848        3.55406559412821       -0.83362891180135
H           -2.06507405909012        2.21511324765258       -1.64699037889787
H           -3.68025565320545        2.70892451097966       -2.15418252840828
H           -2.84966076875712        3.54246634940347        1.38843129895251
H           -1.39789106505967        3.42678680264197        3.34569702407379
H           -0.45897524690007        1.24297740257940        4.05264198794810
H           -0.93586285874412       -0.76610669092030        2.74117122790656
H           -2.76216791837537       -3.44990371328569        1.29338554116095
H           -1.05162999939772       -5.22747781525742        1.43629406243368
H            1.31628864234548       -4.71862524438153        0.94061415820943
H            4.59860714186497       -2.78811897600538       -0.01241123697439
H            6.98855931938651       -2.30591443571015       -0.45554068112686
H            7.68846905637077        0.01351892690453       -0.94674062473463
H            6.05981393967458        1.81101988490885       -0.99067526716699
H            4.69370312175161        3.26374126217360       -0.94638372468570
H            2.97007333761068        4.96972109591662       -0.92290093521267
H            0.61220114315605        4.37215223534104       -0.47679502674051
H            0.01420705290957        2.00575081313326       -0.06094809154435
H           -2.72076340552077       -2.95231190611401       -1.09445879220254
H           -4.21834940689108       -3.02532658379160       -3.01471595377447
H           -5.49619482773740       -1.00028375729037       -3.66563486453990
H           -5.19850095628486        1.06750241660856       -2.40650434637102

 projected vibrational frequencies (cm⁻¹)
eigval :       -0.00    -0.00     0.00     0.00     0.00     0.00
eigval :       16.82    19.66    24.49    45.04    58.73    68.92
eigval :       85.05    93.21    99.30   103.73   113.42   134.81
eigval :      157.96   162.48   182.95   197.00   207.13   220.76
eigval :      230.32   242.09   246.62   269.01   293.36   305.38
eigval :      328.58   330.80   339.51   347.08   371.46   385.67
eigval :      387.31   396.36   403.81   408.89   415.67   417.84
eigval :      447.70   455.79   497.03   510.72   514.73   521.02
eigval :      526.13   531.46   539.36   540.93   548.76   569.94
eigval :      584.53   585.02   591.14   607.54   610.42   632.54
eigval :      657.22   666.19   673.85   682.09   687.83   700.09
eigval :      701.19   723.17   724.74   765.49   767.37   774.42
eigval :      778.69   779.40   782.24   826.22   839.59   849.20
eigval :      858.04   865.04   873.60   874.58   877.01   903.31
eigval :      908.58   911.04   913.58   914.90   915.64   916.83
eigval :      921.87   922.80   923.36   923.61   937.94   957.76
eigval :     1006.72  1014.59  1034.93  1070.88  1077.07  1082.85
eigval :     1098.71  1099.68  1106.28  1112.68  1118.61  1139.98
eigval :     1148.03  1150.61  1155.79  1169.40  1178.48  1179.80
eigval :     1180.97  1185.46  1187.62  1207.52  1224.20  1241.26
eigval :     1246.02  1248.75  1257.66  1260.61  1263.29  1279.11
eigval :     1286.93  1295.73  1302.29  1316.54  1317.91  1326.88
eigval :     1331.30  1336.04  1353.04  1359.14  1361.66  1392.28
eigval :     1402.16  1404.67  1419.74  1420.32  1429.72  1430.38
eigval :     1434.06  1464.00  1465.24  1468.03  1481.43  1486.11
eigval :     1489.11  1489.97  1499.53  1503.74  1521.53  1536.12
eigval :     1541.52  1552.87  1565.44  1580.04  1584.94  1586.15
eigval :     1594.57  1596.24  3027.90  3029.96  3040.03  3043.86
eigval :     3049.22  3054.16  3074.45  3075.44  3081.12  3081.38
eigval :     3083.89  3085.16  3085.53  3086.69  3087.43  3094.67
eigval :     3096.15  3096.50  3097.63  3098.13  3100.79  3101.76
eigval :     3105.86  3107.29  3113.45

   temp. (K)  partition function   enthalpy   heat capacity  entropy
                                   cal/mol     cal/K/mol   cal/K/mol   J/K/mol
 298.15  VIB  0.369E+12            16882.690    112.840    101.573
         ROT  0.283E+08              888.752      2.981     37.081
         INT  0.105E+20            17771.442    115.821    138.654
         TR   0.104E+29             1481.254      4.968     44.420
         TOT                       19252.6962   120.7887   183.0741   765.9819

       T/K    H(0)-H(T)+PV         H(T)/Eh          T*S/Eh         G(T)/Eh
   ------------------------------------------------------------------------
    298.15    0.306811E-01    0.518842E+00    0.869844E-01    0.431857E+00
   ------------------------------------------------------------------------

         :::::::::::::::::::::::::::::::::::::::::::::::::::::
         ::                  THERMODYNAMIC                  ::
         :::::::::::::::::::::::::::::::::::::::::::::::::::::
         :: total free energy         -96.057948215256 Eh   ::
         ::.................................................::
         :: total energy              -96.489805611154 Eh   ::
         :: zero point energy           0.488160667299 Eh   ::
         :: G(RRHO) w/o ZPVE           -0.056303271402 Eh   ::
         :: G(RRHO) contrib.            0.431857395898 Eh   ::
         :::::::::::::::::::::::::::::::::::::::::::::::::::::

           -------------------------------------------------
          | TOTAL ENERGY              -96.489805611154 Eh   |
          | TOTAL ENTHALPY            -95.970963819555 Eh   |
          | TOTAL FREE ENERGY         -96.057948215256 Eh   |
          | GRADIENT NORM               0.000052850342 Eh/α |
           -------------------------------------------------

 * finished run on 2025/08/24 at 07:35:44.323
