   * xtb version 6.7.1 (edcfbbe) compiled by 'albert@albert-system' on 2024-07-22

   ID    Z sym.   atoms
    1    6 C      1-9, 11-15, 17-30, 32-38
    2    7 N      10, 16, 31
    3    1 H      39-63

          program call               : xtb data2507/gas/α-DMAC-DBP/α-DMAC-DBP_gas_S0_finalOpt.xtbopt.xyz --gfn 2 --spinpol --tblite --uhf 2 --ohess vtight --parallel 40 --molden --ceasefiles --namespace data2507/gas/α-DMAC-DBP/α-DMAC-DBP_gas_T1_preOpt
 * total energy  :   -96.4852897 Eh     change       -0.2753943E-07 Eh
 * total energy  :   -96.4885630 Eh     change       -0.3273358E-02 Eh
 * total energy  :   -96.4895097 Eh     change       -0.9466938E-03 Eh
 * total energy  :   -96.4896360 Eh     change       -0.1262751E-03 Eh
 * total energy  :   -96.4896959 Eh     change       -0.5991608E-04 Eh
 * total energy  :   -96.4897137 Eh     change       -0.1779812E-04 Eh
 * total energy  :   -96.4897296 Eh     change       -0.1590910E-04 Eh
 * total energy  :   -96.4897531 Eh     change       -0.2352157E-04 Eh
 * total energy  :   -96.4897698 Eh     change       -0.1664513E-04 Eh
 * total energy  :   -96.4897750 Eh     change       -0.5228585E-05 Eh
 * total energy  :   -96.4897899 Eh     change       -0.3200053E-05 Eh
 * total energy  :   -96.4897920 Eh     change       -0.2087270E-05 Eh
 * total energy  :   -96.4897934 Eh     change       -0.1394531E-05 Eh
 * total energy  :   -96.4897946 Eh     change       -0.1214511E-05 Eh
 * total energy  :   -96.4897956 Eh     change       -0.9980548E-06 Eh
 * total energy  :   -96.4897963 Eh     change       -0.7091017E-06 Eh
 * total energy  :   -96.4897969 Eh     change       -0.5918158E-06 Eh
 * total energy  :   -96.4897973 Eh     change       -0.4560387E-06 Eh
 * total energy  :   -96.4897974 Eh     change       -0.7130127E-07 Eh
   *** GEOMETRY OPTIMIZATION CONVERGED AFTER 22 ITERATIONS ***

 final structure:
================
63
 xtb: 6.7.1 (edcfbbe)
C           -5.03334375649513        2.01791009189119        0.22817209989991
C           -3.65113761320038        1.55282530196168       -0.26666036881776
C           -3.05334111596731        2.58796805441207       -1.23834429627133
C           -2.73441482747022        1.41978936040739        0.93015558658939
C           -2.47933677471017        2.52808401951710        1.72677230450175
C           -1.67340126277430        2.45470805030106        2.84741595172365
C           -1.12788984114758        1.23536966853118        3.21301083306688
C           -1.36472164256940        0.12132702566553        2.43996394067133
C           -2.13722291447037        0.20121682767656        1.27343307743911
N           -2.31527898607952       -0.93763695078533        0.50606137645733
C           -1.35737195620503       -1.97235014878472        0.65930411825018
C           -1.70301885168125       -3.27058856741931        1.00937683522105
C           -0.72870004198087       -4.25273197457044        1.08615559575250
C            0.59796561551147       -3.95716515161465        0.81967376155124
C            0.98688631915703       -2.66208080034486        0.48476523006144
N            2.25353388779525       -2.31749056399304        0.25044517142225
C            2.61217390776032       -1.06223823680771        0.00180695440110
C            3.97855747133605       -0.71622956167679       -0.24065454477670
C            4.95224542586233       -1.72793515588563       -0.21828190738218
C            6.27070846684901       -1.43918541630759       -0.45621872270852
C            6.64988984578648       -0.12373044382175       -0.72459271829299
C            5.71099163826296        0.87936447412637       -0.74736125300608
C            4.35330554880619        0.62215676767303       -0.50521633346258
C            3.34564991824374        1.65767219941892       -0.50988502907957
C            3.63656311600600        3.01178171791101       -0.73269951508181
C            2.65241735374781        3.97105878532188       -0.71737022543850
C            1.32477843629667        3.61859780556729       -0.47170665098204
C            1.00309674381574        2.30495077964059       -0.25211178321997
C            1.99555334355940        1.31135251150782       -0.27200195569717
C            1.62237550431941       -0.04568341230129       -0.03526711726300
N            0.35121161430505       -0.37815297650008        0.16279456272949
C           -0.01591891247560       -1.62897953346863        0.41470553189184
C           -3.10870562830971       -0.91705530004160       -0.63439122024358
C           -3.22995198987311       -2.06819645857084       -1.42093100349313
C           -4.05113825900503       -2.09265713723826       -2.52697449260870
C           -4.76881155011885       -0.96258743826696       -2.87836147256395
C           -4.62827498794291        0.18638056671833       -2.12400884844548
C           -3.80359947368510        0.24034585645111       -1.00777778364282
H           -5.72114463135908        2.14759968125459       -0.60248634829390
H           -4.95739336535753        2.96409203657426        0.75651692057979
H           -5.45080579103253        1.27755750573262        0.90803637275754
H           -2.92079298385318        3.54847599799631       -0.74803142786301
H           -2.08315896489526        2.24560480074412       -1.59387004163188
H           -3.70160399102770        2.73100464838472       -2.09845594282494
H           -2.91631318520652        3.48057346436981        1.46732942281419
H           -1.48421573343201        3.33853937671524        3.43716516955733
H           -0.51852332140881        1.15261837056116        4.10019770210346
H           -0.95171344652953       -0.83075878192026        2.73576464532035
H           -2.73510059780423       -3.49890753802173        1.22828297237068
H           -1.00523138562818       -5.25877448689625        1.36151123773184
H            1.36069008153654       -4.71596846895685        0.89217283595906
H            4.62738323047504       -2.73616657006712       -0.01094363731415
H            7.01357865221058       -2.22275600075676       -0.43868796081301
H            7.68772301430500        0.10730549817469       -0.91545683704979
H            6.03759491916433        1.88521172883692       -0.95884178471899
H            4.65307682168290        3.32060400412706       -0.91839908207151
H            2.90903229677233        5.00575252910133       -0.89231362871790
H            0.55765939670750        4.37847519673266       -0.45311253235261
H           -0.01282737244573        2.00311913040355       -0.04764141341281
H           -2.66467668305540       -2.95011701396368       -1.16670104917671
H           -4.12766560742106       -2.99480011584598       -3.11509096124297
H           -5.41989199621923       -0.97051868415009       -3.73906362634567
H           -5.17324135038497        1.06865923940937       -2.42349985954649

 projected vibrational frequencies (cm⁻¹)
eigval :       -0.00    -0.00    -0.00    -0.00     0.00     0.00
eigval :       16.36    18.64    24.95    44.34    58.83    68.80
eigval :       84.92    93.10    99.23   103.38   113.27   135.37
eigval :      157.69   162.16   182.52   196.90   206.89   220.66
eigval :      229.89   241.75   246.69   268.81   293.66   305.36
eigval :      328.20   330.91   339.62   346.89   371.40   385.37
eigval :      387.06   396.29   403.92   408.83   415.53   417.82
eigval :      447.57   455.50   497.12   510.67   514.71   520.93
eigval :      526.12   531.41   539.13   540.69   549.17   569.72
eigval :      584.51   584.95   591.12   607.51   610.19   632.57
eigval :      657.24   666.01   673.85   682.17   687.89   700.27
eigval :      701.46   723.36   724.72   765.38   767.62   774.21
eigval :      778.58   779.33   781.83   826.20   839.78   848.91
eigval :      857.95   865.00   873.22   874.55   876.64   903.10
eigval :      908.54   911.05   913.54   914.91   915.52   916.48
eigval :      921.81   922.76   923.18   923.35   937.75   957.62
eigval :     1007.17  1014.43  1034.82  1070.85  1077.01  1082.83
eigval :     1098.77  1099.65  1105.94  1112.89  1118.49  1139.96
eigval :     1147.69  1150.74  1155.74  1169.20  1177.84  1179.96
eigval :     1181.25  1185.53  1187.52  1208.04  1224.50  1241.83
eigval :     1246.00  1248.81  1257.94  1260.85  1262.35  1277.86
eigval :     1286.61  1295.74  1302.17  1317.15  1317.78  1326.83
eigval :     1331.45  1336.09  1352.94  1359.17  1361.64  1392.29
eigval :     1401.86  1404.79  1418.97  1420.59  1429.72  1430.46
eigval :     1434.12  1464.22  1465.41  1468.41  1481.05  1486.17
eigval :     1488.54  1489.66  1499.15  1503.22  1521.59  1536.40
eigval :     1542.12  1552.92  1565.63  1580.13  1584.92  1586.29
eigval :     1594.51  1596.43  3027.76  3029.47  3039.92  3043.43
eigval :     3048.28  3053.13  3074.12  3075.19  3080.85  3081.11
eigval :     3083.63  3084.92  3085.27  3086.39  3087.28  3094.52
eigval :     3095.78  3096.26  3097.45  3097.91  3100.29  3101.08
eigval :     3105.53  3107.17  3112.88

   temp. (K)  partition function   enthalpy   heat capacity  entropy
                                   cal/mol     cal/K/mol   cal/K/mol   J/K/mol
 298.15  VIB  0.402E+12            16889.106    112.834    101.668
         ROT  0.283E+08              888.752      2.981     37.081
         INT  0.114E+20            17777.858    115.815    138.749
         TR   0.104E+29             1481.254      4.968     44.420
         TOT                       19259.1123   120.7831   183.1693   766.3803

       T/K    H(0)-H(T)+PV         H(T)/Eh          T*S/Eh         G(T)/Eh
   ------------------------------------------------------------------------
    298.15    0.306913E-01    0.518808E+00    0.870296E-01    0.431779E+00
   ------------------------------------------------------------------------

         :::::::::::::::::::::::::::::::::::::::::::::::::::::
         ::                  THERMODYNAMIC                  ::
         :::::::::::::::::::::::::::::::::::::::::::::::::::::
         :: total free energy         -96.058018794263 Eh   ::
         ::.................................................::
         :: total energy              -96.489797390245 Eh   ::
         :: zero point energy           0.488116886448 Eh   ::
         :: G(RRHO) w/o ZPVE           -0.056338290466 Eh   ::
         :: G(RRHO) contrib.            0.431778595982 Eh   ::
         :::::::::::::::::::::::::::::::::::::::::::::::::::::

           -------------------------------------------------
          | TOTAL ENERGY              -96.489797390245 Eh   |
          | TOTAL ENTHALPY            -95.970989154780 Eh   |
          | TOTAL FREE ENERGY         -96.058018794263 Eh   |
          | GRADIENT NORM               0.000115817741 Eh/α |
           -------------------------------------------------

 * finished run on 2025/08/24 at 07:32:21.807
