   * xtb version 6.7.1 (edcfbbe) compiled by 'albert@albert-system' on 2024-07-22

   ID    Z sym.   atoms
    1    6 C      1-9, 11-15, 17-30, 32-38
    2    7 N      10, 16, 31
    3    1 H      39-63

          program call               : xtb data2507/gas/α-DMAC-DBP/α-DMAC-DBP_gas_S0_crest.xyz --gfn 2 --ohess vtight --parallel 40 --molden --ceasefiles --namespace data2507/gas/α-DMAC-DBP/α-DMAC-DBP_gas_S0_finalOpt
          :  Hamiltonian                  GFN2-xTB          :
 * total energy  :   -96.5295937 Eh     change       -0.3587402E-08 Eh
 * total energy  :   -96.5295941 Eh     change       -0.3642828E-06 Eh
 * total energy  :   -96.5295944 Eh     change       -0.2845975E-06 Eh
 * total energy  :   -96.5295952 Eh     change       -0.8550373E-06 Eh
 * total energy  :   -96.5295958 Eh     change       -0.5441447E-06 Eh
 * total energy  :   -96.5295960 Eh     change       -0.2390513E-06 Eh
 * total energy  :   -96.5295962 Eh     change       -0.2325802E-06 Eh
 * total energy  :   -96.5295965 Eh     change       -0.3003383E-06 Eh
 * total energy  :   -96.5295968 Eh     change       -0.2996776E-06 Eh
 * total energy  :   -96.5295971 Eh     change       -0.2509652E-06 Eh
 * total energy  :   -96.5295974 Eh     change       -0.2945335E-06 Eh
 * total energy  :   -96.5295978 Eh     change       -0.3978688E-06 Eh
 * total energy  :   -96.5295982 Eh     change       -0.4755739E-06 Eh
 * total energy  :   -96.5295986 Eh     change       -0.3610388E-06 Eh
 * total energy  :   -96.5295989 Eh     change       -0.2526204E-06 Eh
 * total energy  :   -96.5295991 Eh     change       -0.2347701E-06 Eh
 * total energy  :   -96.5295993 Eh     change       -0.2469071E-06 Eh
 * total energy  :   -96.5295995 Eh     change       -0.1658688E-06 Eh
 * total energy  :   -96.5295996 Eh     change       -0.6210031E-07 Eh
   *** GEOMETRY OPTIMIZATION CONVERGED AFTER 19 ITERATIONS ***

 final structure:
================
63
 xtb: 6.7.1 (edcfbbe)
C           -5.04355446009494        2.04695005201219        0.21109192421336
C           -3.66146159487305        1.55958722913794       -0.26141333677896
C           -3.03382308897991        2.58205320350170       -1.22661745507713
C           -2.76467731063697        1.41553559985116        0.95120939835253
C           -2.54305920539519        2.51024363987449        1.77730148457907
C           -1.76699662552406        2.42261069004545        2.91700303035798
C           -1.22149313769198        1.20107459008069        3.27151379990277
C           -1.42346249812432        0.10211145379859        2.46577968540297
C           -2.15522382391725        0.20298664376925        1.27860943718845
N           -2.29700401771301       -0.92327332973104        0.47632745452884
C           -1.33552485545305       -1.94591320881865        0.62925070497109
C           -1.66300323769548       -3.23423726849608        0.96931260653932
C           -0.67071818263628       -4.22334064214387        1.08710905928860
C            0.64799936188186       -3.93586785658013        0.87445023062214
C            1.03056870556730       -2.61994327392967        0.53771970842790
N            2.32108548159648       -2.32344281031578        0.32488036089373
C            2.63426230130970       -1.07591129960341        0.02961749703539
C            4.01601792277571       -0.73209601656176       -0.22530076351713
C            4.98894840921215       -1.73436886846718       -0.18435426491183
C            6.30834362183208       -1.44425381575923       -0.44214997742817
C            6.67148415143115       -0.13805679087356       -0.74974404554418
C            5.72255084840474        0.86028633425604       -0.78910833272427
C            4.37314874698467        0.59826582754871       -0.52501448179035
C            3.35590641026005        1.64152070135191       -0.54262620860221
C            3.65660716418992        2.98907079074119       -0.77299447862366
C            2.67387709275540        3.95534812668118       -0.76880774214642
C            1.34768516215296        3.61426973216500       -0.52722846266922
C            1.02030898556676        2.29881990332610       -0.29654378423157
C            2.00746773370170        1.30947891042159       -0.30768018936598
C            1.63300216868369       -0.06161057724278       -0.05091736057402
N            0.35916190584586       -0.34912948162376        0.12284394855208
C            0.03164308951504       -1.61124613398116        0.41832385807314
C           -3.12246082544443       -0.91151705526285       -0.64320862413367
C           -3.25387192798550       -2.05728185499879       -1.43310897180192
C           -4.08948233802109       -2.07852173269705       -2.52969942533883
C           -4.81014434134902       -0.94831091528879       -2.86886201009049
C           -4.65827638098193        0.19683947827194       -2.11071415653804
C           -3.82347622823818        0.24571175558471       -1.00194761529722
H           -5.71985439213376        2.18121165532685       -0.62825743480701
H           -4.96359250980284        2.99577693734320        0.73394269438809
H           -5.47955172193060        1.31674827638357        0.89032950720466
H           -2.88031799018618        3.53732169437024       -0.73131073148390
H           -2.07060953107038        2.21620720245757       -1.57776669659150
H           -3.67376136231012        2.74297693807622       -2.09025749373330
H           -2.98301143903692        3.46366690004865        1.52522486841834
H           -1.60391073721101        3.29527646050184        3.53113969754239
H           -0.64116510041722        1.10245327730151        4.17695931382547
H           -1.00739312373351       -0.85213423631601        2.75351240168075
H           -2.69570657579535       -3.49036634199696        1.15597233922884
H           -0.96946114734986       -5.22588542965986        1.35568394203364
H            1.41700249408539       -4.68727173900309        0.95850394604494
H            4.66837196511645       -2.73684367652332        0.05196055623656
H            7.05639124541190       -2.22216616067574       -0.41012030637558
H            7.70445005225735        0.09850990755602       -0.95970712178065
H            6.04200097411655        1.86064604960056       -1.03384349474623
H            4.67469282362542        3.29525772178180       -0.95334900739123
H            2.94007849212068        4.98674083515590       -0.94938780315714
H            0.58361797666543        4.37687781255357       -0.51667715166710
H            0.00497281908458        1.99835203644191       -0.09010827097399
H           -2.68386888674112       -2.94135229702486       -1.19518821194964
H           -4.17270033114597       -2.97966146781243       -3.11910729869009
H           -5.47147279135226       -0.95217305536656       -3.72190825759852
H           -5.20285617427720        1.08192265063410       -2.40299613300350

          :  Hamiltonian                  GFN2-xTB          :
         :: gradient norm              0.000051319268 Eh/a0 ::
         :: HOMO-LUMO gap              1.060230578713 eV    ::
         :: SCC energy               -98.289853085048 Eh    ::
         :: -> dispersion             -0.093140916563 Eh    ::
         :: repulsion energy           1.760253520317 Eh    ::

    * Orbital Energies and Occupations

         #    Occupation            Energy/Eh            Energy/eV
      -------------------------------------------------------------
         1        2.0000           -0.6752876             -18.3755
       ...           ...                  ...                  ...
        78        2.0000           -0.4176876             -11.3659
        79        2.0000           -0.4162630             -11.3271
        80        2.0000           -0.4102463             -11.1634
        81        2.0000           -0.4064923             -11.0612
        82        2.0000           -0.4025797             -10.9548
        83        2.0000           -0.3983051             -10.8384
        84        2.0000           -0.3966124             -10.7924
        85        2.0000           -0.3927805             -10.6881
        86        2.0000           -0.3919399             -10.6652
        87        2.0000           -0.3885149             -10.5720
        88        2.0000           -0.3869252             -10.5288
        89        2.0000           -0.3519328              -9.5766
        90        2.0000           -0.3397673              -9.2455 (HOMO)
        91                         -0.3008046              -8.1853 (LUMO)
        92                         -0.2655078              -7.2248
        93                         -0.2531631              -6.8889
        94                         -0.2260112              -6.1501
        95                         -0.2182282              -5.9383
        96                         -0.2175432              -5.9197
        97                         -0.2137086              -5.8153
        98                         -0.2122751              -5.7763
        99                         -0.2033733              -5.5341
       100                         -0.1959511              -5.3321
       101                         -0.1847668              -5.0278
       ...                                ...                  ...
       177                          0.7166256              19.5004
      -------------------------------------------------------------
                  HL-Gap            0.0389627 Eh            1.0602 eV

     #   Z          covCN         q      C6AA      α(0)
     1   6 C        3.761    -0.104    22.527     6.766
     2   6 C        3.909     0.022    20.143     6.379
     3   6 C        3.761    -0.101    22.479     6.759
     4   6 C        2.980    -0.011    28.280     8.723
     5   6 C        2.928    -0.036    28.904     8.817
     6   6 C        2.918    -0.043    29.080     8.843
     7   6 C        2.920    -0.032    28.808     8.802
     8   6 C        2.926    -0.049    29.228     8.866
     9   6 C        2.935     0.066    26.525     8.446
    10   7 N        2.753    -0.058    22.352     7.022
    11   6 C        2.928     0.059    26.672     8.470
    12   6 C        2.917    -0.044    29.083     8.843
    13   6 C        2.916    -0.029    28.727     8.789
    14   6 C        2.915    -0.045    29.122     8.849
    15   6 C        2.964     0.080    26.202     8.396
    16   7 N        1.848    -0.239    27.092     7.714
    17   6 C        2.960     0.084    26.120     8.383
    18   6 C        2.988    -0.001    28.050     8.688
    19   6 C        2.924    -0.027    28.667     8.780
    20   6 C        2.917    -0.028    28.711     8.787
    21   6 C        2.918    -0.027    28.673     8.781
    22   6 C        2.922    -0.034    28.835     8.806
    23   6 C        2.976     0.007    27.853     8.657
    24   6 C        2.976     0.007    27.863     8.658
    25   6 C        2.922    -0.034    28.840     8.807
    26   6 C        2.918    -0.027    28.673     8.781
    27   6 C        2.917    -0.028    28.693     8.784
    28   6 C        2.924    -0.026    28.649     8.778
    29   6 C        2.990    -0.001    28.049     8.688
    30   6 C        2.965     0.085    26.108     8.381
    31   7 N        1.850    -0.239    27.101     7.716
    32   6 C        2.972     0.074    26.343     8.419
    33   6 C        2.925     0.060    26.651     8.466
    34   6 C        2.924    -0.059    29.466     8.902
    35   6 C        2.920    -0.033    28.827     8.805
    36   6 C        2.917    -0.044    29.104     8.847
    37   6 C        2.928    -0.036    28.902     8.816
    38   6 C        2.980    -0.012    28.304     8.727
    39   1 H        0.925     0.039     2.466     2.456
    40   1 H        0.925     0.039     2.463     2.454
    41   1 H        0.925     0.032     2.565     2.504
    42   1 H        0.925     0.038     2.482     2.464
    43   1 H        0.925     0.034     2.528     2.486
    44   1 H        0.925     0.038     2.480     2.463
    45   1 H        0.926     0.029     2.606     2.524
    46   1 H        0.926     0.025     2.661     2.551
    47   1 H        0.926     0.025     2.653     2.547
    48   1 H        0.926     0.020     2.737     2.587
    49   1 H        0.926     0.048     2.350     2.397
    50   1 H        0.926     0.043     2.411     2.428
    51   1 H        0.926     0.054     2.273     2.358
    52   1 H        0.926     0.059     2.207     2.323
    53   1 H        0.926     0.036     2.500     2.472
    54   1 H        0.926     0.035     2.521     2.483
    55   1 H        0.926     0.036     2.498     2.471
    56   1 H        0.926     0.036     2.500     2.473
    57   1 H        0.926     0.035     2.520     2.482
    58   1 H        0.926     0.037     2.495     2.470
    59   1 H        0.926     0.060     2.199     2.319
    60   1 H        0.926     0.026     2.650     2.546
    61   1 H        0.926     0.026     2.639     2.540
    62   1 H        0.926     0.025     2.654     2.547
    63   1 H        0.926     0.030     2.590     2.516

molecular dipole:
                 x           y           z       tot (Debye)
 q only:        0.359       0.280      -0.074
   full:        0.442       0.240      -0.082       1.296

 projected vibrational frequencies (cm⁻¹)
eigval :       -0.00    -0.00     0.00     0.00     0.00     0.00
eigval :       15.42    16.89    24.48    42.20    56.66    67.87
eigval :       83.46    92.34    93.42   104.37   113.88   132.78
eigval :      158.35   160.20   195.60   200.21   208.89   222.02
eigval :      229.33   242.99   247.41   282.30   286.81   305.09
eigval :      332.82   334.54   336.66   348.63   371.54   384.96
eigval :      390.55   395.41   399.23   402.90   411.10   414.87
eigval :      449.77   455.19   495.14   508.69   514.57   520.50
eigval :      533.13   538.21   542.19   547.01   550.30   570.33
eigval :      584.93   586.64   595.56   611.44   623.35   662.24
eigval :      673.47   680.17   683.03   686.63   696.88   703.55
eigval :      724.14   736.67   767.29   768.19   770.00   776.80
eigval :      780.04   789.93   804.19   825.85   843.10   857.74
eigval :      866.74   870.73   873.23   880.47   898.17   912.21
eigval :      913.41   914.71   918.13   920.26   921.73   921.90
eigval :      929.00   929.28   930.34   934.15   938.43   957.09
eigval :     1014.65  1015.79  1047.49  1070.77  1077.75  1085.11
eigval :     1089.96  1102.17  1113.10  1120.75  1121.28  1141.05
eigval :     1146.05  1150.51  1159.81  1170.02  1180.71  1181.24
eigval :     1181.92  1187.28  1190.01  1210.18  1234.87  1244.06
eigval :     1249.17  1251.56  1262.55  1267.26  1282.85  1292.42
eigval :     1295.77  1297.62  1310.41  1323.80  1325.12  1332.26
eigval :     1334.98  1340.92  1351.29  1367.09  1391.71  1402.15
eigval :     1420.50  1427.16  1428.43  1435.73  1439.69  1440.85
eigval :     1462.35  1478.16  1478.79  1489.54  1490.64  1491.35
eigval :     1494.55  1501.47  1505.98  1510.77  1536.26  1556.03
eigval :     1569.39  1575.26  1587.07  1590.14  1592.80  1594.88
eigval :     1599.42  1602.86  3026.71  3029.21  3035.77  3042.25
eigval :     3044.41  3053.25  3074.43  3076.42  3076.90  3077.25
eigval :     3077.91  3081.65  3082.69  3085.99  3088.39  3089.77
eigval :     3091.58  3094.35  3095.03  3099.33  3105.69  3106.22
eigval :     3108.91  3109.57  3109.93

   temp. (K)  partition function   enthalpy   heat capacity  entropy
                                   cal/mol     cal/K/mol   cal/K/mol   J/K/mol
 298.15  VIB  0.491E+12            16794.700    111.833    101.366
         ROT  0.286E+08              888.752      2.981     37.099
         INT  0.140E+20            17683.452    114.813    138.466
         TR   0.104E+29             1481.254      4.968     44.420
         TOT                       19164.7060   119.7816   182.8859   765.1947

       T/K    H(0)-H(T)+PV         H(T)/Eh          T*S/Eh         G(T)/Eh
   ------------------------------------------------------------------------
    298.15    0.305409E-01    0.520739E+00    0.868950E-01    0.433844E+00
   ------------------------------------------------------------------------

         :::::::::::::::::::::::::::::::::::::::::::::::::::::
         ::                  THERMODYNAMIC                  ::
         :::::::::::::::::::::::::::::::::::::::::::::::::::::
         :: total free energy         -96.095755503932 Eh   ::
         ::.................................................::
         :: total energy              -96.529599564730 Eh   ::
         :: zero point energy           0.490198160010 Eh   ::
         :: G(RRHO) w/o ZPVE           -0.056354099213 Eh   ::
         :: G(RRHO) contrib.            0.433844060797 Eh   ::
         :::::::::::::::::::::::::::::::::::::::::::::::::::::

           -------------------------------------------------
          | TOTAL ENERGY              -96.529599564730 Eh   |
          | TOTAL ENTHALPY            -96.008860501750 Eh   |
          | TOTAL FREE ENERGY         -96.095755503932 Eh   |
          | GRADIENT NORM               0.000051295853 Eh/α |
          | HOMO-LUMO GAP               1.060228804297 eV   |
           -------------------------------------------------

 * finished run on 2025/08/24 at 07:32:17.283
