   * xtb version 6.7.1 (edcfbbe) compiled by 'albert@albert-system' on 2024-07-22

   ID    Z sym.   atoms
    1    6 C      1-9, 11-15, 17-30, 32-38
    2    7 N      10, 16, 31
    3    1 H      39-63

          program call               : xtb data2507/gas/α-DMAC-DBP/α-DMAC-DBP.xyz --gfn 2 --ohess vtight --parallel 40 --molden --ceasefiles --namespace data2507/gas/α-DMAC-DBP/α-DMAC-DBP_gas_S0_preOpt
          :  Hamiltonian                  GFN2-xTB          :
 * total energy  :   -96.5020686 Eh     change       -0.1230930E-08 Eh
 * total energy  :   -96.5214867 Eh     change       -0.1941813E-01 Eh
 * total energy  :   -96.5267783 Eh     change       -0.5291601E-02 Eh
 * total energy  :   -96.5273432 Eh     change       -0.5649259E-03 Eh
 * total energy  :   -96.5276054 Eh     change       -0.2621488E-03 Eh
 * total energy  :   -96.5276740 Eh     change       -0.6863558E-04 Eh
 * total energy  :   -96.5277134 Eh     change       -0.3935530E-04 Eh
 * total energy  :   -96.5277509 Eh     change       -0.3749851E-04 Eh
 * total energy  :   -96.5277839 Eh     change       -0.3300424E-04 Eh
 * total energy  :   -96.5278281 Eh     change       -0.4417290E-04 Eh
 * total energy  :   -96.5284482 Eh     change       -0.1296175E-05 Eh
 * total energy  :   -96.5284494 Eh     change       -0.1179255E-05 Eh
 * total energy  :   -96.5284504 Eh     change       -0.9836391E-06 Eh
 * total energy  :   -96.5284511 Eh     change       -0.7652976E-06 Eh
 * total energy  :   -96.5284517 Eh     change       -0.5952968E-06 Eh
 * total energy  :   -96.5284522 Eh     change       -0.4824519E-06 Eh
 * total energy  :   -96.5284526 Eh     change       -0.4224703E-06 Eh
 * total energy  :   -96.5284530 Eh     change       -0.4077829E-06 Eh
 * total energy  :   -96.5284530 Eh     change       -0.4599173E-08 Eh
   *** GEOMETRY OPTIMIZATION CONVERGED AFTER 94 ITERATIONS ***

 final structure:
================
63
 xtb: 6.7.1 (edcfbbe)
C           -5.29011615196871        0.71897436293103        0.00014727059658
C           -3.76266942980526        0.91214852358427       -0.00005267054424
C           -3.41447656943263        2.41190596911287       -0.00023219229761
C           -3.19312266860681        0.28184764461117        1.25681106724682
C           -3.58009242863871        0.76299419329105        2.49988920787066
C           -3.08952614841041        0.23172093916987        3.67837357025181
C           -2.18408821538990       -0.81232310298969        3.62416272864263
C           -1.78799118816528       -1.31385800400895        2.40244880712950
C           -2.28375963897611       -0.77948866586389        1.21004996302670
N           -1.88964768534113       -1.32622729952406       -0.00006759937300
C           -0.83395549581590       -2.27450758090306       -0.00009524362327
C           -1.06931718437570       -3.62353243879207       -0.00017039726389
C           -0.00080641411947       -4.53886127009191       -0.00020331047955
C            1.29638549646089       -4.11063467451960       -0.00017158732863
C            1.57940526311592       -2.72785144863487       -0.00009825678912
N            2.84892929041762       -2.29628477868165       -0.00008332520473
C            3.06329730032072       -0.99441183342602       -0.00000956722315
C            4.42392987042524       -0.50345262450845       -0.00000223608057
C            5.48023507663525       -1.41853024553350       -0.00011100346717
C            6.78548912058701       -0.98535353437667       -0.00011449294034
C            7.05061063677399        0.37930461352717       -0.00000405616688
C            6.01817269546596        1.29192908737388        0.00010125909352
C            4.67960056632822        0.88261683287727        0.00010487642985
C            3.57165979650720        1.82899907367541        0.00021456377799
C            3.76123590656611        3.21589630779007        0.00034847538695
C            2.69366851266780        4.08736326526800        0.00044505314646
C            1.38872336324095        3.60717373445832        0.00041011729373
C            1.17024005882784        2.24956848873988        0.00028255092635
C            2.24489056064935        1.35611415522862        0.00018534616049
C            1.97894339704042       -0.06397458092252        0.00006574567730
N            0.72741761051926       -0.47630065572719        0.00003570111043
C            0.50231492884203       -1.79517771473293       -0.00005010419047
C           -2.28402169361444       -0.77969429601509       -1.21019267481893
C           -1.78847041534996       -1.31422551434632       -2.40260959054344
C           -2.18485159912824       -0.81290989216158       -3.62432144284524
C           -3.09035320825860        0.23107967820639       -3.67851162064470
C           -3.58067557685035        0.76253812884620       -2.50000926906776
C           -3.19341733513267        0.28161581615965       -1.25693452287320
H           -5.73817934839614        1.17041649549934       -0.88098980697689
H           -5.73796909371476        1.17055441239214        0.88132102660308
H           -5.52812330033723       -0.34315154169261        0.00025877793297
H           -3.81763832263300        2.90553636224826        0.87968719662549
H           -2.33360480513223        2.53924698941891       -0.00036960290279
H           -3.81783820930093        2.90536943165242       -0.88015281192573
H           -4.28660283132182        1.57752586682803        2.55786473942545
H           -3.41164408839891        0.63036095293911        4.62845577833918
H           -1.78606650857101       -1.24039479697279        4.53239172935817
H           -1.08380860320273       -2.13164427521277        2.36737725080819
H           -2.08705670192153       -3.98486089766610       -0.00020277426905
H           -0.22272499486657       -5.59566112986573       -0.00025851286531
H            2.12498791625609       -4.80120350360551       -0.00020799903893
H            5.23562373465037       -2.46908996610910       -0.00019389623282
H            7.59821199390384       -1.69609671291225       -0.00019430105561
H            8.07259664108341        0.72935933634589       -0.00000131148981
H            6.26371071458693        2.34180664551904        0.00018247646629
H            4.75773881404114        3.62774145004886        0.00037548583248
H            2.87494945485915        5.15235242505777        0.00054268049979
H            0.55722931659713        4.29589783981608        0.00048955014123
H            0.17357589568252        1.83623477106979        0.00027159972110
H           -1.08422705601777       -2.13195966748077       -2.36755417027588
H           -1.78700151605149       -1.24111146502389       -4.53256432356955
H           -3.41270061823674        0.62954154841659       -4.62859047871188
H           -4.28722388756769        1.57703777019879       -2.55796744244147

          :  Hamiltonian                  GFN2-xTB          :
         :: gradient norm              0.000052775988 Eh/a0 ::
         :: HOMO-LUMO gap              0.943219676714 eV    ::
         :: SCC energy               -98.289588020376 Eh    ::
         :: -> dispersion             -0.090822995055 Eh    ::
         :: repulsion energy           1.761134983753 Eh    ::

    * Orbital Energies and Occupations

         #    Occupation            Energy/Eh            Energy/eV
      -------------------------------------------------------------
         1        2.0000           -0.6778517             -18.4453
       ...           ...                  ...                  ...
        78        2.0000           -0.4184916             -11.3877
        79        2.0000           -0.4181446             -11.3783
        80        2.0000           -0.4119210             -11.2089
        81        2.0000           -0.4056334             -11.0378
        82        2.0000           -0.4008529             -10.9078
        83        2.0000           -0.3994332             -10.8691
        84        2.0000           -0.3957152             -10.7680
        85        2.0000           -0.3942230             -10.7274
        86        2.0000           -0.3905554             -10.6276
        87        2.0000           -0.3902359             -10.6189
        88        2.0000           -0.3853975             -10.4872
        89        2.0000           -0.3530132              -9.6060
        90        2.0000           -0.3382497              -9.2042 (HOMO)
        91                         -0.3035871              -8.2610 (LUMO)
        92                         -0.2678011              -7.2872
        93                         -0.2549614              -6.9379
        94                         -0.2276100              -6.1936
        95                         -0.2201965              -5.9919
        96                         -0.2160983              -5.8803
        97                         -0.2115946              -5.7578
        98                         -0.2104489              -5.7266
        99                         -0.2049059              -5.5758
       100                         -0.1976540              -5.3784
       101                         -0.1826750              -4.9708
       ...                                ...                  ...
       177                          0.7140778              19.4310
      -------------------------------------------------------------
                  HL-Gap            0.0346627 Eh            0.9432 eV

     #   Z          covCN         q      C6AA      α(0)
     1   6 C        3.761    -0.103    22.508     6.763
     2   6 C        3.909     0.022    20.148     6.380
     3   6 C        3.761    -0.101    22.485     6.760
     4   6 C        2.979    -0.013    28.332     8.731
     5   6 C        2.928    -0.036    28.902     8.817
     6   6 C        2.917    -0.045    29.128     8.850
     7   6 C        2.920    -0.033    28.824     8.804
     8   6 C        2.925    -0.056    29.392     8.891
     9   6 C        2.931     0.063    26.591     8.457
    10   7 N        2.755    -0.061    22.417     7.032
    11   6 C        2.929     0.063    26.588     8.456
    12   6 C        2.917    -0.040    28.987     8.829
    13   6 C        2.916    -0.028    28.705     8.786
    14   6 C        2.916    -0.042    29.055     8.839
    15   6 C        2.965     0.081    26.197     8.395
    16   7 N        1.848    -0.238    27.065     7.710
    17   6 C        2.960     0.085    26.102     8.380
    18   6 C        2.988    -0.001    28.046     8.687
    19   6 C        2.924    -0.026    28.662     8.780
    20   6 C        2.917    -0.028    28.704     8.786
    21   6 C        2.918    -0.026    28.662     8.779
    22   6 C        2.922    -0.033    28.830     8.805
    23   6 C        2.976     0.008    27.844     8.656
    24   6 C        2.976     0.007    27.851     8.657
    25   6 C        2.922    -0.033    28.831     8.805
    26   6 C        2.918    -0.026    28.659     8.779
    27   6 C        2.917    -0.027    28.688     8.783
    28   6 C        2.924    -0.024    28.611     8.772
    29   6 C        2.989    -0.001    28.038     8.686
    30   6 C        2.966     0.086    26.085     8.377
    31   7 N        1.849    -0.236    27.020     7.704
    32   6 C        2.973     0.075    26.321     8.415
    33   6 C        2.931     0.063    26.591     8.457
    34   6 C        2.925    -0.056    29.392     8.891
    35   6 C        2.920    -0.033    28.824     8.804
    36   6 C        2.917    -0.045    29.128     8.850
    37   6 C        2.928    -0.036    28.902     8.817
    38   6 C        2.979    -0.013    28.332     8.731
    39   1 H        0.925     0.038     2.472     2.459
    40   1 H        0.925     0.038     2.472     2.459
    41   1 H        0.925     0.031     2.575     2.509
    42   1 H        0.925     0.038     2.478     2.462
    43   1 H        0.925     0.032     2.565     2.504
    44   1 H        0.925     0.038     2.478     2.462
    45   1 H        0.926     0.028     2.609     2.526
    46   1 H        0.926     0.024     2.671     2.556
    47   1 H        0.926     0.025     2.660     2.551
    48   1 H        0.926     0.018     2.765     2.600
    49   1 H        0.926     0.049     2.331     2.388
    50   1 H        0.926     0.045     2.382     2.413
    51   1 H        0.926     0.056     2.248     2.345
    52   1 H        0.926     0.060     2.202     2.321
    53   1 H        0.926     0.037     2.491     2.468
    54   1 H        0.926     0.035     2.512     2.478
    55   1 H        0.926     0.037     2.490     2.468
    56   1 H        0.926     0.037     2.491     2.468
    57   1 H        0.926     0.036     2.507     2.476
    58   1 H        0.926     0.037     2.489     2.467
    59   1 H        0.926     0.058     2.222     2.331
    60   1 H        0.926     0.018     2.765     2.600
    61   1 H        0.926     0.025     2.660     2.551
    62   1 H        0.926     0.024     2.671     2.556
    63   1 H        0.926     0.028     2.609     2.526

molecular dipole:
                 x           y           z       tot (Debye)
 q only:        0.511       0.210       0.000
   full:        0.607       0.177       0.000       1.607

 projected vibrational frequencies (cm⁻¹)
eigval :       -0.00    -0.00    -0.00     0.00     0.00     0.00
eigval :      -12.67    13.30    18.49    37.34    51.11    60.94
eigval :       81.63    88.17    94.41    96.57   112.99   123.81
eigval :      150.18   151.80   188.64   193.38   208.17   219.21
eigval :      226.34   240.11   243.43   277.95   283.22   303.36
eigval :      330.95   334.72   336.20   346.27   368.68   385.04
eigval :      389.47   395.62   398.51   402.83   409.67   413.67
eigval :      447.97   451.83   499.24   501.18   515.42   518.61
eigval :      531.78   537.86   539.40   544.15   548.09   569.90
eigval :      585.22   586.37   596.07   611.46   625.93   662.80
eigval :      676.54   677.92   681.88   685.05   694.40   702.99
eigval :      724.43   737.28   767.64   767.86   769.81   775.84
eigval :      776.92   789.89   801.01   825.19   843.44   859.10
eigval :      863.79   864.29   869.43   879.40   892.89   911.77
eigval :      912.57   916.32   917.12   919.98   920.00   920.66
eigval :      923.91   928.42   929.58   934.11   938.27   956.57
eigval :     1014.33  1015.70  1046.99  1070.42  1077.65  1085.08
eigval :     1089.14  1102.08  1112.38  1119.36  1120.46  1141.02
eigval :     1145.89  1150.56  1160.46  1168.90  1179.51  1181.51
eigval :     1182.15  1187.65  1187.80  1210.14  1234.98  1243.34
eigval :     1249.77  1249.80  1260.52  1268.81  1283.86  1293.05
eigval :     1295.24  1300.07  1314.52  1324.70  1326.81  1333.48
eigval :     1336.86  1345.49  1351.53  1366.62  1392.68  1401.87
eigval :     1420.04  1427.03  1428.35  1437.65  1441.74  1444.59
eigval :     1462.71  1479.15  1482.15  1489.67  1490.49  1491.09
eigval :     1498.00  1500.91  1505.33  1510.05  1538.82  1556.45
eigval :     1569.53  1576.17  1587.13  1591.21  1593.71  1596.80
eigval :     1599.79  1603.51  3026.66  3029.02  3037.32  3040.40
eigval :     3046.14  3050.81  3074.56  3074.69  3077.18  3077.88
eigval :     3079.02  3079.18  3084.15  3088.28  3088.34  3088.70
eigval :     3089.50  3094.27  3095.03  3096.06  3100.11  3105.21
eigval :     3105.26  3109.32  3110.58

   temp. (K)  partition function   enthalpy   heat capacity  entropy
                                   cal/mol     cal/K/mol   cal/K/mol   J/K/mol
 298.15  VIB  0.185E+13            16934.337    111.669    103.110
         ROT  0.296E+08              888.752      2.981     37.166
         INT  0.547E+20            17823.090    114.650    140.276
         TR   0.104E+29             1481.254      4.968     44.420
         TOT                       19304.3436   119.6184   184.6966   772.7705

       T/K    H(0)-H(T)+PV         H(T)/Eh          T*S/Eh         G(T)/Eh
   ------------------------------------------------------------------------
    298.15    0.307634E-01    0.520595E+00    0.877553E-01    0.432840E+00
   ------------------------------------------------------------------------

         :::::::::::::::::::::::::::::::::::::::::::::::::::::
         ::                  THERMODYNAMIC                  ::
         :::::::::::::::::::::::::::::::::::::::::::::::::::::
         :: total free energy         -96.095613172658 Eh   ::
         ::.................................................::
         :: total energy              -96.528453036622 Eh   ::
         :: zero point energy           0.489831734966 Eh   ::
         :: G(RRHO) w/o ZPVE           -0.056991871001 Eh   ::
         :: G(RRHO) contrib.            0.432839863965 Eh   ::
         :::::::::::::::::::::::::::::::::::::::::::::::::::::

           -------------------------------------------------
          | TOTAL ENERGY              -96.528453036622 Eh   |
          | TOTAL ENTHALPY            -96.007857872001 Eh   |
          | TOTAL FREE ENERGY         -96.095613172658 Eh   |
          | GRADIENT NORM               0.000052781237 Eh/α |
          | HOMO-LUMO GAP               0.943218934668 eV   |
           -------------------------------------------------

 * finished run on 2025/08/24 at 07:28:58.955
