   * xtb version 6.7.1 (edcfbbe) compiled by 'albert@albert-system' on 2024-07-22

   ID    Z sym.   atoms
    1    6 C      1-20, 22-38, 41-47, 49-66
    2    7 N      21, 39, 40, 48
    3    1 H      67-116

          program call               : xtb data2507/gas/DTPCZPYTZ/DTPCZPYTZ_gas_S0_finalOpt.xtbopt.xyz --gfn 2 --spinpol --tblite --uhf 2 --ohess vtight --parallel 40 --molden --ceasefiles --namespace data2507/gas/DTPCZPYTZ/DTPCZPYTZ_gas_T1_preOpt
 * total energy  :  -169.9976193 Eh     change       -0.8665418E-07 Eh
 * total energy  :  -170.0036531 Eh     change       -0.6033794E-02 Eh
 * total energy  :  -170.0053663 Eh     change       -0.1713258E-02 Eh
 * total energy  :  -170.0055771 Eh     change       -0.2107941E-03 Eh
 * total energy  :  -170.0058739 Eh     change       -0.2967283E-03 Eh
 * total energy  :  -170.0060099 Eh     change       -0.1360066E-03 Eh
 * total energy  :  -170.0061000 Eh     change       -0.9016434E-04 Eh
 * total energy  :  -170.0061445 Eh     change       -0.4450538E-04 Eh
 * total energy  :  -170.0061816 Eh     change       -0.3707125E-04 Eh
 * total energy  :  -170.0062244 Eh     change       -0.4282909E-04 Eh
 * total energy  :  -170.0069836 Eh     change       -0.1495591E-06 Eh
 * total energy  :  -170.0069837 Eh     change       -0.1091600E-06 Eh
 * total energy  :  -170.0069839 Eh     change       -0.2544885E-06 Eh
 * total energy  :  -170.0069841 Eh     change       -0.1985347E-06 Eh
 * total energy  :  -170.0069843 Eh     change       -0.1582943E-06 Eh
 * total energy  :  -170.0069844 Eh     change       -0.1205492E-06 Eh
 * total energy  :  -170.0069846 Eh     change       -0.1647673E-06 Eh
 * total energy  :  -170.0069849 Eh     change       -0.2910067E-06 Eh
 * total energy  :  -170.0069849 Eh     change       -0.3263148E-07 Eh
   *** GEOMETRY OPTIMIZATION CONVERGED AFTER 202 ITERATIONS ***

 final structure:
================
116
 xtb: 6.7.1 (edcfbbe)
C          -11.69553918806704       -4.64295539973748       -1.50641538858205
C          -11.62899281318161       -3.96493047442475       -0.13050243799860
C          -12.97737848640501       -3.28762056314328        0.12960640800516
C          -11.40855564654420       -5.02221037533620        0.96067088761201
C          -10.46817059508468       -2.98149949063702       -0.11506192754983
C           -9.17230346298928       -3.46071040727343       -0.34866230963268
C           -8.06069436576595       -2.64294389984898       -0.36288279055766
C           -8.24732429758998       -1.28631585985982       -0.14512030558009
C           -9.53751908838824       -0.78321164418716        0.12440195196556
C          -10.63805706447439       -1.62850698992768        0.13345904574425
C           -9.38364471733522        0.62646373185851        0.36287199979669
C          -10.28642435341073        1.64034964204047        0.65091358248937
C           -9.83360601877158        2.94134993396196        0.80434055175240
C          -10.76358684086961        4.10117453183458        1.12797615774582
C          -10.69454465346484        5.13434909603178       -0.00558188005420
C          -10.32087094389316        4.74702494830678        2.44862607736356
C          -12.22206433709201        3.66081292689703        1.28104068570024
C           -8.46542194498172        3.19654239736785        0.64201178763162
C           -7.54634067267690        2.20792024478401        0.35492961161769
C           -8.00692923148043        0.90572832047536        0.23370858961112
N           -7.32708688127832       -0.25749618368660       -0.07558204384310
C           -5.95377142545865       -0.36760956317167       -0.29216013131712
C           -5.04763690706055        0.21903157273285        0.59386995463376
C           -3.69417814892566        0.13062704428089        0.36629131189859
C           -3.18613820584223       -0.55550109118544       -0.74769488857691
C           -1.76192123230411       -0.67569545421858       -0.98009081233845
C           -1.23599068206369       -1.91440133302266       -1.37655536908162
C            0.10896521696884       -2.13033614916306       -1.47369335479094
C            1.04033659981686       -1.08680742385438       -1.18664630409707
C            2.41546105725251       -1.28058189069507       -1.28027503391641
C            3.30579924338074       -0.25428644402357       -0.99742738611518
C            2.85370263862137        1.00892274911195       -0.60997339194817
C            3.75691007771878        2.09052755942193       -0.30373447147458
C            5.17864981915251        1.87533537240122       -0.12673871706396
C            5.66740075063563        0.77779190114300        0.59754426752881
C            7.01776633887672        0.57652793321301        0.76493856345865
C            7.94047858712712        1.46212068874371        0.20132181950321
C            9.36993771353262        1.28421816665642        0.32299333668723
N           10.23730805268460        2.26471646515060        0.39730184129215
N           11.45470839564384        1.74615113817718        0.53195851256489
C           11.35716814585241        0.44034124871616        0.53634865065161
C           12.49018094990332       -0.46249511392376        0.62851227464236
C           13.59713107238150       -0.05679902348924        1.37376996985911
C           14.70341637317632       -0.87660872003266        1.47799394448844
C           14.72216394865291       -2.10565958882693        0.83756056994597
C           13.63483402784243       -2.50336885092773        0.07783030617490
C           12.52335012831698       -1.68855552053557       -0.03264217017111
N           10.03509475120442        0.08020904868957        0.40633278499247
C            9.48779626762850       -1.21266661037083        0.35562661017600
C            9.73330672004678       -2.11023099614295        1.38910619124637
C            9.18968590439650       -3.38017683189083        1.33205390688450
C            8.40095860859276       -3.75449266376279        0.25650231032634
C            8.15759721249740       -2.85711752066887       -0.77060108582693
C            8.70087918816127       -1.58672412651629       -0.72876053413993
C            7.46346832835296        2.58891044703248       -0.47597059683927
C            6.11345685341825        2.79292491515097       -0.63118543899106
C            3.23353651319185        3.38107631883324       -0.13639923079455
C            1.88936142536455        3.62304904591755       -0.15619230717725
C            0.95739789538355        2.56167016628493       -0.36442234964570
C           -0.41642073170710        2.78299207939616       -0.39308311127909
C           -1.30756907552008        1.73849138242412       -0.59606000125954
C           -0.85762764343621        0.42908645203358       -0.77673796776036
C            0.54296248748294        0.19642795800093       -0.84139090918010
C            1.45357859168531        1.25244563513426       -0.59461676933992
C           -4.10819285778674       -1.16778727406618       -1.60988712478429
C           -5.46321171908341       -1.06740741146866       -1.39605016281919
H          -10.78680708329748       -5.19841212751997       -1.72055554764771
H          -11.83056385490895       -3.89652184567013       -2.28654022802098
H          -12.53370800357073       -5.33576632337935       -1.54262637852926
H          -13.76946397665006       -4.03310190457902        0.09678908517169
H          -12.99804645924555       -2.82032058178346        1.11141460707735
H          -13.19095162153992       -2.53752309452696       -0.62840790816238
H          -12.24152676912248       -5.72198834575441        0.97812139724517
H          -10.49537155271195       -5.58537083311981        0.78982590301859
H          -11.33712596471517       -4.54559764690255        1.93621161209643
H           -9.02173971269177       -4.51531036661025       -0.52196615165623
H           -7.07716186573185       -3.05741508496775       -0.52489361813966
H          -11.60845187713529       -1.20958051933118        0.34095940054857
H          -11.33010733332486        1.39065551016813        0.74367118689285
H          -11.37155179593855        5.96108868997221        0.19929805252718
H           -9.69146446342996        5.53646057373393       -0.11657197014719
H          -10.98407671782330        4.67633311365384       -0.94916627914536
H          -10.98730920511915        5.56749217588195        2.70648127649449
H          -10.34819084649867        4.01422103098482        3.25252294056246
H           -9.31019579593551        5.13948756355759        2.38023453291940
H          -12.59882435273316        3.22618936349787        0.35803854143457
H          -12.33014255539604        2.93862086042340        2.08701881768081
H          -12.83820860617760        4.52534111933266        1.52012445199697
H           -8.10102622390297        4.20786717917135        0.73824217181256
H           -6.50401363667017        2.45214590429283        0.21643095390141
H           -5.41879948044316        0.71757013952316        1.47697655490529
H           -3.00589185924246        0.55012875291258        1.08505288873076
H           -1.91982287523925       -2.73346792044508       -1.54945603309199
H            0.49319252882596       -3.10160785619232       -1.74809636997878
H            2.79246684341607       -2.24708565287671       -1.58313935941905
H            4.36456889012385       -0.43285813505625       -1.10746956819888
H            4.96757218614980        0.10512960558160        1.07164768944880
H            7.35787816287184       -0.25857887328947        1.35988771332361
H           13.56718306912986        0.90570472824620        1.85992407688344
H           15.55524505864802       -0.55780672837624        2.06026107401193
H           15.58593490393869       -2.74834316146286        0.92240184983010
H           13.65265858427724       -3.45251840657930       -0.43764819645081
H           11.69317792122133       -2.00013653436075       -0.64943413826241
H           10.34691207934530       -1.80739601372865        2.22477490671160
H            9.38029667416694       -4.07767640681519        2.13361139024517
H            7.97605248339684       -4.74600570561002        0.21857452486877
H            7.54524664999755       -3.14748062974814       -1.61094978923672
H            8.51983867539124       -0.88018067835077       -1.52544916161834
H            8.18089581208700        3.28511282231491       -0.88155469220272
H            5.76460155408640        3.64965808634442       -1.18838125534219
H            3.91745408071718        4.19134167450202        0.07230707836957
H            1.50603171266097        4.61938947745358        0.00686295378684
H           -0.79189226107858        3.78747442137882       -0.25948309222131
H           -2.36425166877344        1.95257408073250       -0.64438205272087
H           -3.74763558314972       -1.68413934357238       -2.48708712289879
H           -6.15830340249673       -1.50238821063840       -2.09868477451891

 projected vibrational frequencies (cm⁻¹)
eigval :       -0.00    -0.00     0.00     0.00     0.00     0.00
eigval :        5.24     6.17     8.58    13.07    15.23    21.91
eigval :       27.01    30.56    31.27    33.20    41.04    46.49
eigval :       50.14    53.33    59.13    67.74    72.89    79.08
eigval :       85.08    96.49   105.16   111.86   114.14   121.23
eigval :      129.63   134.85   146.50   156.60   160.70   170.30
eigval :      177.33   183.89   193.48   202.10   202.84   217.84
eigval :      221.66   227.38   229.47   233.74   243.91   248.05
eigval :      254.52   258.67   273.22   278.49   288.59   302.00
eigval :      307.44   317.23   319.37   322.12   323.24   338.39
eigval :      346.54   358.81   359.61   365.77   371.61   373.52
eigval :      377.37   384.73   389.29   391.13   399.57   400.46
eigval :      404.00   410.08   410.68   413.71   427.17   440.71
eigval :      442.72   444.64   460.67   462.54   466.05   473.41
eigval :      479.83   481.90   490.60   492.95   498.35   508.66
eigval :      517.84   532.95   536.18   551.71   570.45   575.00
eigval :      582.31   585.11   586.07   591.86   595.33   604.36
eigval :      609.04   616.15   622.45   631.70   640.58   643.98
eigval :      657.78   662.80   666.98   671.96   677.40   683.20
eigval :      687.47   688.98   691.62   693.36   704.77   707.82
eigval :      709.02   720.68   728.54   741.37   746.39   749.62
eigval :      762.49   768.85   771.03   785.29   808.12   813.69
eigval :      818.52   819.91   823.17   826.18   832.01   832.25
eigval :      864.82   865.64   873.04   873.51   873.85   874.02
eigval :      876.75   879.50   891.31   893.09   898.45   903.37
eigval :      905.28   907.16   912.63   915.25   922.27   923.84
eigval :      925.76   927.06   928.96   929.09   931.20   931.94
eigval :      938.53   939.34   944.45   951.01   958.76   960.06
eigval :      960.13   962.52   962.66   962.72   962.96   975.09
eigval :      986.57   998.78  1010.63  1030.94  1031.20  1035.10
eigval :     1035.23  1035.42  1040.73  1041.62  1079.24  1082.45
eigval :     1104.79  1108.18  1115.40  1117.06  1120.93  1129.67
eigval :     1129.82  1138.50  1140.63  1143.26  1150.63  1155.36
eigval :     1161.94  1171.45  1174.58  1180.17  1180.98  1187.08
eigval :     1189.95  1196.48  1198.24  1198.75  1206.24  1212.04
eigval :     1214.61  1227.54  1227.64  1227.82  1231.14  1231.59
eigval :     1232.00  1236.11  1243.61  1259.18  1263.89  1267.79
eigval :     1273.96  1275.96  1278.84  1279.37  1284.40  1301.76
eigval :     1302.94  1304.98  1308.83  1313.59  1315.66  1318.34
eigval :     1319.11  1321.72  1327.23  1342.14  1343.42  1348.14
eigval :     1354.65  1376.26  1377.83  1383.13  1385.68  1387.56
eigval :     1401.25  1403.63  1404.86  1405.00  1407.80  1410.40
eigval :     1414.81  1419.72  1426.74  1426.84  1429.93  1434.82
eigval :     1437.63  1442.01  1452.10  1455.91  1468.28  1477.29
eigval :     1479.78  1482.16  1483.80  1490.64  1490.73  1493.24
eigval :     1493.99  1494.07  1499.76  1499.95  1503.85  1504.08
eigval :     1509.55  1512.25  1513.81  1514.20  1515.07  1518.37
eigval :     1518.43  1519.27  1525.50  1526.66  1534.68  1556.35
eigval :     1568.25  1575.13  1579.04  1581.06  1581.91  1583.31
eigval :     1594.10  1596.82  1597.62  1611.47  3021.05  3021.19
eigval :     3022.52  3022.72  3026.17  3026.21  3029.19  3029.48
eigval :     3029.59  3029.69  3034.84  3035.12  3036.37  3036.69
eigval :     3045.39  3045.49  3049.22  3049.37  3068.30  3071.17
eigval :     3071.43  3073.75  3074.41  3075.60  3080.00  3080.24
eigval :     3080.76  3082.01  3082.56  3082.69  3083.29  3084.05
eigval :     3084.18  3086.64  3087.58  3087.61  3090.14  3091.82
eigval :     3092.09  3092.89  3093.62  3093.75  3094.20  3095.09
eigval :     3095.36  3102.31  3105.45  3107.67  3116.27  3119.87

   temp. (K)  partition function   enthalpy   heat capacity  entropy
                                   cal/mol     cal/K/mol   cal/K/mol   J/K/mol
 298.15  VIB  0.159E+28            33461.117    208.338    209.575
         ROT  0.375E+09              888.752      2.981     42.212
         INT  0.596E+36            34349.869    211.319    251.787
         TR   0.240E+29             1481.254      4.968     46.080
         TOT                       35831.1229   216.2870   297.8671  1246.2760

       T/K    H(0)-H(T)+PV         H(T)/Eh          T*S/Eh         G(T)/Eh
   ------------------------------------------------------------------------
    298.15    0.571005E-01    0.980056E+00    0.141526E+00    0.838529E+00
   ------------------------------------------------------------------------

         :::::::::::::::::::::::::::::::::::::::::::::::::::::
         ::                  THERMODYNAMIC                  ::
         :::::::::::::::::::::::::::::::::::::::::::::::::::::
         :: total free energy        -169.168455618061 Eh   ::
         ::.................................................::
         :: total energy             -170.006985021153 Eh   ::
         :: zero point energy           0.922955151233 Eh   ::
         :: G(RRHO) w/o ZPVE           -0.084425748140 Eh   ::
         :: G(RRHO) contrib.            0.838529403093 Eh   ::
         :::::::::::::::::::::::::::::::::::::::::::::::::::::

           -------------------------------------------------
          | TOTAL ENERGY             -170.006985021153 Eh   |
          | TOTAL ENTHALPY           -169.026929340966 Eh   |
          | TOTAL FREE ENERGY        -169.168455618061 Eh   |
          | GRADIENT NORM               0.000052597725 Eh/α |
           -------------------------------------------------

 * finished run on 2025/08/22 at 15:43:50.002
