   * xtb version 6.7.1 (edcfbbe) compiled by 'albert@albert-system' on 2024-07-22

   ID    Z sym.   atoms
    1    6 C      1-20, 22-38, 41-47, 49-66
    2    7 N      21, 39, 40, 48
    3    1 H      67-116

          program call               : xtb data2507/gas/DTPCZPYTZ/DTPCZPYTZ.xyz --gfn 2 --ohess vtight --parallel 40 --molden --ceasefiles --namespace data2507/gas/DTPCZPYTZ/DTPCZPYTZ_gas_S0_preOpt
          :  Hamiltonian                  GFN2-xTB          :
 * total energy  :  -170.0402163 Eh     change       -0.2864283E-08 Eh
 * total energy  :  -170.0586771 Eh     change       -0.1846073E-01 Eh
 * total energy  :  -170.0636728 Eh     change       -0.4995754E-02 Eh
 * total energy  :  -170.0650706 Eh     change       -0.1397787E-02 Eh
 * total energy  :  -170.0661883 Eh     change       -0.1117634E-02 Eh
 * total energy  :  -170.0668109 Eh     change       -0.6226911E-03 Eh
 * total energy  :  -170.0673142 Eh     change       -0.5032295E-03 Eh
 * total energy  :  -170.0677909 Eh     change       -0.4767027E-03 Eh
 * total energy  :  -170.0682714 Eh     change       -0.4805381E-03 Eh
 * total energy  :  -170.0687824 Eh     change       -0.5109423E-03 Eh
 * total energy  :  -170.0722509 Eh     change       -0.6498419E-06 Eh
 * total energy  :  -170.0722518 Eh     change       -0.9200852E-06 Eh
 * total energy  :  -170.0722529 Eh     change       -0.1107332E-05 Eh
 * total energy  :  -170.0722540 Eh     change       -0.1106097E-05 Eh
 * total energy  :  -170.0722550 Eh     change       -0.1020268E-05 Eh
 * total energy  :  -170.0722560 Eh     change       -0.9862059E-06 Eh
 * total energy  :  -170.0722571 Eh     change       -0.1023602E-05 Eh
 * total energy  :  -170.0722581 Eh     change       -0.1012532E-05 Eh
 * total energy  :  -170.0722581 Eh     change       -0.4481052E-08 Eh
   *** GEOMETRY OPTIMIZATION CONVERGED AFTER 185 ITERATIONS ***

 final structure:
================
116
 xtb: 6.7.1 (edcfbbe)
C          -10.52972622090660       -4.79804572944529       -1.51604807163475
C          -10.57069680946300       -4.03837451139137       -0.18244976577293
C          -11.93243436735422       -3.34689035586128       -0.07275699948587
C          -10.44467323937638       -5.02817486709518        0.98425741116721
C           -9.41017059522732       -3.05499706031825       -0.13453179806565
C           -8.10180797198548       -3.54883947102788       -0.22602055928958
C           -6.98875266101390       -2.73365418579380       -0.20531366576251
C           -7.18528696825379       -1.36551624955824       -0.09850341812500
C           -8.49021995178743       -0.84501255952602        0.02665754000131
C           -9.59272334697272       -1.68918638473307        0.00341014388472
C           -8.34920716767861        0.57725177168814        0.17328664863551
C           -9.26758338424561        1.60907513815364        0.31673695885929
C           -8.82283219516757        2.91688020658198        0.41489062153498
C           -9.76986634445131        4.09608459894829        0.58464601468056
C           -9.60108884445008        5.05592211046960       -0.60156925657257
C           -9.43575040174477        4.82399037543673        1.89449198756662
C          -11.23867210189662        3.66725724574421        0.64215945819951
C           -7.44457318696168        3.16117723464787        0.34632261482890
C           -6.51025677779835        2.15582701383519        0.20370030649722
C           -6.96546263595769        0.84818235388063        0.13558100542833
N           -6.26873763120815       -0.33369114504501       -0.03035152706825
C           -4.87973731652022       -0.46160362519901       -0.12561060031230
C           -4.04935306875243        0.16811463367817        0.79879520987906
C           -2.67828622385480        0.05324235870019        0.69205052721223
C           -2.10284788125630       -0.70463136933414       -0.32593576068102
C           -0.64286651526229       -0.85978941737086       -0.42462622617176
C           -0.10881069534923       -2.14512347403056       -0.42452090477853
C            1.25263165749787       -2.35622823615500       -0.46616149736604
C            2.13824945646655       -1.27837601665374       -0.51204295246761
C            3.54918981706509       -1.46128043016745       -0.55549674597983
C            4.39629881435526       -0.40718459432715       -0.59911689607567
C            3.91113562706240        0.93432713568552       -0.60330156950548
C            4.77074224172173        2.04664507650962       -0.64996626536155
C            6.23371515318280        1.89981635484866       -0.59497888989954
C            6.84860514374558        1.22781127206421        0.45940015137404
C            8.22194073098292        1.10090576001742        0.51244933003990
C            9.01476310733613        1.63884586922918       -0.49971681995421
C           10.46112683778341        1.52344733626338       -0.49999142896971
N           11.27880745656333        2.44463027269513       -0.94166420687451
N           12.52938962224108        2.02016572555714       -0.76985958980572
C           12.49649564363365        0.83083428231561       -0.22471257880094
C           13.67444301124198        0.03669782099065        0.07587585675511
C           14.84336532346597        0.70383678884105        0.44086207008925
C           15.99209879475728       -0.00962760057486        0.72095914967798
C           15.99067649078704       -1.39296218592096        0.63548996427681
C           14.83850372570825       -2.05874859249585        0.25232442579337
C           13.68412152826108       -1.35232551967496       -0.03068107269718
N           11.18768619607392        0.45524986526229       -0.02466926809418
C           10.69927408037274       -0.73667141499910        0.53699476117572
C           11.11670366101224       -1.12588354270140        1.80509398817301
C           10.62814301570538       -2.29729968765768        2.35336744568755
C            9.72406184720295       -3.07444513333368        1.64784000019346
C            9.30922405957863       -2.68232245779834        0.38555093834067
C            9.79569038657228       -1.51677399980454       -0.17669809516997
C            8.40620351683754        2.34574631623170       -1.53658453761636
C            7.03427506657187        2.47549736168747       -1.57995005982947
C            4.23486847016232        3.32788564961402       -0.74417903984063
C            2.87243713890839        3.53581437250093       -0.75579948802168
C            1.98789550767858        2.45894260885217       -0.67622582271242
C            0.57602801548994        2.63947538418019       -0.68921281898589
C           -0.27016601061551        1.58683762874653       -0.60932373084930
C            0.21694771444052        0.25001119252144       -0.50890217443249
C            1.61965413086599        0.03933109026175       -0.54025425078470
C            2.50768354630469        1.14326983795932       -0.60485079033778
C           -2.94004693874285       -1.35043312504842       -1.23214729381333
C           -4.31135619033407       -1.22210674146425       -1.14473334042415
H           -9.60801922459948       -5.36316018699492       -1.62290335666583
H          -10.59931797785733       -4.09974031400405       -2.34766519174511
H          -11.36433968185107       -5.49348601057778       -1.57809408366424
H          -12.72304437558660       -4.09334330083331       -0.11964002126672
H          -12.02713247830508       -2.81715038350657        0.87232015531297
H          -12.08260597336002       -2.64702182939721       -0.89155667186491
H           -9.52385816125481       -5.60126558919711        0.92163606410355
H          -10.44901179040037       -4.49353598099265        1.93194298827184
H          -11.28016338256544       -5.72531319315870        0.97679841756479
H           -7.94303941307222       -4.61297093338449       -0.31368372094601
H           -5.99711824221762       -3.15761393466906       -0.25875978882464
H          -10.57462390651436       -1.25642253291560        0.09829017296803
H          -10.31635083957362        1.36464867504491        0.34401995417552
H          -10.28794407028832        5.89451854656530       -0.50631019170487
H           -8.58990242789768        5.44964101629176       -0.65363006233542
H           -9.81369550964106        4.53936475918198       -1.53534489209033
H          -10.11535717620340        5.66071547586841        2.04312351759601
H           -9.53591795758224        4.14357122650520        2.73773416336362
H           -8.41977556593417        5.20875684289188        1.88692667193471
H          -11.53786372245422        3.17181153210169       -0.27860679254297
H          -11.41869288912124        3.00009625653803        1.48198254919800
H          -11.86816034639538        4.54577600046276        0.77020571789506
H           -7.08403388611103        4.17709861089297        0.40266631759789
H           -5.45848647531233        2.39047600491413        0.13557574194445
H           -4.48689207070138        0.73217426151346        1.60884567036949
H           -2.04119214267773        0.53220740305750        1.42164416119853
H           -0.78254673495003       -2.98848851053745       -0.36786704803297
H            1.64596082699300       -3.36276410969495       -0.45586772065115
H            3.93000360119537       -2.47310367108671       -0.56040040580497
H            5.46283694507193       -0.56892383065342       -0.65068113648387
H            6.24202003486870        0.82036899525304        1.25547802980596
H            8.67568467772577        0.59918627252197        1.35460433303003
H           14.82726369841543        1.78105153318752        0.49541853063217
H           16.89279090477151        0.51313948837482        1.00670745896166
H           16.88820485588115       -1.95087808680070        0.85785745448074
H           14.83827357149161       -3.13561069387407        0.16740010142139
H           12.79987672113005       -1.88253616584927       -0.35288687945433
H           11.81910666035996       -0.51087915371979        2.34819335607980
H           10.95241765291047       -2.60068804305049        3.33726050256599
H            9.34287715244562       -3.98621148693591        2.08188536061567
H            8.60640279568076       -3.28758931618400       -0.16680723684780
H            9.48137479912100       -1.20361581901944       -1.16152777806410
H            9.03069984214013        2.78343739640160       -2.29954421246653
H            6.56821069142167        3.01023915981772       -2.39471967569540
H            4.90878827513379        4.17174244244080       -0.78576757426457
H            2.47763433187449        4.53957764425213       -0.82057643545157
H            0.19359593013139        3.64699447558671       -0.77332472790683
H           -1.33791647503503        1.74391717829974       -0.64150887256352
H           -2.50551183244589       -1.93517491842520       -2.03005108873448
H           -4.95058613195177       -1.69585556237591       -1.87452857666614

          :  Hamiltonian                  GFN2-xTB          :
         :: gradient norm              0.000048656944 Eh/a0 ::
         :: HOMO-LUMO gap              1.894170926014 eV    ::
         :: SCC energy              -173.181397210734 Eh    ::
         :: -> dispersion             -0.159760723871 Eh    ::
         :: repulsion energy           3.109139139208 Eh    ::

    * Orbital Energies and Occupations

         #    Occupation            Energy/Eh            Energy/eV
      -------------------------------------------------------------
         1        2.0000           -0.7003573             -19.0577
       ...           ...                  ...                  ...
       147        2.0000           -0.4075182             -11.0891
       148        2.0000           -0.4054317             -11.0324
       149        2.0000           -0.4048084             -11.0154
       150        2.0000           -0.4027745             -10.9601
       151        2.0000           -0.4009048             -10.9092
       152        2.0000           -0.3993118             -10.8658
       153        2.0000           -0.3931117             -10.6971
       154        2.0000           -0.3923677             -10.6769
       155        2.0000           -0.3832446             -10.4286
       156        2.0000           -0.3689201             -10.0388
       157        2.0000           -0.3642924              -9.9129
       158        2.0000           -0.3623328              -9.8596
       159        2.0000           -0.3521138              -9.5815 (HOMO)
       160                         -0.2825043              -7.6873 (LUMO)
       161                         -0.2628114              -7.1515
       162                         -0.2467076              -6.7133
       163                         -0.2466621              -6.7120
       164                         -0.2440207              -6.6401
       165                         -0.2429578              -6.6112
       166                         -0.2372909              -6.4570
       167                         -0.2300426              -6.2598
       168                         -0.2295353              -6.2460
       169                         -0.2289993              -6.2314
       170                         -0.2287821              -6.2255
       ...                                ...                  ...
       314                          0.7475745              20.3425
      -------------------------------------------------------------
                  HL-Gap            0.0696095 Eh            1.8942 eV

     #   Z          covCN         q      C6AA      α(0)
     1   6 C        3.762    -0.105    22.547     6.769
     2   6 C        3.903     0.026    20.088     6.371
     3   6 C        3.761    -0.107    22.582     6.774
     4   6 C        3.761    -0.105    22.548     6.769
     5   6 C        2.973    -0.003    28.085     8.693
     6   6 C        2.931    -0.040    28.987     8.830
     7   6 C        2.908    -0.054    29.335     8.881
     8   6 C        3.080     0.042    26.963     8.513
     9   6 C        3.068    -0.020    28.443     8.745
    10   6 C        2.918    -0.044    29.090     8.845
    11   6 C        3.068    -0.020    28.443     8.745
    12   6 C        2.918    -0.044    29.090     8.844
    13   6 C        2.973    -0.002    28.083     8.693
    14   6 C        3.903     0.026    20.088     6.371
    15   6 C        3.761    -0.105    22.548     6.769
    16   6 C        3.762    -0.105    22.548     6.769
    17   6 C        3.761    -0.107    22.582     6.774
    18   6 C        2.931    -0.040    28.986     8.829
    19   6 C        2.908    -0.054    29.332     8.881
    20   6 C        3.079     0.042    26.963     8.513
    21   7 N        2.802    -0.045    22.111     6.984
    22   6 C        2.913     0.063    26.582     8.454
    23   6 C        2.921    -0.045    29.113     8.848
    24   6 C        2.924    -0.032    28.808     8.802
    25   6 C        2.977     0.008    27.835     8.654
    26   6 C        2.977     0.003    27.962     8.674
    27   6 C        2.921    -0.035    28.881     8.813
    28   6 C        2.918    -0.038    28.943     8.822
    29   6 C        2.983     0.009    27.802     8.649
    30   6 C        2.914    -0.037    28.918     8.818
    31   6 C        2.913    -0.036    28.904     8.816
    32   6 C        2.983     0.007    27.857     8.658
    33   6 C        2.977     0.002    27.978     8.676
    34   6 C        2.978     0.015    27.677     8.630
    35   6 C        2.923    -0.033    28.811     8.802
    36   6 C        2.920    -0.034    28.844     8.807
    37   6 C        2.974    -0.002    28.065     8.690
    38   6 C        3.128     0.124    25.093     8.202
    39   7 N        2.067    -0.199    26.029     7.568
    40   7 N        2.068    -0.199    26.018     7.567
    41   6 C        3.127     0.124    25.105     8.204
    42   6 C        2.975     0.001    27.994     8.679
    43   6 C        2.928    -0.028    28.692     8.784
    44   6 C        2.919    -0.026    28.653     8.778
    45   6 C        2.920    -0.028    28.695     8.784
    46   6 C        2.919    -0.029    28.716     8.788
    47   6 C        2.922    -0.033    28.811     8.802
    48   7 N        2.831    -0.054    22.281     7.011
    49   6 C        2.912     0.067    26.501     8.441
    50   6 C        2.921    -0.038    28.936     8.821
    51   6 C        2.921    -0.026    28.645     8.777
    52   6 C        2.920    -0.030    28.741     8.791
    53   6 C        2.920    -0.026    28.646     8.777
    54   6 C        2.921    -0.038    28.938     8.822
    55   6 C        2.926    -0.029    28.714     8.788
    56   6 C        2.924    -0.032    28.787     8.799
    57   6 C        2.921    -0.035    28.863     8.810
    58   6 C        2.918    -0.037    28.930     8.820
    59   6 C        2.983     0.010    27.784     8.646
    60   6 C        2.914    -0.037    28.912     8.817
    61   6 C        2.913    -0.036    28.894     8.814
    62   6 C        2.983     0.007    27.859     8.658
    63   6 C        2.995     0.003    27.950     8.672
    64   6 C        2.995     0.003    27.948     8.672
    65   6 C        2.925    -0.034    28.837     8.806
    66   6 C        2.921    -0.044    29.101     8.846
    67   1 H        0.925     0.035     2.515     2.480
    68   1 H        0.925     0.033     2.546     2.495
    69   1 H        0.925     0.035     2.515     2.480
    70   1 H        0.925     0.034     2.527     2.486
    71   1 H        0.925     0.035     2.515     2.480
    72   1 H        0.925     0.035     2.513     2.479
    73   1 H        0.925     0.035     2.516     2.480
    74   1 H        0.925     0.033     2.546     2.495
    75   1 H        0.925     0.035     2.514     2.480
    76   1 H        0.926     0.028     2.622     2.532
    77   1 H        0.926     0.024     2.673     2.556
    78   1 H        0.926     0.036     2.499     2.472
    79   1 H        0.926     0.036     2.499     2.472
    80   1 H        0.925     0.035     2.513     2.479
    81   1 H        0.925     0.035     2.514     2.480
    82   1 H        0.925     0.033     2.545     2.495
    83   1 H        0.925     0.035     2.514     2.480
    84   1 H        0.925     0.033     2.547     2.496
    85   1 H        0.925     0.035     2.514     2.480
    86   1 H        0.925     0.035     2.515     2.480
    87   1 H        0.925     0.035     2.514     2.479
    88   1 H        0.925     0.034     2.526     2.486
    89   1 H        0.926     0.028     2.619     2.531
    90   1 H        0.926     0.024     2.678     2.559
    91   1 H        0.926     0.040     2.445     2.445
    92   1 H        0.926     0.036     2.503     2.474
    93   1 H        0.926     0.030     2.580     2.512
    94   1 H        0.926     0.031     2.576     2.510
    95   1 H        0.926     0.029     2.605     2.524
    96   1 H        0.926     0.031     2.575     2.509
    97   1 H        0.926     0.034     2.526     2.486
    98   1 H        0.926     0.026     2.644     2.543
    99   1 H        0.926     0.055     2.264     2.353
   100   1 H        0.926     0.038     2.475     2.460
   101   1 H        0.926     0.035     2.519     2.482
   102   1 H        0.926     0.032     2.552     2.498
   103   1 H        0.926     0.026     2.644     2.543
   104   1 H        0.926     0.040     2.446     2.446
   105   1 H        0.926     0.041     2.432     2.439
   106   1 H        0.926     0.040     2.442     2.444
   107   1 H        0.926     0.041     2.437     2.441
   108   1 H        0.926     0.040     2.453     2.449
   109   1 H        0.926     0.054     2.267     2.354
   110   1 H        0.926     0.038     2.469     2.457
   111   1 H        0.926     0.033     2.543     2.494
   112   1 H        0.926     0.033     2.547     2.496
   113   1 H        0.926     0.031     2.574     2.509
   114   1 H        0.926     0.033     2.538     2.491
   115   1 H        0.926     0.035     2.518     2.482
   116   1 H        0.926     0.040     2.443     2.444

molecular dipole:
                 x           y           z       tot (Debye)
 q only:       -0.564      -1.242       0.592
   full:       -0.662      -1.848       0.857       5.444

 projected vibrational frequencies (cm⁻¹)
eigval :       -0.00    -0.00     0.00     0.00     0.00     0.00
eigval :        5.81     6.00     8.57    11.84    14.74    22.28
eigval :       27.40    31.03    31.77    33.68    42.13    45.46
eigval :       48.02    52.37    57.24    67.29    71.70    76.80
eigval :       85.57    92.64   104.42   106.31   112.10   118.59
eigval :      121.53   133.14   143.10   155.41   160.96   170.29
eigval :      175.97   184.78   196.27   201.62   203.06   218.14
eigval :      220.44   225.57   229.48   235.04   242.85   247.72
eigval :      255.29   258.97   274.05   279.13   290.49   300.57
eigval :      305.85   317.53   321.43   322.08   331.38   338.40
eigval :      347.40   359.99   360.08   370.41   371.69   376.53
eigval :      379.37   382.91   387.39   393.94   400.16   404.25
eigval :      409.49   412.00   413.83   416.26   440.69   443.12
eigval :      445.28   459.30   462.45   466.04   471.13   476.29
eigval :      479.79   481.17   491.44   496.75   511.20   512.92
eigval :      518.89   542.93   544.44   557.24   572.82   577.30
eigval :      583.29   586.08   586.85   593.62   598.31   607.26
eigval :      609.55   628.29   639.77   641.08   642.68   652.66
eigval :      658.35   663.02   672.75   679.72   682.27   687.73
eigval :      688.35   689.60   695.03   699.08   707.43   709.39
eigval :      710.97   721.03   731.94   745.45   752.92   758.76
eigval :      763.29   769.51   803.38   813.48   815.54   819.42
eigval :      822.72   826.03   831.54   832.00   847.79   854.07
eigval :      869.44   873.54   873.83   874.32   876.56   877.54
eigval :      880.82   882.79   898.89   904.12   910.76   913.34
eigval :      915.02   915.42   919.53   923.07   925.05   926.13
eigval :      926.84   927.41   929.38   930.88   931.80   932.60
eigval :      937.71   940.10   944.00   951.46   960.24   960.32
eigval :      961.89   962.84   962.87   962.99   963.42   978.97
eigval :      997.38  1002.13  1015.62  1031.17  1035.79  1035.83
eigval :     1035.87  1037.91  1041.86  1048.99  1079.05  1082.09
eigval :     1109.95  1110.60  1116.67  1116.98  1120.79  1126.36
eigval :     1130.26  1136.12  1137.74  1143.82  1151.84  1163.84
eigval :     1168.37  1177.73  1180.43  1181.19  1186.66  1190.10
eigval :     1190.88  1198.14  1198.59  1199.87  1203.07  1211.15
eigval :     1215.06  1228.21  1228.33  1231.64  1232.54  1236.96
eigval :     1238.36  1244.96  1248.94  1260.91  1266.94  1268.92
eigval :     1276.31  1279.46  1285.79  1287.22  1291.21  1305.21
eigval :     1305.71  1310.16  1312.00  1312.50  1315.19  1315.73
eigval :     1317.91  1321.67  1327.58  1348.18  1359.75  1366.22
eigval :     1376.04  1384.36  1385.43  1387.34  1401.18  1403.50
eigval :     1404.75  1406.06  1406.10  1406.38  1407.90  1416.18
eigval :     1419.11  1429.48  1429.61  1430.63  1435.97  1443.72
eigval :     1451.16  1452.61  1465.31  1481.60  1483.59  1486.02
eigval :     1487.60  1492.70  1492.73  1495.42  1495.49  1498.85
eigval :     1501.92  1502.29  1506.07  1506.15  1507.80  1515.08
eigval :     1515.28  1520.56  1521.41  1529.83  1532.03  1533.17
eigval :     1556.30  1560.71  1562.72  1566.57  1571.46  1582.02
eigval :     1582.66  1584.10  1594.33  1595.36  1595.70  1597.82
eigval :     1604.23  1605.17  1607.47  1618.30  3020.28  3020.43
eigval :     3021.58  3021.64  3026.60  3026.63  3028.82  3029.31
eigval :     3030.71  3030.80  3035.37  3035.62  3037.68  3037.97
eigval :     3046.67  3046.67  3050.04  3050.24  3066.50  3069.40
eigval :     3070.09  3072.87  3075.27  3075.97  3077.17  3077.93
eigval :     3078.51  3079.82  3080.68  3081.65  3082.23  3083.42
eigval :     3084.53  3084.76  3087.83  3087.96  3089.02  3090.90
eigval :     3091.20  3091.57  3091.80  3094.07  3094.16  3095.04
eigval :     3096.22  3102.97  3107.24  3108.47  3114.77  3118.20

   temp. (K)  partition function   enthalpy   heat capacity  entropy
                                   cal/mol     cal/K/mol   cal/K/mol   J/K/mol
 298.15  VIB  0.183E+28            33340.212    207.014    209.304
         ROT  0.369E+09              888.752      2.981     42.183
         INT  0.677E+36            34228.965    209.994    251.487
         TR   0.240E+29             1481.254      4.968     46.080
         TOT                       35710.2187   214.9626   297.5669  1245.0200

       T/K    H(0)-H(T)+PV         H(T)/Eh          T*S/Eh         G(T)/Eh
   ------------------------------------------------------------------------
    298.15    0.569079E-01    0.982951E+00    0.141384E+00    0.841568E+00
   ------------------------------------------------------------------------

         :::::::::::::::::::::::::::::::::::::::::::::::::::::
         ::                  THERMODYNAMIC                  ::
         :::::::::::::::::::::::::::::::::::::::::::::::::::::
         :: total free energy        -169.230690290069 Eh   ::
         ::.................................................::
         :: total energy             -170.072258071522 Eh   ::
         :: zero point energy           0.926043576825 Eh   ::
         :: G(RRHO) w/o ZPVE           -0.084475795372 Eh   ::
         :: G(RRHO) contrib.            0.841567781453 Eh   ::
         :::::::::::::::::::::::::::::::::::::::::::::::::::::

           -------------------------------------------------
          | TOTAL ENERGY             -170.072258071522 Eh   |
          | TOTAL ENTHALPY           -169.089306638856 Eh   |
          | TOTAL FREE ENERGY        -169.230690290069 Eh   |
          | GRADIENT NORM               0.000048648024 Eh/α |
          | HOMO-LUMO GAP               1.894171301924 eV   |
           -------------------------------------------------

 * finished run on 2025/08/22 at 15:28:52.439
