   * xtb version 6.7.1 (edcfbbe) compiled by 'albert@albert-system' on 2024-07-22

   ID    Z sym.   atoms
    1    6 C      1-20, 22-38, 41-47, 49-66
    2    7 N      21, 39, 40, 48
    3    1 H      67-116

          program call               : xtb data2507/gas/DTPCZPYTZ/DTPCZPYTZ_gas_T1_crest.xyz --gfn 2 --spinpol --tblite --uhf 2 --ohess vtight --parallel 40 --molden --ceasefiles --namespace data2507/gas/DTPCZPYTZ/DTPCZPYTZ_gas_T1_finalOpt
 * total energy  :  -170.0069156 Eh     change       -0.1938872E-07 Eh
 * total energy  :  -170.0069468 Eh     change       -0.3123394E-04 Eh
 * total energy  :  -170.0069623 Eh     change       -0.1552043E-04 Eh
 * total energy  :  -170.0069660 Eh     change       -0.3713328E-05 Eh
 * total energy  :  -170.0069695 Eh     change       -0.3450812E-05 Eh
 * total energy  :  -170.0069714 Eh     change       -0.1874409E-05 Eh
 * total energy  :  -170.0069732 Eh     change       -0.1855166E-05 Eh
 * total energy  :  -170.0069751 Eh     change       -0.1909072E-05 Eh
 * total energy  :  -170.0069766 Eh     change       -0.1487206E-05 Eh
 * total energy  :  -170.0069774 Eh     change       -0.7993970E-06 Eh
 * total energy  :  -170.0069799 Eh     change        0.7394954E-07 Eh
 * total energy  :  -170.0069807 Eh     change       -0.8098646E-06 Eh
 * total energy  :  -170.0069815 Eh     change       -0.7299807E-06 Eh
 * total energy  :  -170.0069814 Eh     change        0.5568594E-07 Eh
 * total energy  :  -170.0069821 Eh     change       -0.6688562E-06 Eh
 * total energy  :  -170.0069835 Eh     change       -0.1398137E-05 Eh
 * total energy  :  -170.0069832 Eh     change        0.2470699E-06 Eh
 * total energy  :  -170.0069838 Eh     change       -0.5635367E-06 Eh
 * total energy  :  -170.0069838 Eh     change       -0.1525564E-07 Eh
   *** GEOMETRY OPTIMIZATION CONVERGED AFTER 22 ITERATIONS ***

 final structure:
================
116
 xtb: 6.7.1 (edcfbbe)
C          -11.58804756799856       -4.94659112924162       -0.82209900654258
C          -11.45030246061567       -4.15582508408081        0.48666109468020
C          -12.80066246926272       -3.50017780751082        0.78858752941388
C          -11.11658050300843       -5.11241012709674        1.64025211295482
C          -10.32711171069964       -3.14006514497030        0.34017226645818
C           -9.03424359550747       -3.59774951225267        0.05307966690355
C           -7.95555790406789       -2.75116969632304       -0.10290442540161
C           -8.17428988850310       -1.38769153244418        0.02230862030953
C           -9.46023262989161       -0.90305131663315        0.34131018798269
C          -10.52728967028045       -1.77711544149119        0.49336802053315
C           -9.33950319265188        0.52476474439497        0.46155764289180
C          -10.25487426635986        1.53086641157954        0.73661565416483
C           -9.83713466403211        2.85222294888117        0.76311312785903
C          -10.78192739963886        4.00541517891347        1.06681794591250
C          -10.82797184120334        4.95096882642171       -0.14185331676317
C          -10.27095536833500        4.76244753815901        2.30095144114617
C          -12.20992280947385        3.53515203753113        1.35698891197461
C           -8.49262236228839        3.13409892871127        0.48689008176060
C           -7.56180079818486        2.15369790564600        0.20963347604720
C           -7.98481463701291        0.83323849158784        0.21736101936515
N           -7.28764331445501       -0.32986068682010       -0.05032623504601
C           -5.92478117158975       -0.42012090075786       -0.33148189494188
C           -4.99331017335398        0.25691514226517        0.45875292335766
C           -3.65025182314618        0.17615446132629        0.17560477647416
C           -3.17700418025575       -0.59176192530122       -0.90005481649602
C           -1.76072601520913       -0.71507751466787       -1.17182683612329
C           -1.23098397133765       -1.97500637049940       -1.48951639326489
C            0.11419244074389       -2.18837802178182       -1.58878871627998
C            1.04165450281885       -1.12300184096866       -1.37999644475470
C            2.41775184876588       -1.31603885295974       -1.46148111846488
C            3.30296097347348       -0.26889906018027       -1.24741237283118
C            2.84430821289981        1.01617772421529       -0.94981904163684
C            3.74161546161589        2.11904800367802       -0.70937373302333
C            5.15634701456665        1.91577241421142       -0.47581111532197
C            5.61431729075651        0.86805606488923        0.33743367698019
C            6.95620391844521        0.67917461804720        0.57106833100582
C            7.90237866425185        1.52657795004077       -0.01230278701617
C            9.32433588972544        1.36018919722103        0.18718068168022
N           10.18882804460497        2.34459812770750        0.23970314551763
N           11.39607938674176        1.83793353290061        0.47436772441410
C           11.29529552150808        0.53539615059316        0.56364720460806
C           12.41838504140712       -0.35746991729603        0.78455103489107
C           13.48027804823629        0.10069526756202        1.56420015780282
C           14.57452458202204       -0.70967227896095        1.79379019343094
C           14.62610900222218       -1.98174568265927        1.24584204598726
C           13.58498625825693       -2.43274081521522        0.45191273576539
C           12.48597581997249       -1.62771478925200        0.21597434116526
N            9.98130399143458        0.16547544980435        0.38773197857925
C            9.43355881382942       -1.12821430571348        0.39151205391195
C            9.61951267164159       -1.95741330424091        1.49235162263471
C            9.07450336060743       -3.22805146804646        1.48785890544195
C            8.34310751821921       -3.67047318523681        0.39773368002667
C            8.15900872446157       -2.84108761855574       -0.69663285573718
C            8.70453881885325       -1.57103595885165       -0.70737802286414
C            7.45495478136478        2.60403519904801       -0.78350390257111
C            6.11246783170671        2.79663256360447       -1.00532076625563
C            3.21416726210095        3.41755269972559       -0.64922312272163
C            1.86966647052961        3.65318229175488       -0.70112458981526
C            0.94171209741523        2.57562143376944       -0.82868527036364
C           -0.43336910848607        2.78725907334940       -0.87262081629495
C           -1.31940458867847        1.72515826622099       -0.98780203403557
C           -0.86241290515009        0.40819714808538       -1.06820963553355
C            0.53866928529495        0.17907870229002       -1.12565981666028
C            1.44370383068320        1.25492831364578       -0.95854662280084
C           -4.12346016341742       -1.28556078934744       -1.66926210744798
C           -5.46930595000713       -1.19403622168402       -1.40040038956369
H          -10.67688287535378       -5.48973817598831       -1.05649740683847
H          -11.80430745112612       -4.27144677203408       -1.64755974861258
H          -12.40091505380949       -5.66536102481606       -0.74182613375720
H          -13.56608437154618       -4.26916583196126        0.87224976803492
H          -12.76971915989314       -2.95502185021961        1.72911522220558
H          -13.09285281967003       -2.82124319924011       -0.00922955170525
H          -10.19830712172467       -5.66055563775167        1.44906223180022
H          -10.99361513748968       -4.55487479012854        2.56652988249770
H          -11.92100629905489       -5.83260289372063        1.77459323118215
H           -8.85881360575936       -4.65789869676881       -0.04785378239649
H           -6.97139588304042       -3.14812491542808       -0.30081858773601
H          -11.49539268909690       -1.37182088211747        0.73570291066238
H          -11.28079768596365        1.25873549082484        0.92001558529574
H          -11.51690190298702        5.77097083173448        0.04991760321108
H           -9.84943411114419        5.37220486142291       -0.35450956575856
H          -11.16698624051520        4.41428869957510       -1.02559908201949
H          -10.94594515846704        5.58013756621007        2.54502204661391
H          -10.21677053843793        4.09231740300530        3.15651673842488
H           -9.28176936130876        5.17823875766365        2.13130306392670
H          -12.63551356644185        3.02199586372706        0.49773595407858
H          -12.23585391014771        2.87223632337324        2.21880551179413
H          -12.83725294142875        4.39664981362037        1.57714982094754
H           -8.15734409674501        4.15996624085391        0.48303327683473
H           -6.54002205892092        2.41670338858086       -0.01867437972991
H           -5.33525857190317        0.81839648662087        1.31546465555804
H           -2.94001057081143        0.66613736906411        0.82501632683754
H           -1.91048219341825       -2.80900952148571       -1.59450323509692
H            0.50200705181060       -3.17387566326023       -1.80026271556639
H            2.79959445367655       -2.29928383155559       -1.69688848068670
H            4.36301430813612       -0.44985301931722       -1.34086763193446
H            4.89500868640034        0.22802917991126        0.82724626247981
H            7.27048764901337       -0.11396826806756        1.23371657294211
H           13.42515459658689        1.09555386621871        1.97758330953112
H           15.39099992246750       -0.35002911125172        2.40231777494381
H           15.47992971742694       -2.61708621071006        1.42933444716498
H           13.62947680722232       -3.41663637603222        0.00818897872130
H           11.69310623800049       -1.98262409279283       -0.42598259201028
H           10.18832089862696       -1.60165879365991        2.33878373291235
H            9.21882027135708       -3.87251819461742        2.34177445363339
H            7.91664366333888       -4.66204116299861        0.40093020746005
H            7.59137077167460       -3.18455500670371       -1.54827695955510
H            8.56929296791895       -0.91715097514040       -1.55640512217119
H            8.18922894228947        3.27199593015461       -1.20613108335470
H            5.78794612642967        3.61394629102216       -1.63209673163560
H            3.89383339238255        4.24350183925921       -0.49557219430283
H            1.48266056025937        4.65810629669255       -0.61995204764146
H           -0.81396279527427        3.79715888347361       -0.81738167535141
H           -2.37786136343821        1.92830546905598       -1.04588942096896
H           -3.79166138501587       -1.86342905296195       -2.51901930656805
H           -6.18568524124622       -1.69698506746369       -2.03281295703766

 projected vibrational frequencies (cm⁻¹)
eigval :       -0.00    -0.00    -0.00    -0.00     0.00     0.00
eigval :        5.13     6.74     9.25    12.98    15.33    21.75
eigval :       27.00    30.64    31.46    33.30    40.78    46.94
eigval :       50.44    53.51    59.26    67.73    73.18    79.49
eigval :       85.33    96.11   105.37   112.46   114.04   121.41
eigval :      128.99   135.17   146.78   157.00   160.82   170.18
eigval :      177.46   184.08   193.73   202.30   203.05   217.99
eigval :      221.75   227.48   229.55   233.77   243.65   247.76
eigval :      254.87   258.69   273.15   278.39   288.64   302.36
eigval :      307.33   317.25   319.23   322.33   323.33   338.42
eigval :      346.76   358.81   359.69   365.60   371.71   373.75
eigval :      377.55   384.79   389.39   390.71   399.78   400.47
eigval :      404.11   410.09   410.90   413.83   427.36   440.74
eigval :      442.76   444.60   460.54   462.93   465.92   473.94
eigval :      479.93   482.01   490.54   492.84   496.96   508.95
eigval :      517.97   533.05   536.33   551.63   570.34   575.01
eigval :      582.35   584.98   586.15   591.86   595.29   604.38
eigval :      609.50   615.69   622.72   631.62   640.62   644.21
eigval :      657.86   662.74   666.57   671.91   677.59   683.09
eigval :      687.59   689.00   691.44   693.50   704.75   707.84
eigval :      708.82   720.55   728.26   741.32   746.22   749.42
eigval :      762.58   768.84   771.45   785.38   808.04   813.95
eigval :      818.71   820.28   823.31   826.25   831.91   832.20
eigval :      864.85   865.83   873.02   873.63   873.88   874.30
eigval :      876.99   879.49   891.91   893.65   898.56   903.57
eigval :      904.77   906.55   912.50   915.42   921.92   923.63
eigval :      925.78   927.17   929.14   929.16   931.33   932.05
eigval :      938.45   939.22   944.33   951.01   958.65   960.15
eigval :      960.23   962.71   962.88   962.92   963.13   974.92
eigval :      985.95   998.60  1010.34  1030.90  1031.02  1035.23
eigval :     1035.32  1035.62  1040.44  1041.66  1079.09  1082.35
eigval :     1104.63  1108.09  1115.51  1117.14  1120.87  1129.45
eigval :     1129.95  1138.81  1140.92  1143.36  1150.62  1155.13
eigval :     1162.20  1171.47  1174.73  1180.29  1180.98  1187.23
eigval :     1190.13  1196.78  1198.60  1198.84  1206.09  1212.00
eigval :     1214.88  1227.67  1227.78  1227.87  1231.31  1231.76
eigval :     1232.43  1236.36  1244.18  1259.21  1264.43  1268.06
eigval :     1274.35  1276.02  1278.98  1279.46  1284.66  1302.06
eigval :     1303.12  1305.11  1308.79  1313.34  1315.65  1318.52
eigval :     1319.37  1321.70  1327.97  1342.41  1343.74  1348.05
eigval :     1354.78  1376.45  1378.13  1382.93  1385.69  1387.86
eigval :     1401.78  1404.48  1405.41  1405.53  1408.18  1410.64
eigval :     1415.04  1420.01  1427.87  1428.03  1429.87  1434.65
eigval :     1437.47  1442.06  1452.14  1455.95  1468.15  1477.45
eigval :     1479.91  1482.22  1483.98  1491.36  1491.55  1493.33
eigval :     1494.23  1494.36  1500.72  1500.87  1504.66  1504.88
eigval :     1509.86  1512.54  1514.30  1514.57  1515.27  1518.72
eigval :     1519.59  1520.39  1525.10  1526.54  1533.91  1556.42
eigval :     1568.20  1574.95  1579.14  1580.90  1581.93  1583.19
eigval :     1593.97  1596.73  1597.69  1611.26  3021.62  3021.79
eigval :     3023.02  3023.06  3026.57  3026.78  3029.79  3030.07
eigval :     3030.43  3030.75  3035.28  3035.59  3038.18  3038.44
eigval :     3047.19  3047.41  3050.57  3050.83  3068.28  3071.10
eigval :     3071.41  3073.77  3074.69  3076.14  3080.19  3080.22
eigval :     3081.06  3082.30  3082.84  3082.96  3083.54  3084.21
eigval :     3084.46  3086.77  3087.71  3087.96  3090.51  3091.52
eigval :     3091.88  3092.76  3093.73  3093.94  3094.46  3095.27
eigval :     3095.57  3102.54  3105.31  3108.02  3115.95  3119.73

   temp. (K)  partition function   enthalpy   heat capacity  entropy
                                   cal/mol     cal/K/mol   cal/K/mol   J/K/mol
 298.15  VIB  0.134E+28            33453.172    208.347    209.384
         ROT  0.379E+09              888.752      2.981     42.233
         INT  0.506E+36            34341.925    211.328    251.618
         TR   0.240E+29             1481.254      4.968     46.080
         TOT                       35823.1786   216.2964   297.6975  1245.5663

       T/K    H(0)-H(T)+PV         H(T)/Eh          T*S/Eh         G(T)/Eh
   ------------------------------------------------------------------------
    298.15    0.570879E-01    0.980159E+00    0.141446E+00    0.838713E+00
   ------------------------------------------------------------------------

         :::::::::::::::::::::::::::::::::::::::::::::::::::::
         ::                  THERMODYNAMIC                  ::
         :::::::::::::::::::::::::::::::::::::::::::::::::::::
         :: total free energy        -169.168270497251 Eh   ::
         ::.................................................::
         :: total energy             -170.006983817451 Eh   ::
         :: zero point energy           0.923071138641 Eh   ::
         :: G(RRHO) w/o ZPVE           -0.084357818440 Eh   ::
         :: G(RRHO) contrib.            0.838713320201 Eh   ::
         :::::::::::::::::::::::::::::::::::::::::::::::::::::

           -------------------------------------------------
          | TOTAL ENERGY             -170.006983817451 Eh   |
          | TOTAL ENTHALPY           -169.026824809940 Eh   |
          | TOTAL FREE ENERGY        -169.168270497251 Eh   |
          | GRADIENT NORM               0.000080417573 Eh/α |
           -------------------------------------------------

 * finished run on 2025/08/22 at 15:58:27.622
