   * xtb version 6.7.1 (edcfbbe) compiled by 'albert@albert-system' on 2024-07-22

   ID    Z sym.   atoms
    1    6 C      1-20, 22-38, 41-47, 49-66
    2    7 N      21, 39, 40, 48
    3    1 H      67-116

          program call               : xtb data2507/gas/DTPCZPYTZ/DTPCZPYTZ_gas_S0_crest.xyz --gfn 2 --ohess vtight --parallel 40 --molden --ceasefiles --namespace data2507/gas/DTPCZPYTZ/DTPCZPYTZ_gas_S0_finalOpt
          :  Hamiltonian                  GFN2-xTB          :
 * total energy  :  -170.0722507 Eh     change       -0.2190518E-08 Eh
 * total energy  :  -170.0722533 Eh     change       -0.2643029E-05 Eh
 * total energy  :  -170.0722555 Eh     change       -0.2130307E-05 Eh
 * total energy  :  -170.0722587 Eh     change       -0.3233912E-05 Eh
 * total energy  :  -170.0722600 Eh     change       -0.1343448E-05 Eh
 * total energy  :  -170.0722617 Eh     change       -0.1665031E-05 Eh
 * total energy  :  -170.0722637 Eh     change       -0.1997397E-05 Eh
 * total energy  :  -170.0722653 Eh     change       -0.1593901E-05 Eh
 * total energy  :  -170.0722666 Eh     change       -0.1281984E-05 Eh
 * total energy  :  -170.0722678 Eh     change       -0.1255521E-05 Eh
 * total energy  :  -170.0722704 Eh     change       -0.1281215E-05 Eh
 * total energy  :  -170.0722716 Eh     change       -0.1252462E-05 Eh
 * total energy  :  -170.0722727 Eh     change       -0.1108419E-05 Eh
 * total energy  :  -170.0722737 Eh     change       -0.9398872E-06 Eh
 * total energy  :  -170.0722746 Eh     change       -0.8853112E-06 Eh
 * total energy  :  -170.0722753 Eh     change       -0.7785862E-06 Eh
 * total energy  :  -170.0722759 Eh     change       -0.5752905E-06 Eh
 * total energy  :  -170.0722762 Eh     change       -0.3269343E-06 Eh
 * total energy  :  -170.0722763 Eh     change       -0.6532125E-07 Eh
   *** GEOMETRY OPTIMIZATION CONVERGED AFTER 20 ITERATIONS ***

 final structure:
================
116
 xtb: 6.7.1 (edcfbbe)
C          -11.74788675808049       -4.66105876151568       -1.49580722435992
C          -11.75956552577983       -3.92426686709204       -0.14888785460936
C          -13.10181323695725       -3.19915219300501       -0.01779845149998
C          -11.65191532746663       -4.93756111387259        0.99937256472242
C          -10.57297734141815       -2.97300301567835       -0.09069046588045
C           -9.27898236186851       -3.49836946600117       -0.20775567022691
C           -8.14463256118233       -2.71329717867601       -0.17766209389772
C           -8.30405334457976       -1.34377485174481       -0.03359060174438
C           -9.59371738511044       -0.79252587710816        0.11684721182613
C          -10.71819440151388       -1.60678844629659        0.08312159244329
C           -9.41413773849992        0.62162130133715        0.29650411694382
C          -10.30336986414585        1.67403968310471        0.47122497641743
C           -9.82298389667899        2.96715009803450        0.59349688894172
C          -10.73676786497780        4.16788515940079        0.79205826949586
C          -10.56101296240634        5.13496318734874       -0.38729146094647
C          -10.36466152876092        4.87384832246083        2.10363755015014
C          -12.21494070115906        3.77584518199084        0.86837923601062
C           -8.43933595526391        3.17644060869780        0.51786585018194
C           -7.53343867217173        2.15003832173205        0.34567704360184
C           -8.02415424691928        0.85688761980834        0.25248238149579
N           -7.36022356631164       -0.33839435614244        0.05188840222441
C           -5.97530749393632       -0.49571859024268       -0.05847350384791
C           -5.12508371270367        0.08919086090327        0.87730997331815
C           -3.75746479680696       -0.04556682196155        0.75304733512342
C           -3.20473241773864       -0.77777485179907       -0.29611984368323
C           -1.74829120330981       -0.94581000635846       -0.41891420860493
C           -1.22912885336128       -2.23556543201327       -0.48645401947950
C            0.12925262681200       -2.45978062053223       -0.55185079452958
C            1.02733830564695       -1.39126229871505       -0.55081034890331
C            2.43566345207033       -1.58782741204475       -0.61441413771124
C            3.29510730818469       -0.54282056213990       -0.60614243003765
C            2.82609186653668        0.80244988394431       -0.53332182842659
C            3.69867748571623        1.90565301347449       -0.51804064084054
C            5.15964679579597        1.74112969926966       -0.46525956724666
C            5.76127084412985        0.99568366339237        0.54671446872049
C            7.13318245210996        0.85637647088806        0.60242760659511
C            7.93835431549479        1.45720671541390       -0.36357293020650
C            9.38418982137136        1.33439106610651       -0.35359067406704
N           10.21392340784252        2.28209637321077       -0.70750669777569
N           11.45927211846142        1.83732678623295       -0.54777937103682
C           11.41071326923472        0.60926968981372       -0.09816278952092
C           12.57836533918870       -0.21375130621138        0.16253537096740
C           13.74168821948831        0.41386942003746        0.60672226693710
C           14.87976806259771       -0.32783108380461        0.85533417962925
C           14.87319973175657       -1.69985681163009        0.65936349045286
C           13.72712523795416       -2.32470685211563        0.19710238128744
C           12.58348186245298       -1.58975719579283       -0.05512393714922
N           10.09670514162094        0.22756861417139        0.04880862911784
C            9.59033753461488       -1.00199393591669        0.50288011390413
C            9.98402681079713       -1.49872146319776        1.74062320592925
C            9.47716918329487       -2.70688949746532        2.18211669542099
C            8.57837159995278       -3.41442655681044        1.40067430973647
C            8.18695908430283       -2.91511072707061        0.16915974620597
C            8.69183604653213       -1.71159230494119       -0.28674473033675
C            7.34343316969267        2.23501559362175       -1.35640921569404
C            5.97256032916642        2.37520002785324       -1.40325475124449
C            3.17740783461495        3.19629947688912       -0.54117161132607
C            1.81759051120512        3.42030396780598       -0.54194465029484
C            0.92070832694184        2.35095575552163       -0.51966433049789
C           -0.48886893916724        2.54822365768063       -0.52137371657631
C           -1.34715655651419        1.50277195321334       -0.49202148457025
C           -0.87578287579730        0.15698443990374       -0.45773908039482
C            0.52419637406378       -0.06796564405015       -0.50842678836617
C            1.42511965156202        1.02742287582580       -0.51963942594766
C           -4.06226267571663       -1.38296848290299       -1.21150543985262
C           -5.43043614823759       -1.23605662934884       -1.10480496513200
H          -10.84382289815354       -5.25092442076336       -1.61830445228187
H          -11.80198478065588       -3.94652587214610       -2.31468773148872
H          -12.60270693368512       -5.33083131948550       -1.56474142487685
H          -13.91231120782419       -3.92316621693046       -0.07583411788641
H          -13.17802339244173       -2.68686313602328        0.93850103152075
H          -13.23697945287556       -2.47864062783571       -0.82118705165058
H          -12.50431656627144       -5.61381089512066        0.98438952416346
H          -10.74558201158131       -5.53151976169437        0.92131688770180
H          -11.63816602607578       -4.41984221187600        1.95632033695445
H           -9.14923566165716       -4.56373730910096       -0.32366840861303
H           -7.16492572718809       -3.16112342437811       -0.25262610330455
H          -11.68745801691766       -1.15114589724587        0.19858561185564
H          -11.35808134319972        1.45717856258671        0.50238854693087
H          -11.22263647887765        5.99121548122073       -0.27262053407612
H           -9.54003203227384        5.50064086913931       -0.45205704195314
H          -10.80287828472022        4.63399191208371       -1.32245569741238
H          -11.02266269308299        5.72400366501952        2.27199107536486
H          -10.46659607241013        4.18695120088530        2.94136992525630
H           -9.34069276580708        5.23620676453233        2.08359194037411
H          -12.54289330221640        3.30357689938099       -0.05476568246215
H          -12.39737290698646        3.09958542405849        1.70040508286908
H          -12.81921683045360        4.66793406463797        1.02162155451996
H           -8.05145195213979        4.18106334079564        0.59205093549269
H           -6.47628981681120        2.35783359808718        0.27357143565104
H           -5.54506083088817        0.63516495240005        1.70879713308634
H           -3.10541289143568        0.39810633437854        1.49165779583144
H           -1.91185359748383       -3.07325400707788       -0.46353832990838
H            0.51065205397437       -3.47001870207919       -0.59530200250651
H            2.80433635354731       -2.60222712117530       -0.67687639156049
H            4.35927693692870       -0.71398534321654       -0.67385532230318
H            5.14554376719930        0.54068688153991        1.30926944844575
H            7.57674883473121        0.29603038692722        1.41246900915971
H           13.72982638014208        1.48330960150693        0.74741757179162
H           15.77599849964625        0.16397232010407        1.20329696827431
H           15.76217751144189       -2.28013787515987        0.85751280628090
H           13.72339621729862       -3.39126927269919        0.02604195607198
H           11.70433725186003       -2.08609760225786       -0.43931577683258
H           10.68257236300990       -0.93752960522331        2.34365096571562
H            9.78321506358779       -3.09393579510676        3.14220104116757
H            8.18297099939114       -4.35544504986930        1.75158570002091
H            7.48808393330494       -3.46568395273432       -0.44226792496702
H            8.39596199961812       -1.31495465992168       -1.24689182062349
H            7.97703769002939        2.71944320628101       -2.08276855670131
H            5.51714403564003        2.96559193362473       -2.18494749509564
H            3.86087549549833        4.03342905241047       -0.53473535393714
H            1.43441108395441        4.43058832077070       -0.55163027146462
H           -0.85967039373083        3.56301365361647       -0.55487144231452
H           -2.41290023912523        1.67409654991834       -0.51540783111937
H           -3.64611843050343       -1.94903246623986       -2.03234047903429
H           -6.08505076801793       -1.67774298256422       -1.84107880336906

          :  Hamiltonian                  GFN2-xTB          :
         :: gradient norm              0.000130769785 Eh/a0 ::
         :: HOMO-LUMO gap              1.889002696323 eV    ::
         :: SCC energy              -173.181339950044 Eh    ::
         :: -> dispersion             -0.159790991374 Eh    ::
         :: repulsion energy           3.109063635120 Eh    ::

    * Orbital Energies and Occupations

         #    Occupation            Energy/Eh            Energy/eV
      -------------------------------------------------------------
         1        2.0000           -0.7003940             -19.0587
       ...           ...                  ...                  ...
       147        2.0000           -0.4075826             -11.0909
       148        2.0000           -0.4054379             -11.0325
       149        2.0000           -0.4048054             -11.0153
       150        2.0000           -0.4027751             -10.9601
       151        2.0000           -0.4008998             -10.9090
       152        2.0000           -0.3993000             -10.8655
       153        2.0000           -0.3931061             -10.6970
       154        2.0000           -0.3923623             -10.6767
       155        2.0000           -0.3833944             -10.4327
       156        2.0000           -0.3689120             -10.0386
       157        2.0000           -0.3642896              -9.9128
       158        2.0000           -0.3623388              -9.8597
       159        2.0000           -0.3520943              -9.5810 (HOMO)
       160                         -0.2826748              -7.6920 (LUMO)
       161                         -0.2627094              -7.1487
       162                         -0.2467602              -6.7147
       163                         -0.2466389              -6.7114
       164                         -0.2440900              -6.6420
       165                         -0.2429755              -6.6117
       166                         -0.2372304              -6.4554
       167                         -0.2300798              -6.2608
       168                         -0.2295662              -6.2468
       169                         -0.2290081              -6.2316
       170                         -0.2288235              -6.2266
       ...                                ...                  ...
       314                          0.7475669              20.3423
      -------------------------------------------------------------
                  HL-Gap            0.0694195 Eh            1.8890 eV

     #   Z          covCN         q      C6AA      α(0)
     1   6 C        3.762    -0.105    22.548     6.769
     2   6 C        3.903     0.026    20.088     6.371
     3   6 C        3.761    -0.107    22.581     6.774
     4   6 C        3.761    -0.105    22.547     6.769
     5   6 C        2.973    -0.003    28.085     8.693
     6   6 C        2.931    -0.040    28.987     8.830
     7   6 C        2.908    -0.054    29.334     8.881
     8   6 C        3.079     0.042    26.963     8.513
     9   6 C        3.068    -0.020    28.444     8.745
    10   6 C        2.918    -0.044    29.090     8.845
    11   6 C        3.067    -0.020    28.444     8.745
    12   6 C        2.918    -0.044    29.089     8.844
    13   6 C        2.973    -0.002    28.083     8.693
    14   6 C        3.903     0.026    20.088     6.371
    15   6 C        3.762    -0.105    22.548     6.769
    16   6 C        3.762    -0.105    22.549     6.769
    17   6 C        3.761    -0.107    22.581     6.774
    18   6 C        2.931    -0.040    28.986     8.829
    19   6 C        2.908    -0.054    29.331     8.881
    20   6 C        3.080     0.042    26.963     8.513
    21   7 N        2.802    -0.045    22.112     6.984
    22   6 C        2.913     0.063    26.581     8.454
    23   6 C        2.921    -0.045    29.111     8.848
    24   6 C        2.924    -0.032    28.808     8.802
    25   6 C        2.977     0.008    27.835     8.654
    26   6 C        2.977     0.003    27.963     8.674
    27   6 C        2.921    -0.035    28.882     8.813
    28   6 C        2.918    -0.038    28.944     8.822
    29   6 C        2.983     0.009    27.802     8.649
    30   6 C        2.914    -0.037    28.918     8.818
    31   6 C        2.913    -0.036    28.904     8.816
    32   6 C        2.982     0.007    27.857     8.658
    33   6 C        2.977     0.002    27.979     8.677
    34   6 C        2.978     0.015    27.678     8.630
    35   6 C        2.923    -0.033    28.811     8.802
    36   6 C        2.920    -0.034    28.841     8.807
    37   6 C        2.974    -0.002    28.064     8.690
    38   6 C        3.129     0.124    25.090     8.201
    39   7 N        2.067    -0.199    26.028     7.568
    40   7 N        2.068    -0.199    26.018     7.567
    41   6 C        3.127     0.124    25.106     8.204
    42   6 C        2.975     0.001    27.994     8.679
    43   6 C        2.928    -0.028    28.691     8.784
    44   6 C        2.919    -0.026    28.653     8.778
    45   6 C        2.920    -0.028    28.695     8.784
    46   6 C        2.919    -0.029    28.716     8.788
    47   6 C        2.922    -0.032    28.810     8.802
    48   7 N        2.832    -0.054    22.279     7.010
    49   6 C        2.912     0.067    26.501     8.441
    50   6 C        2.921    -0.038    28.936     8.821
    51   6 C        2.921    -0.026    28.645     8.777
    52   6 C        2.920    -0.030    28.741     8.791
    53   6 C        2.920    -0.026    28.646     8.777
    54   6 C        2.921    -0.038    28.939     8.822
    55   6 C        2.925    -0.029    28.714     8.788
    56   6 C        2.924    -0.032    28.788     8.799
    57   6 C        2.921    -0.035    28.864     8.810
    58   6 C        2.918    -0.037    28.930     8.820
    59   6 C        2.983     0.010    27.784     8.646
    60   6 C        2.914    -0.037    28.913     8.817
    61   6 C        2.913    -0.036    28.895     8.815
    62   6 C        2.983     0.007    27.859     8.658
    63   6 C        2.995     0.003    27.950     8.672
    64   6 C        2.995     0.003    27.948     8.672
    65   6 C        2.925    -0.034    28.837     8.806
    66   6 C        2.921    -0.044    29.100     8.846
    67   1 H        0.925     0.035     2.515     2.480
    68   1 H        0.925     0.033     2.546     2.495
    69   1 H        0.925     0.035     2.516     2.480
    70   1 H        0.925     0.034     2.527     2.486
    71   1 H        0.925     0.035     2.515     2.480
    72   1 H        0.925     0.035     2.513     2.479
    73   1 H        0.925     0.035     2.514     2.480
    74   1 H        0.925     0.035     2.516     2.480
    75   1 H        0.925     0.033     2.546     2.495
    76   1 H        0.926     0.028     2.622     2.532
    77   1 H        0.926     0.024     2.674     2.557
    78   1 H        0.926     0.036     2.499     2.472
    79   1 H        0.926     0.036     2.499     2.472
    80   1 H        0.925     0.035     2.513     2.479
    81   1 H        0.925     0.035     2.514     2.480
    82   1 H        0.925     0.033     2.546     2.495
    83   1 H        0.925     0.035     2.515     2.480
    84   1 H        0.925     0.033     2.546     2.495
    85   1 H        0.925     0.035     2.514     2.479
    86   1 H        0.925     0.035     2.515     2.480
    87   1 H        0.925     0.035     2.514     2.479
    88   1 H        0.925     0.034     2.526     2.485
    89   1 H        0.926     0.028     2.619     2.531
    90   1 H        0.926     0.024     2.679     2.559
    91   1 H        0.926     0.040     2.445     2.445
    92   1 H        0.926     0.036     2.501     2.473
    93   1 H        0.926     0.031     2.579     2.511
    94   1 H        0.926     0.031     2.576     2.510
    95   1 H        0.926     0.029     2.605     2.524
    96   1 H        0.926     0.031     2.574     2.509
    97   1 H        0.926     0.034     2.525     2.485
    98   1 H        0.926     0.026     2.644     2.543
    99   1 H        0.926     0.054     2.265     2.353
   100   1 H        0.926     0.038     2.475     2.460
   101   1 H        0.926     0.035     2.518     2.482
   102   1 H        0.926     0.032     2.552     2.498
   103   1 H        0.926     0.026     2.643     2.543
   104   1 H        0.926     0.040     2.446     2.446
   105   1 H        0.926     0.041     2.432     2.439
   106   1 H        0.926     0.040     2.442     2.444
   107   1 H        0.926     0.041     2.437     2.441
   108   1 H        0.926     0.040     2.453     2.449
   109   1 H        0.926     0.054     2.272     2.357
   110   1 H        0.926     0.038     2.469     2.457
   111   1 H        0.926     0.033     2.542     2.493
   112   1 H        0.926     0.033     2.547     2.496
   113   1 H        0.926     0.031     2.574     2.509
   114   1 H        0.926     0.034     2.537     2.491
   115   1 H        0.926     0.035     2.517     2.481
   116   1 H        0.926     0.040     2.444     2.445

molecular dipole:
                 x           y           z       tot (Debye)
 q only:       -0.584      -1.284       0.485
   full:       -0.689      -1.910       0.699       5.457

 projected vibrational frequencies (cm⁻¹)
eigval :       -0.00    -0.00     0.00     0.00     0.00     0.00
eigval :        5.82     6.03     8.59    11.90    14.87    22.21
eigval :       27.39    31.05    31.76    33.73    42.27    45.63
eigval :       48.16    52.42    57.44    67.36    71.92    76.93
eigval :       85.46    92.64   104.74   106.85   112.21   119.00
eigval :      121.43   133.17   143.26   155.35   160.90   170.38
eigval :      176.42   185.06   196.36   201.67   203.07   218.23
eigval :      220.54   225.76   229.54   234.94   243.17   247.84
eigval :      255.45   258.94   274.41   279.06   290.61   300.82
eigval :      305.81   317.46   321.67   322.06   331.29   338.40
eigval :      347.25   359.49   360.15   370.45   371.74   376.75
eigval :      379.57   383.01   387.83   393.91   400.13   404.33
eigval :      409.53   411.94   413.93   416.18   440.71   443.06
eigval :      445.31   459.63   462.48   466.05   471.27   476.19
eigval :      479.86   481.34   491.39   496.70   511.01   513.07
eigval :      518.87   542.75   544.62   557.23   572.83   577.29
eigval :      583.28   586.08   586.89   593.67   598.39   607.30
eigval :      609.54   628.18   639.79   641.03   642.48   652.68
eigval :      658.42   663.01   672.79   679.71   682.54   687.74
eigval :      688.34   689.69   694.99   699.16   707.41   709.30
eigval :      710.99   720.97   731.98   745.43   752.94   758.73
eigval :      763.28   769.44   803.48   813.47   815.49   819.37
eigval :      822.68   825.92   831.64   832.07   847.85   854.17
eigval :      869.47   873.57   873.81   874.31   876.58   877.57
eigval :      880.82   882.78   898.87   904.15   910.75   913.31
eigval :      914.96   915.43   919.53   923.08   925.07   926.18
eigval :      926.91   927.40   929.40   930.60   931.77   932.59
eigval :      938.22   940.82   944.08   951.46   960.26   960.33
eigval :      961.89   962.87   962.90   962.96   963.43   978.95
eigval :      997.44  1002.19  1015.65  1031.18  1035.69  1035.89
eigval :     1035.93  1037.92  1041.85  1048.90  1079.09  1082.07
eigval :     1110.01  1110.60  1116.67  1117.03  1120.74  1126.36
eigval :     1130.22  1136.14  1137.86  1143.68  1151.94  1164.20
eigval :     1168.42  1177.62  1180.41  1181.19  1186.68  1190.22
eigval :     1190.85  1197.79  1198.63  1199.59  1203.20  1211.20
eigval :     1215.08  1228.22  1228.33  1231.62  1232.52  1237.10
eigval :     1238.38  1244.95  1248.97  1260.86  1267.02  1269.06
eigval :     1276.32  1279.44  1285.76  1287.07  1291.18  1305.10
eigval :     1305.65  1310.12  1312.12  1312.64  1315.01  1315.86
eigval :     1318.12  1321.60  1327.51  1348.13  1359.76  1366.12
eigval :     1375.96  1384.42  1385.41  1387.43  1401.17  1403.36
eigval :     1404.77  1406.07  1406.12  1406.38  1407.88  1416.19
eigval :     1418.99  1429.47  1429.61  1430.64  1436.06  1443.69
eigval :     1451.22  1452.66  1465.48  1481.66  1483.54  1485.96
eigval :     1487.54  1492.71  1492.76  1495.42  1495.48  1498.73
eigval :     1501.91  1502.29  1506.07  1506.16  1507.47  1515.08
eigval :     1515.28  1520.58  1521.42  1530.12  1531.91  1533.88
eigval :     1556.11  1560.51  1562.56  1566.42  1571.41  1582.03
eigval :     1582.70  1584.20  1594.37  1595.27  1595.51  1597.86
eigval :     1604.12  1605.16  1607.41  1618.29  3020.21  3020.38
eigval :     3021.53  3021.69  3026.57  3026.60  3028.80  3029.29
eigval :     3030.70  3030.79  3035.30  3035.55  3037.60  3037.88
eigval :     3046.63  3046.68  3050.03  3050.24  3066.50  3069.47
eigval :     3070.13  3072.96  3075.28  3075.97  3077.14  3077.82
eigval :     3078.48  3079.84  3080.66  3081.72  3082.22  3083.47
eigval :     3084.62  3084.81  3087.71  3087.85  3088.88  3090.95
eigval :     3091.17  3091.78  3091.88  3093.88  3094.17  3094.84
eigval :     3096.31  3103.05  3106.92  3108.40  3114.75  3118.17

   temp. (K)  partition function   enthalpy   heat capacity  entropy
                                   cal/mol     cal/K/mol   cal/K/mol   J/K/mol
 298.15  VIB  0.174E+28            33333.874    207.023    209.229
         ROT  0.369E+09              888.752      2.981     42.180
         INT  0.640E+36            34222.627    210.004    251.409
         TR   0.240E+29             1481.254      4.968     46.080
         TOT                       35703.8805   214.9724   297.4889  1244.6936

       T/K    H(0)-H(T)+PV         H(T)/Eh          T*S/Eh         G(T)/Eh
   ------------------------------------------------------------------------
    298.15    0.568978E-01    0.982956E+00    0.141347E+00    0.841609E+00
   ------------------------------------------------------------------------

         :::::::::::::::::::::::::::::::::::::::::::::::::::::
         ::                  THERMODYNAMIC                  ::
         :::::::::::::::::::::::::::::::::::::::::::::::::::::
         :: total free energy        -169.230667258633 Eh   ::
         ::.................................................::
         :: total energy             -170.072276314914 Eh   ::
         :: zero point energy           0.926057883496 Eh   ::
         :: G(RRHO) w/o ZPVE           -0.084448827216 Eh   ::
         :: G(RRHO) contrib.            0.841609056280 Eh   ::
         :::::::::::::::::::::::::::::::::::::::::::::::::::::

           -------------------------------------------------
          | TOTAL ENERGY             -170.072276314914 Eh   |
          | TOTAL ENTHALPY           -169.089320676109 Eh   |
          | TOTAL FREE ENERGY        -169.230667258633 Eh   |
          | GRADIENT NORM               0.000130762870 Eh/α |
          | HOMO-LUMO GAP               1.889002097859 eV   |
           -------------------------------------------------

 * finished run on 2025/08/22 at 15:43:09.487
