   * xtb version 6.7.1 (edcfbbe) compiled by 'albert@albert-system' on 2024-07-22

   ID    Z sym.   atoms
    1    6 C      1-8, 10, 12-17, 19-32, 34-45, 47, 48
    2    7 N      9, 18
    3    8 O      11, 33, 46
    4    1 H      49-82

          program call               : xtb data2507/toluene/BFDMAc-NAI/BFDMAc-NAI_toluene_S0_finalOpt.xtbopt.xyz --gfn 2 --uhf 2 --gbsa toluene --ohess vtight --parallel 40 --molden --ceasefiles --namespace data2507/toluene/BFDMAc-NAI/BFDMAc-NAI_toluene_T1_preOpt
      * Solvation model:               GBSA
        Solvent                        toluene
        Solvent mass                       9.2140E+01 g/mol
          :  Hamiltonian                  GFN2-xTB          :
 * total energy  :  -127.5836458 Eh     change       -0.5079812E-08 Eh
 * total energy  :  -127.5872558 Eh     change       -0.3610051E-02 Eh
 * total energy  :  -127.5880226 Eh     change       -0.7667269E-03 Eh
 * total energy  :  -127.5880802 Eh     change       -0.5764960E-04 Eh
 * total energy  :  -127.5881062 Eh     change       -0.2602634E-04 Eh
 * total energy  :  -127.5881152 Eh     change       -0.8918894E-05 Eh
 * total energy  :  -127.5881204 Eh     change       -0.5292434E-05 Eh
 * total energy  :  -127.5881242 Eh     change       -0.3727033E-05 Eh
 * total energy  :  -127.5881260 Eh     change       -0.1823229E-05 Eh
 * total energy  :  -127.5881278 Eh     change       -0.1827525E-05 Eh
 * total energy  :  -127.5881323 Eh     change       -0.8364472E-06 Eh
 * total energy  :  -127.5881330 Eh     change       -0.7163259E-06 Eh
 * total energy  :  -127.5881335 Eh     change       -0.5412250E-06 Eh
 * total energy  :  -127.5881340 Eh     change       -0.4728785E-06 Eh
 * total energy  :  -127.5881345 Eh     change       -0.4765191E-06 Eh
 * total energy  :  -127.5881350 Eh     change       -0.5374787E-06 Eh
 * total energy  :  -127.5881356 Eh     change       -0.5336510E-06 Eh
 * total energy  :  -127.5881360 Eh     change       -0.4798441E-06 Eh
 * total energy  :  -127.5881361 Eh     change       -0.1019656E-07 Eh
   *** GEOMETRY OPTIMIZATION CONVERGED AFTER 22 ITERATIONS ***

 final structure:
================
82
 xtb: 6.7.1 (edcfbbe)
C            9.47204840904788        0.38533828850715       -0.79505355434433
C            8.86126079014756       -0.37536138577502        0.39114827085884
C            9.52605623713280       -1.75295996957542        0.46836826438392
C            9.15660174918945        0.37338634687979        1.69938357337591
C            7.35361644510337       -0.46167403448724        0.20209863700389
C            6.60546523021914        0.71028835347203        0.11363221454548
C            5.23454542464701        0.68437208534816       -0.04897362089663
C            4.57376960245894       -0.53019008741546       -0.13527285414969
N            3.15184596602337       -0.56423048162466       -0.30004971042197
C            2.65390645974114       -0.21224975908327       -1.54701616720644
O            3.42900563142196        0.10006203738435       -2.45611844751057
C            1.21447209367319       -0.23584721464086       -1.69185855972892
C            0.63457023106103        0.11123359333681       -2.92737220626969
C           -0.73099069179781        0.08047796054466       -3.08148220183415
C           -1.55912601134377       -0.27309625430938       -2.02001332069340
C           -1.01936931605242       -0.60129744140758       -0.76811002845893
C           -1.81104869167883       -0.96582550078011        0.35332864638936
N           -3.22111760161128       -0.90387875952897        0.27216129177261
C           -3.94938804288453       -2.07549367927975        0.30148043364593
C           -3.27367749194650       -3.30639177823844        0.36048999629355
C           -3.97209630203346       -4.48942463174838        0.42219772062623
C           -5.36091079050409       -4.47248046881991        0.40436273934407
C           -6.03006883325215       -3.26715835603811        0.29509763186381
C           -5.35373931317850       -2.05560181735450        0.23314306628070
C           -6.13017381900601       -0.77216566307185        0.05627248549406
C           -6.91434347159961       -0.86338012759565       -1.26961170294709
C           -7.10728727363355       -0.61278175447869        1.24015353417101
C           -5.23053845334385        0.44267979604285        0.01851415620748
C           -5.80771148711442        1.70206373610097       -0.12435472606875
C           -5.07411887893441        2.87211665097400       -0.09986901251713
C           -3.70374486131602        2.77989331829991        0.10888716057663
C           -3.09405926763545        1.52062945013369        0.24539118730521
O           -1.76136346004433        1.64431736246526        0.47405479322551
C           -1.48445477788238        2.97523961511691        0.48585267031885
C           -0.24503642471028        3.55815723076863        0.68947742842715
C           -0.18865286017757        4.93959990444120        0.65648298279375
C           -1.32823291555497        5.71125376060648        0.43010217005366
C           -2.56380450036585        5.12792834846861        0.22913992547353
C           -2.64425528378266        3.74119596375488        0.25761491993779
C           -3.83183992051188        0.32197123953940        0.16753635748312
C           -1.21891375436084       -1.35513007917699        1.56437485582334
C            0.14259702406509       -1.35068417855232        1.70733500184472
C            0.97025326239388       -0.96835853376052        0.62845405403667
C            0.39525715912838       -0.59996009510943       -0.60605080291971
C            2.40212955593467       -0.94602565266825        0.80639576300026
O            2.96717271810582       -1.23211929307855        1.86803677521248
C            5.29619481827605       -1.70706614344817       -0.05674357224746
C            6.66923478366794       -1.66802674636590        0.11451327932398
H            9.08391056208932        1.39791083758798       -0.85903363777582
H           10.55325742113949        0.43907605786333       -0.68708651727877
H            9.24101331470992       -0.12602161588752       -1.72744181933717
H           10.59850102862234       -1.62923054802797        0.60477633147271
H            9.36576439371722       -2.31547864022001       -0.44844971895667
H            9.14297240660647       -2.32456820760180        1.31047945607603
H            8.77054265547664        1.38837750977059        1.67042523994922
H            8.69416589692670       -0.14241674898441        2.53864374338823
H           10.23019017543707        0.42016608575908        1.86883734332722
H            7.09276463909822        1.67148934105877        0.17512816832171
H            4.67137538900295        1.60456177731732       -0.11563145687842
H            1.29454707405818        0.39447780304200       -3.73315049375640
H           -1.17204334691396        0.34335013560427       -4.03190523742074
H           -2.62851763728957       -0.28714105847807       -2.16895281684567
H           -2.19593855743694       -3.31907462475728        0.34694716120581
H           -3.43639671208629       -5.42454855384342        0.47307567301160
H           -5.91663186285928       -5.39587959864699        0.45408770068612
H           -7.10720278538102       -3.27755419943883        0.25193043000789
H           -7.49017225202870        0.04059584759279       -1.43897624130334
H           -6.22596331929162       -0.99625243871446       -2.10144270725565
H           -7.59798429477818       -1.70599098055709       -1.25142528043340
H           -7.77311070473143       -1.46730360390871        1.30345924063253
H           -6.55168895413385       -0.53728237492547        2.17253237686585
H           -7.71035526467414        0.28176883213686        1.12485500432147
H           -6.87486349478557        1.77415870123668       -0.25448826149329
H           -5.55023014995551        3.83141336362248       -0.21948758391151
H            0.63028843325384        2.95283309242435        0.86419800345406
H            0.76040632484457        5.43043300336202        0.80970037530586
H           -1.23693692193725        6.78665577011764        0.41295234393925
H           -3.44269235576269        5.72816302189443        0.05468955014482
H           -1.85672939203090       -1.61036777037099        2.39810127372170
H            0.61768565201466       -1.61763645595431        2.63839682034879
H            4.78069065713554       -2.65490534165779       -0.12190080998517
H            7.19583185960768       -2.60623886740834        0.17507240317682

          :  Hamiltonian                  GFN2-xTB          :
         :: gradient norm              0.000063516446 Eh/a0 ::
         :: HOMO-LUMO gap              0.739257019683 eV    ::
         :: SCC energy              -129.703484945839 Eh    ::
         :: -> dispersion             -0.116824690953 Eh    ::
         :: -> Gsolv                  -0.073428471512 Eh    ::
         :: repulsion energy           2.115348890204 Eh    ::

    * Orbital Energies and Occupations

         #    Occupation            Energy/Eh            Energy/eV
      -------------------------------------------------------------
         1        2.0000           -0.7576085             -20.6156
       ...           ...                  ...                  ...
       106        2.0000           -0.4199094             -11.4263
       107        2.0000           -0.4173027             -11.3554
       108        2.0000           -0.4124177             -11.2225
       109        2.0000           -0.4093917             -11.1401
       110        2.0000           -0.4039823             -10.9929
       111        2.0000           -0.4038027             -10.9880
       112        2.0000           -0.4023659             -10.9489
       113        2.0000           -0.3911036             -10.6425
       114        2.0000           -0.3900547             -10.6139
       115        1.9993           -0.3862463             -10.5103
       116        1.9984           -0.3854956             -10.4899
       117        1.0023           -0.3736311             -10.1670
       118        1.0000           -0.2998743              -8.1600 (HOMO)
       119        0.0000           -0.2727076              -7.4208 (LUMO)
       120                         -0.2538701              -6.9082
       121                         -0.2456484              -6.6844
       122                         -0.2399867              -6.5304
       123                         -0.2340511              -6.3689
       124                         -0.2308641              -6.2821
       125                         -0.2255655              -6.1379
       126                         -0.2208425              -6.0094
       127                         -0.2188174              -5.9543
       128                         -0.2122021              -5.7743
       129                         -0.2067202              -5.6251
       ...                                ...                  ...
       226                          0.7197110              19.5843
      -------------------------------------------------------------
                  HL-Gap            0.0271667 Eh            0.7392 eV

     #   Z          covCN         q      C6AA      α(0)
     1   6 C        3.761    -0.107    22.592     6.776
     2   6 C        3.902     0.026    20.081     6.370
     3   6 C        3.761    -0.110    22.650     6.784
     4   6 C        3.761    -0.107    22.594     6.776
     5   6 C        2.972     0.011    27.776     8.645
     6   6 C        2.929    -0.036    28.885     8.814
     7   6 C        2.920    -0.035    28.859     8.810
     8   6 C        2.936     0.092    25.953     8.355
     9   7 N        2.748    -0.140    24.033     7.281
    10   6 C        2.777     0.260    22.628     7.791
    11   8 O        0.858    -0.511    24.036     6.573
    12   6 C        2.978    -0.042    29.026     8.837
    13   6 C        2.918    -0.035    28.872     8.811
    14   6 C        2.912    -0.032    28.798     8.800
    15   6 C        2.917    -0.052    29.289     8.875
    16   6 C        2.977     0.011    27.761     8.643
    17   6 C        2.930     0.026    27.426     8.589
    18   7 N        2.752     0.023    20.840     6.780
    19   6 C        2.932     0.060    26.663     8.468
    20   6 C        2.922    -0.039    28.973     8.827
    21   6 C        2.917    -0.023    28.570     8.765
    22   6 C        2.917    -0.022    28.545     8.761
    23   6 C        2.924    -0.029    28.723     8.789
    24   6 C        2.978     0.007    27.856     8.658
    25   6 C        3.910     0.028    20.050     6.364
    26   6 C        3.761    -0.113    22.702     6.792
    27   6 C        3.761    -0.114    22.722     6.795
    28   6 C        2.979     0.002    27.967     8.675
    29   6 C        2.925    -0.039    28.966     8.826
    30   6 C        2.909    -0.027    28.673     8.780
    31   6 C        3.058    -0.015    28.324     8.728
    32   6 C        3.086     0.119    25.286     8.243
    33   8 O        1.716    -0.216    17.591     5.663
    34   6 C        3.100     0.129    25.062     8.204
    35   6 C        2.908    -0.046    29.151     8.853
    36   6 C        2.927    -0.027    28.679     8.782
    37   6 C        2.921    -0.033    28.812     8.802
    38   6 C        2.912    -0.030    28.754     8.793
    39   6 C        3.054    -0.015    28.328     8.729
    40   6 C        2.922     0.043    27.036     8.527
    41   6 C        2.912    -0.036    28.905     8.816
    42   6 C        2.917    -0.037    28.930     8.820
    43   6 C        2.976    -0.040    28.999     8.833
    44   6 C        2.990     0.007    27.845     8.656
    45   6 C        2.778     0.258    22.663     7.797
    46   8 O        0.858    -0.513    24.081     6.579
    47   6 C        2.921    -0.035    28.860     8.810
    48   6 C        2.927    -0.040    28.987     8.829
    49   1 H        0.925     0.038     2.476     2.461
    50   1 H        0.925     0.045     2.387     2.416
    51   1 H        0.925     0.034     2.531     2.488
    52   1 H        0.925     0.043     2.405     2.425
    53   1 H        0.925     0.038     2.481     2.463
    54   1 H        0.925     0.038     2.477     2.461
    55   1 H        0.925     0.038     2.475     2.460
    56   1 H        0.925     0.034     2.528     2.487
    57   1 H        0.925     0.045     2.386     2.416
    58   1 H        0.926     0.043     2.411     2.428
    59   1 H        0.926     0.027     2.629     2.536
    60   1 H        0.926     0.035     2.521     2.483
    61   1 H        0.926     0.036     2.507     2.476
    62   1 H        0.926     0.028     2.621     2.532
    63   1 H        0.926     0.051     2.304     2.374
    64   1 H        0.926     0.053     2.285     2.364
    65   1 H        0.926     0.058     2.225     2.332
    66   1 H        0.926     0.065     2.141     2.288
    67   1 H        0.925     0.062     2.180     2.309
    68   1 H        0.925     0.043     2.415     2.430
    69   1 H        0.925     0.062     2.174     2.306
    70   1 H        0.925     0.063     2.170     2.304
    71   1 H        0.925     0.043     2.406     2.426
    72   1 H        0.925     0.062     2.180     2.309
    73   1 H        0.926     0.074     2.045     2.236
    74   1 H        0.926     0.068     2.104     2.268
    75   1 H        0.926     0.040     2.443     2.444
    76   1 H        0.926     0.050     2.317     2.380
    77   1 H        0.926     0.054     2.272     2.357
    78   1 H        0.926     0.058     2.220     2.330
    79   1 H        0.926     0.045     2.377     2.411
    80   1 H        0.926     0.044     2.396     2.421
    81   1 H        0.926     0.028     2.620     2.531
    82   1 H        0.926     0.050     2.324     2.384

molecular dipole:
                 x           y           z       tot (Debye)
 q only:       -8.045       0.553       0.659
   full:       -7.857       0.501       0.641      20.077

 projected vibrational frequencies (cm⁻¹)
eigval :       -0.00    -0.00     0.00     0.00     0.00     0.00
eigval :        9.27    15.88    19.60    24.31    28.30    33.90
eigval :       44.12    50.25    53.90    65.23    84.61    94.88
eigval :       97.43   102.62   116.66   121.79   124.31   128.18
eigval :      139.99   170.53   175.04   178.21   189.88   190.14
eigval :      197.23   216.75   225.33   233.06   243.44   250.96
eigval :      254.95   271.35   293.68   298.44   308.04   311.32
eigval :      312.44   320.13   327.06   344.98   351.27   361.73
eigval :      367.36   380.62   385.78   391.39   396.29   399.99
eigval :      413.27   418.91   433.23   435.42   454.90   462.83
eigval :      467.90   481.02   488.51   490.34   511.00   517.81
eigval :      519.43   520.94   536.25   542.90   546.10   553.43
eigval :      560.08   569.75   580.91   600.25   608.31   615.87
eigval :      628.62   634.48   651.95   660.10   671.38   686.03
eigval :      691.17   702.30   703.96   706.95   713.11   718.39
eigval :      721.00   760.89   770.74   774.38   776.28   788.10
eigval :      800.29   808.00   810.05   827.48   838.59   844.08
eigval :      850.08   851.47   864.82   873.15   873.26   883.38
eigval :      887.94   901.50   905.06   906.65   908.12   909.80
eigval :      918.38   921.14   924.99   925.47   933.27   941.66
eigval :      959.24   959.55   961.84   962.59   986.70  1006.38
eigval :     1010.49  1031.28  1034.99  1035.43  1058.64  1068.42
eigval :     1092.07  1100.83  1103.88  1123.19  1126.61  1135.41
eigval :     1137.33  1140.41  1145.30  1147.49  1155.91  1165.64
eigval :     1169.50  1178.26  1183.80  1188.28  1191.95  1197.44
eigval :     1205.09  1208.17  1224.03  1226.57  1232.14  1233.89
eigval :     1241.46  1245.51  1259.46  1277.03  1279.07  1280.47
eigval :     1290.67  1296.49  1306.20  1315.18  1321.29  1331.44
eigval :     1343.98  1347.65  1359.25  1364.17  1378.00  1389.76
eigval :     1395.69  1396.52  1401.04  1402.29  1405.03  1407.53
eigval :     1414.05  1414.61  1415.88  1425.03  1430.37  1452.05
eigval :     1458.37  1473.95  1474.93  1477.32  1486.02  1486.55
eigval :     1487.51  1490.69  1491.47  1492.90  1498.15  1503.50
eigval :     1508.17  1508.28  1516.58  1540.36  1545.75  1550.57
eigval :     1557.50  1570.99  1577.85  1581.11  1587.44  1602.98
eigval :     1603.42  1610.44  3022.50  3023.80  3026.45  3028.54
eigval :     3030.14  3033.67  3034.78  3036.23  3037.92  3047.15
eigval :     3049.96  3058.51  3060.55  3064.50  3068.64  3070.31
eigval :     3073.31  3073.63  3078.26  3085.18  3087.16  3088.13
eigval :     3092.95  3093.96  3096.47  3100.54  3100.74  3101.90
eigval :     3106.53  3107.97  3109.05  3113.45  3115.83  3118.51

   temp. (K)  partition function   enthalpy   heat capacity  entropy
                                   cal/mol     cal/K/mol   cal/K/mol   J/K/mol
 298.15  VIB  0.544E+18            23778.166    150.587    146.004
         ROT  0.766E+08              888.752      2.981     39.059
         INT  0.417E+26            24666.918    153.567    185.063
         TR   0.152E+29             1481.254      4.968     45.168
         TOT                       26148.1721   158.5356   230.2312   963.2875

       T/K    H(0)-H(T)+PV         H(T)/Eh          T*S/Eh         G(T)/Eh
   ------------------------------------------------------------------------
    298.15    0.416698E-01    0.681143E+00    0.109390E+00    0.571753E+00
   ------------------------------------------------------------------------

         :::::::::::::::::::::::::::::::::::::::::::::::::::::
         ::                  THERMODYNAMIC                  ::
         :::::::::::::::::::::::::::::::::::::::::::::::::::::
         :: total free energy        -127.016383285725 Eh   ::
         ::.................................................::
         :: total energy             -127.588136054575 Eh   ::
         :: zero point energy           0.639473299121 Eh   ::
         :: G(RRHO) w/o ZPVE           -0.067720530271 Eh   ::
         :: G(RRHO) contrib.            0.571752768850 Eh   ::
         :::::::::::::::::::::::::::::::::::::::::::::::::::::

           -------------------------------------------------
          | TOTAL ENERGY             -127.588136054575 Eh   |
          | TOTAL ENTHALPY           -126.906992990761 Eh   |
          | TOTAL FREE ENERGY        -127.016383285725 Eh   |
          | GRADIENT NORM               0.000063067261 Eh/α |
          | HOMO-LUMO GAP               0.739244415031 eV   |
           -------------------------------------------------

 * finished run on 2025/09/08 at 00:34:41.395
