   * xtb version 6.7.1 (edcfbbe) compiled by 'albert@albert-system' on 2024-07-22

   ID    Z sym.   atoms
    1    6 C      1-8, 10, 12-17, 19-32, 34-45, 47, 48
    2    7 N      9, 18
    3    8 O      11, 33, 46
    4    1 H      49-82

          program call               : xtb data2507/toluene/BFDMAc-NAI/BFDMAc-NAI_toluene_S0_crest.xyz --gfn 2 --gbsa toluene --ohess vtight --parallel 40 --molden --ceasefiles --namespace data2507/toluene/BFDMAc-NAI/BFDMAc-NAI_toluene_S0_finalOpt
      * Solvation model:               GBSA
        Solvent                        toluene
        Solvent mass                       9.2140E+01 g/mol
          :  Hamiltonian                  GFN2-xTB          :
 * total energy  :  -127.6481832 Eh     change       -0.1943476E-08 Eh
 * total energy  :  -127.6482906 Eh     change       -0.1074116E-03 Eh
 * total energy  :  -127.6483287 Eh     change       -0.3816736E-04 Eh
 * total energy  :  -127.6483415 Eh     change       -0.1276016E-04 Eh
 * total energy  :  -127.6483539 Eh     change       -0.1240328E-04 Eh
 * total energy  :  -127.6483719 Eh     change       -0.1804494E-04 Eh
 * total energy  :  -127.6483792 Eh     change       -0.7210348E-05 Eh
 * total energy  :  -127.6483908 Eh     change       -0.1166155E-04 Eh
 * total energy  :  -127.6483969 Eh     change       -0.6110645E-05 Eh
 * total energy  :  -127.6484041 Eh     change       -0.7170636E-05 Eh
 * total energy  :  -127.6484805 Eh     change       -0.4245054E-06 Eh
 * total energy  :  -127.6484811 Eh     change       -0.5408535E-06 Eh
 * total energy  :  -127.6484817 Eh     change       -0.6287557E-06 Eh
 * total energy  :  -127.6484822 Eh     change       -0.4808231E-06 Eh
 * total energy  :  -127.6484823 Eh     change       -0.1228691E-06 Eh
 * total energy  :  -127.6484825 Eh     change       -0.1756577E-06 Eh
 * total energy  :  -127.6484823 Eh     change        0.1435916E-06 Eh
 * total energy  :  -127.6484825 Eh     change       -0.1778325E-06 Eh
 * total energy  :  -127.6484825 Eh     change       -0.3560223E-07 Eh
   *** GEOMETRY OPTIMIZATION CONVERGED AFTER 48 ITERATIONS ***

 final structure:
================
82
 xtb: 6.7.1 (edcfbbe)
C            9.47826897119437        0.41174013382488       -0.79862592057053
C            8.87450085841546       -0.36020289056608        0.38394728079844
C            9.54363902832432       -1.73631358774248        0.44885104889085
C            9.17106833137606        0.37973517815671        1.69699843027880
C            7.36718330296654       -0.44979430375515        0.19900662056664
C            6.61442911784172        0.72074535326424        0.12807470411500
C            5.24277465672951        0.69183847561948       -0.02955141409899
C            4.59062124688639       -0.52589116652009       -0.12745123777681
N            3.16256730023579       -0.56546291140921       -0.28762778093801
C            2.66369421669730       -0.21746943144384       -1.53306389855318
O            3.41932774415736        0.08874424835033       -2.43858066955725
C            1.20234299818107       -0.25129825059106       -1.67891862584518
C            0.62895073098450        0.08548216073767       -2.88950783913259
C           -0.75721703073958        0.04843425135278       -3.04692770037121
C           -1.56704427427531       -0.29769042976667       -1.99467804142242
C           -1.01977493101151       -0.62670287394586       -0.73851598600300
C           -1.81990982141793       -0.96925122251716        0.38755741178530
N           -3.22500170029875       -0.91284549625421        0.28628150916553
C           -3.97022339162484       -2.09021573880858        0.31405913626235
C           -3.31451706451466       -3.32231018231421        0.38328323291031
C           -4.02487941947096       -4.50414264145360        0.41554841368545
C           -5.40713056509242       -4.47683052870304        0.36336602992825
C           -6.05485085491611       -3.26075054948538        0.25431946383017
C           -5.36406559321707       -2.05543263282334        0.21848640479590
C           -6.13833071445274       -0.76275028508432        0.04253762185174
C           -6.90956893576036       -0.83755232727057       -1.28891506017591
C           -7.11903946314137       -0.60844561896847        1.22084672771504
C           -5.22609030701955        0.45043521132517        0.02131264025361
C           -5.80293449591677        1.71579455196204       -0.11381008865207
C           -5.07281880123324        2.88288971678934       -0.08618115584456
C           -3.70298699691926        2.78107755861494        0.11618925970033
C           -3.10592948643912        1.51815306458325        0.25126203720316
O           -1.75589023666891        1.63309567342963        0.47653368705910
C           -1.47798805428819        2.96549570466092        0.48256560822375
C           -0.23699211324229        3.54521111849189        0.67748783938786
C           -0.17269493670189        4.92711838049628        0.63993272050701
C           -1.30848860507043        5.70210316768028        0.41664275400957
C           -2.54665345518441        5.12053866209621        0.22488704629392
C           -2.63451034200897        3.73472468770690        0.25836737292781
C           -3.84125680185630        0.32826335984828        0.17277794045466
C           -1.22596995920052       -1.34705278201919        1.57483900111450
C            0.15865300175139       -1.35242293230008        1.70756305009559
C            0.96775912835155       -0.98446373058387        0.64795066509051
C            0.39005997809920       -0.62406608145037       -0.58708446120322
C            2.42269356456597       -0.95333276582290        0.82114386032652
O            2.98091189752265       -1.23511505738970        1.86743043769110
C            5.31474790342905       -1.70222801119703       -0.06726785626773
C            6.68842868594819       -1.65864669542338        0.09830679294798
H            9.08606475266809        1.42317828643521       -0.85487238003016
H           10.55928984719119        0.46990834316012       -0.69214411837525
H            9.24914357195654       -0.09451110027854       -1.73422483547225
H           10.61580947086840       -1.61006001159985        0.58447786654274
H            9.38510789860535       -2.29226234560748       -0.47224804852968
H            9.16500041192874       -2.31603538238896        1.28743483091730
H            8.78463283084262        1.39475907770278        1.67711625399436
H            8.71276188613232       -0.14297841916843        2.53421665003148
H           10.24495054607097        0.42686541874135        1.86381331446274
H            7.09842888456782        1.68239054064560        0.19974055597896
H            4.67621697650912        1.61048691307832       -0.08065978323441
H            1.27538104747608        0.37054325816570       -3.70624820043061
H           -1.18930204751482        0.29799762383528       -4.00372306380749
H           -2.63863932651434       -0.32086330191249       -2.12433278972706
H           -2.23640556504997       -3.35479083942373        0.40409474718939
H           -3.49507753668014       -5.44321762832441        0.47470873932140
H           -5.97585277764632       -5.39374949229231        0.39265651570506
H           -7.13185051689791       -3.25600122296812        0.19011483699891
H           -7.46975518430281        0.07582663528617       -1.46534539278685
H           -6.21457914295323       -0.98010450364395       -2.11427215949321
H           -7.60823918285062       -1.66890575648022       -1.28340124749202
H           -7.78259241637353       -1.46570412096184        1.28552236846832
H           -6.56573270038805       -0.53072357562188        2.15510171917191
H           -7.72733507967020        0.28386264622689        1.10734241532754
H           -6.87093128877396        1.78661154989901       -0.24343157696897
H           -5.54667036190662        3.84434767841245       -0.19934454690745
H            0.63819268451369        2.93921213353211        0.85318818040777
H            0.77965356079030        5.41384978668962        0.78784603053687
H           -1.21464823312966        6.77752721459999        0.39509321204631
H           -3.42545561278276        5.72270760928717        0.05374888552607
H           -1.84756666104843       -1.61606342805074        2.41593261886707
H            0.62235105551556       -1.62024544957940        2.64525418600009
H            4.80408213888341       -2.65144004834176       -0.14300006247453
H            7.22009372264423       -2.59435014557781        0.14472367066830

          :  Hamiltonian                  GFN2-xTB          :
         :: gradient norm              0.000025067128 Eh/a0 ::
         :: HOMO-LUMO gap              1.025696996420 eV    ::
         :: SCC energy              -129.778311997144 Eh    ::
         :: -> dispersion             -0.116868912021 Eh    ::
         :: -> Gsolv                  -0.054041147301 Eh    ::
         :: repulsion energy           2.129829447881 Eh    ::

    * Orbital Energies and Occupations

         #    Occupation            Energy/Eh            Energy/eV
      -------------------------------------------------------------
         1        2.0000           -0.7422310             -20.1971
       ...           ...                  ...                  ...
       105        2.0000           -0.4204459             -11.4409
       106        2.0000           -0.4183617             -11.3842
       107        2.0000           -0.4181264             -11.3778
       108        2.0000           -0.4168402             -11.3428
       109        2.0000           -0.4151058             -11.2956
       110        2.0000           -0.4140592             -11.2671
       111        2.0000           -0.4100249             -11.1573
       112        2.0000           -0.4083216             -11.1110
       113        2.0000           -0.4017418             -10.9320
       114        2.0000           -0.3989219             -10.8552
       115        2.0000           -0.3977459             -10.8232
       116        2.0000           -0.3894650             -10.5979
       117        2.0000           -0.3564284              -9.6989 (HOMO)
       118                         -0.3187347              -8.6732 (LUMO)
       119                         -0.2592970              -7.0558
       120                         -0.2568756              -6.9899
       121                         -0.2555276              -6.9533
       122                         -0.2370273              -6.4498
       123                         -0.2352512              -6.4015
       124                         -0.2294607              -6.2439
       125                         -0.2282598              -6.2113
       126                         -0.2253770              -6.1328
       127                         -0.2180409              -5.9332
       128                         -0.2090380              -5.6882
       ...                                ...                  ...
       226                          0.7351474              20.0044
      -------------------------------------------------------------
                  HL-Gap            0.0376937 Eh            1.0257 eV

     #   Z          covCN         q      C6AA      α(0)
     1   6 C        3.761    -0.108    22.611     6.778
     2   6 C        3.902     0.027    20.070     6.368
     3   6 C        3.761    -0.111    22.672     6.788
     4   6 C        3.761    -0.108    22.611     6.779
     5   6 C        2.973     0.015    27.675     8.629
     6   6 C        2.929    -0.033    28.815     8.803
     7   6 C        2.919    -0.034    28.840     8.807
     8   6 C        2.936     0.080    26.207     8.396
     9   7 N        2.746    -0.118    23.568     7.210
    10   6 C        2.775     0.277    22.310     7.736
    11   8 O        0.859    -0.441    22.518     6.362
    12   6 C        2.976    -0.028    28.698     8.787
    13   6 C        2.922    -0.009    28.237     8.714
    14   6 C        2.914    -0.023    28.585     8.767
    15   6 C        2.918    -0.016    28.418     8.742
    16   6 C        2.984     0.015    27.665     8.628
    17   6 C        2.924     0.081    26.194     8.393
    18   7 N        2.751    -0.056    22.322     7.017
    19   6 C        2.927     0.055    26.759     8.483
    20   6 C        2.924    -0.057    29.418     8.895
    21   6 C        2.920    -0.032    28.802     8.801
    22   6 C        2.917    -0.042    29.037     8.836
    23   6 C        2.928    -0.035    28.878     8.813
    24   6 C        2.979    -0.010    28.256     8.719
    25   6 C        3.909     0.023    20.126     6.377
    26   6 C        3.761    -0.108    22.607     6.778
    27   6 C        3.761    -0.108    22.610     6.778
    28   6 C        2.982    -0.015    28.374     8.738
    29   6 C        2.928    -0.045    29.112     8.848
    30   6 C        2.910    -0.048    29.192     8.859
    31   6 C        3.058    -0.023    28.514     8.757
    32   6 C        3.080     0.103    25.641     8.301
    33   8 O        1.714    -0.252    18.170     5.755
    34   6 C        3.087     0.126    25.146     8.220
    35   6 C        2.908    -0.054    29.335     8.881
    36   6 C        2.926    -0.033    28.810     8.802
    37   6 C        2.921    -0.039    28.959     8.825
    38   6 C        2.913    -0.034    28.844     8.807
    39   6 C        3.054    -0.020    28.449     8.747
    40   6 C        2.918     0.038    27.158     8.546
    41   6 C        2.917    -0.035    28.881     8.813
    42   6 C        2.921    -0.011    28.280     8.721
    43   6 C        2.976    -0.033    28.814     8.805
    44   6 C        2.994     0.012    27.730     8.638
    45   6 C        2.776     0.277    22.311     7.736
    46   8 O        0.859    -0.443    22.559     6.368
    47   6 C        2.920    -0.034    28.837     8.806
    48   6 C        2.927    -0.037    28.919     8.819
    49   1 H        0.925     0.039     2.460     2.453
    50   1 H        0.925     0.045     2.383     2.414
    51   1 H        0.925     0.035     2.511     2.478
    52   1 H        0.925     0.043     2.403     2.424
    53   1 H        0.925     0.039     2.464     2.455
    54   1 H        0.925     0.039     2.464     2.455
    55   1 H        0.925     0.039     2.460     2.453
    56   1 H        0.925     0.035     2.513     2.479
    57   1 H        0.925     0.045     2.383     2.414
    58   1 H        0.926     0.048     2.340     2.392
    59   1 H        0.926     0.033     2.539     2.492
    60   1 H        0.926     0.067     2.122     2.278
    61   1 H        0.926     0.063     2.167     2.302
    62   1 H        0.926     0.059     2.216     2.328
    63   1 H        0.926     0.026     2.639     2.540
    64   1 H        0.926     0.033     2.550     2.497
    65   1 H        0.926     0.033     2.540     2.492
    66   1 H        0.926     0.041     2.429     2.437
    67   1 H        0.925     0.047     2.353     2.399
    68   1 H        0.925     0.033     2.539     2.492
    69   1 H        0.925     0.048     2.348     2.396
    70   1 H        0.925     0.048     2.348     2.396
    71   1 H        0.925     0.033     2.544     2.494
    72   1 H        0.925     0.047     2.355     2.400
    73   1 H        0.926     0.050     2.318     2.381
    74   1 H        0.926     0.043     2.403     2.424
    75   1 H        0.926     0.033     2.548     2.496
    76   1 H        0.926     0.043     2.414     2.430
    77   1 H        0.926     0.044     2.400     2.423
    78   1 H        0.926     0.046     2.370     2.407
    79   1 H        0.926     0.063     2.163     2.300
    80   1 H        0.926     0.068     2.105     2.269
    81   1 H        0.926     0.034     2.527     2.486
    82   1 H        0.926     0.055     2.254     2.348

molecular dipole:
                 x           y           z       tot (Debye)
 q only:       -2.450       0.231      -0.279
   full:       -2.461       0.213      -0.244       6.309

 projected vibrational frequencies (cm⁻¹)
eigval :       -0.00    -0.00    -0.00     0.00     0.00     0.00
eigval :        9.84    18.24    20.50    24.56    28.52    35.24
eigval :       42.68    51.92    56.33    61.88    87.13    96.71
eigval :       97.04   103.50   108.82   122.61   126.40   131.08
eigval :      141.08   170.95   176.67   179.35   187.00   188.41
eigval :      197.24   214.53   227.17   231.51   243.17   250.30
eigval :      256.27   272.43   291.04   302.82   310.75   311.80
eigval :      313.28   324.24   329.82   344.63   349.34   361.13
eigval :      367.17   378.98   386.38   391.37   394.40   403.59
eigval :      420.61   421.40   434.02   437.01   448.62   466.46
eigval :      468.62   480.83   492.49   496.76   513.48   521.08
eigval :      523.27   531.29   541.44   546.89   549.96   554.61
eigval :      567.48   572.34   585.09   601.89   609.68   622.35
eigval :      628.37   638.84   655.24   680.02   686.67   688.96
eigval :      692.87   703.97   707.62   708.77   709.58   721.54
eigval :      747.07   772.89   775.28   779.41   789.62   802.91
eigval :      809.43   812.92   824.09   840.39   846.49   850.83
eigval :      857.56   865.61   870.15   872.68   888.48   901.23
eigval :      907.07   909.08   909.83   912.06   914.79   919.61
eigval :      922.03   922.38   924.31   929.15   935.53   943.32
eigval :      959.24   959.62   961.80   962.73   984.12  1007.03
eigval :     1013.92  1033.49  1034.60  1035.28  1061.19  1070.03
eigval :     1095.63  1104.30  1111.44  1128.23  1132.02  1138.91
eigval :     1141.51  1145.48  1150.84  1157.99  1167.19  1171.68
eigval :     1179.56  1181.28  1186.42  1189.10  1201.84  1204.26
eigval :     1215.82  1226.03  1227.23  1231.70  1237.30  1242.01
eigval :     1248.35  1249.20  1254.84  1275.12  1282.99  1285.45
eigval :     1289.45  1301.83  1309.43  1320.77  1324.37  1329.87
eigval :     1339.88  1345.63  1357.21  1363.37  1389.67  1396.51
eigval :     1396.72  1401.13  1401.56  1407.27  1410.16  1419.82
eigval :     1425.69  1425.82  1434.29  1444.93  1467.31  1477.68
eigval :     1484.32  1484.55  1484.81  1486.24  1490.06  1493.73
eigval :     1495.11  1497.75  1499.40  1501.73  1503.95  1508.75
eigval :     1515.54  1542.23  1565.03  1567.33  1579.45  1580.55
eigval :     1586.20  1587.66  1594.97  1595.27  1600.71  1611.53
eigval :     1649.98  1671.61  3023.81  3024.69  3026.07  3027.72
eigval :     3028.69  3028.73  3031.61  3034.36  3038.91  3045.84
eigval :     3047.52  3047.77  3050.54  3054.02  3057.96  3075.66
eigval :     3078.36  3078.83  3080.87  3085.84  3087.13  3090.26
eigval :     3090.39  3094.42  3094.83  3095.13  3096.23  3097.78
eigval :     3099.21  3100.85  3102.79  3104.24  3109.75  3119.51

   temp. (K)  partition function   enthalpy   heat capacity  entropy
                                   cal/mol     cal/K/mol   cal/K/mol   J/K/mol
 298.15  VIB  0.369E+18            23654.883    149.659    145.195
         ROT  0.767E+08              888.752      2.981     39.061
         INT  0.283E+26            24543.635    152.640    184.256
         TR   0.152E+29             1481.254      4.968     45.168
         TOT                       26024.8891   157.6079   229.4248   959.9134

       T/K    H(0)-H(T)+PV         H(T)/Eh          T*S/Eh         G(T)/Eh
   ------------------------------------------------------------------------
    298.15    0.414733E-01    0.683602E+00    0.109007E+00    0.574595E+00
   ------------------------------------------------------------------------

         :::::::::::::::::::::::::::::::::::::::::::::::::::::
         ::                  THERMODYNAMIC                  ::
         :::::::::::::::::::::::::::::::::::::::::::::::::::::
         :: total free energy        -127.073887431459 Eh   ::
         ::.................................................::
         :: total energy             -127.648482547685 Eh   ::
         :: zero point energy           0.642128948911 Eh   ::
         :: G(RRHO) w/o ZPVE           -0.067533832686 Eh   ::
         :: G(RRHO) contrib.            0.574595116226 Eh   ::
         :::::::::::::::::::::::::::::::::::::::::::::::::::::

           -------------------------------------------------
          | TOTAL ENERGY             -127.648482547685 Eh   |
          | TOTAL ENTHALPY           -126.964880298055 Eh   |
          | TOTAL FREE ENERGY        -127.073887431459 Eh   |
          | GRADIENT NORM               0.000025060908 Eh/α |
          | HOMO-LUMO GAP               1.025697237487 eV   |
           -------------------------------------------------

 * finished run on 2025/09/08 at 00:34:35.180
