   * xtb version 6.7.1 (edcfbbe) compiled by 'albert@albert-system' on 2024-07-22

   ID    Z sym.   atoms
    1    6 C      1-8, 10, 12-17, 19-32, 34-45, 47, 48
    2    7 N      9, 18
    3    8 O      11, 33, 46
    4    1 H      49-82

          program call               : xtb data2507/toluene/BFDMAc-NAI/BFDMAc-NAI.xyz --gfn 2 --gbsa toluene --ohess vtight --parallel 40 --molden --ceasefiles --namespace data2507/toluene/BFDMAc-NAI/BFDMAc-NAI_toluene_S0_preOpt
      * Solvation model:               GBSA
        Solvent                        toluene
        Solvent mass                       9.2140E+01 g/mol
          :  Hamiltonian                  GFN2-xTB          :
 * total energy  :  -127.6149033 Eh     change       -0.3533074E-08 Eh
 * total energy  :  -127.6334187 Eh     change       -0.1851541E-01 Eh
 * total energy  :  -127.6393782 Eh     change       -0.5959498E-02 Eh
 * total energy  :  -127.6413018 Eh     change       -0.1923527E-02 Eh
 * total energy  :  -127.6430102 Eh     change       -0.1708385E-02 Eh
 * total energy  :  -127.6440817 Eh     change       -0.1071516E-02 Eh
 * total energy  :  -127.6448030 Eh     change       -0.7213563E-03 Eh
 * total energy  :  -127.6452468 Eh     change       -0.4437212E-03 Eh
 * total energy  :  -127.6454825 Eh     change       -0.2357647E-03 Eh
 * total energy  :  -127.6456593 Eh     change       -0.1767641E-03 Eh
 * total energy  :  -127.6478075 Eh     change       -0.1369565E-05 Eh
 * total energy  :  -127.6478090 Eh     change       -0.1526623E-05 Eh
 * total energy  :  -127.6478106 Eh     change       -0.1625215E-05 Eh
 * total energy  :  -127.6478121 Eh     change       -0.1423885E-05 Eh
 * total energy  :  -127.6478133 Eh     change       -0.1208299E-05 Eh
 * total energy  :  -127.6478144 Eh     change       -0.1147686E-05 Eh
 * total energy  :  -127.6478156 Eh     change       -0.1196638E-05 Eh
 * total energy  :  -127.6478170 Eh     change       -0.1411649E-05 Eh
 * total energy  :  -127.6478170 Eh     change       -0.7361734E-08 Eh
   *** GEOMETRY OPTIMIZATION CONVERGED AFTER 94 ITERATIONS ***

 final structure:
================
82
 xtb: 6.7.1 (edcfbbe)
C            9.25253737042106        1.00621921950474       -0.33018862250000
C            8.64109241649175       -0.25066732180120        0.29604443146881
C            9.26918503312382       -1.47793720997491       -0.38131263721054
C            8.97666393173155       -0.25244021590256        1.79491681314617
C            7.13039577888499       -0.31352543345835        0.12789449503561
C            6.40079787213380        0.67433839387302       -0.52319184204276
C            5.02601938856481        0.58365567868917       -0.65803370231006
C            4.35409940008410       -0.50979791084872       -0.14364952787121
N            2.92715126778758       -0.61178674402688       -0.28938524191385
C            2.45410628896773       -0.96009740758348       -1.54509195167995
O            3.22912195174076       -1.17757713789233       -2.45927476374376
C            0.99417707212914       -1.04706484093623       -1.68687171095185
C            0.44418755647180       -1.36524057673680       -2.91332278396483
C           -0.94146680674581       -1.44123020515980       -3.06688569483538
C           -1.77224086884782       -1.21375915541277       -1.99923306716559
C           -1.24675671621158       -0.89911117252763       -0.72936572762226
C           -2.06809665567256       -0.63992117201819        0.40111523950758
N           -3.47475783470507       -0.70518940724261        0.28088539342992
C           -4.10646967990546       -1.94541189956195        0.24950762761753
C           -3.33729977009470       -3.11173912302194        0.27039966219200
C           -3.93374109388115       -4.35448553643920        0.22200696984951
C           -5.31252342749618       -4.45300695936012        0.16368900617136
C           -6.07454128316576       -3.29970689905836        0.17733016490133
C           -5.50074018184342       -2.03511169955381        0.22566272014866
C           -6.39792802541947       -0.81199849292455        0.28045922299425
C           -7.29185471476631       -0.79734645961204       -0.97443022312534
C           -7.26374200326486       -0.90095774621590        1.55135410426662
C           -5.60092566291875        0.47997429580427        0.31784118135001
C           -6.29190989091680        1.69375251733583        0.34425182185870
C           -5.66236321011140        2.91875111053077        0.32675624337878
C           -4.27571302686599        2.93084225159637        0.25514649201251
C           -3.56511907190847        1.72106421264181        0.23702425106310
O           -2.21298897531136        1.94219553818881        0.13637802133280
C           -2.04770030341734        3.29323867603242        0.09341034767888
C           -0.84555651572472        3.97120261244460       -0.00382785065097
C           -0.90048679684946        5.35391359593901       -0.02755833803986
C           -2.11357751357791        6.03510885724635        0.04237763696081
C           -3.31236494032565        5.35551088650301        0.13898520757400
C           -3.28087640925352        3.96716892130725        0.16660412440702
C           -4.20286215404493        0.47622330664829        0.29731488384217
C           -1.50274011162021       -0.30563699242722        1.61373095131855
C           -0.12045677484658       -0.21657460054192        1.75390919651911
C            0.71063058121684       -0.46227707055109        0.67762360434593
C            0.15964623059610       -0.80404964855343       -0.57544162635119
C            2.16436502915753       -0.34805474522018        0.83910029329125
O            2.70078037765584       -0.03391225206729        1.88701146498852
C            5.05734304950752       -1.50830482967356        0.50887933723135
C            6.42795984264121       -1.40208702507510        0.64132709102084
H            8.85771527973716        1.90674544722442        0.13438622748713
H           10.33018533310249        0.99601742030060       -0.18034431298883
H            9.06264910997466        1.04184033575170       -1.40041739889855
H           10.35301189701354       -1.43518043157002       -0.29849121132522
H            9.00304893824640       -1.50215321128269       -1.43620982471440
H            8.92881518584712       -2.40223051132562        0.07673978932118
H            8.50951651359575        0.59898305763160        2.28584764929995
H            8.62505934195848       -1.15884700259851        2.27949573088154
H           10.05326576909368       -0.18552506665383        1.93576410830404
H            6.89179223404923        1.53850007772165       -0.93857753145134
H            4.47501447927144        1.36077284140298       -1.16817643883139
H            1.10819289909452       -1.54792881101230       -3.74509939059924
H           -1.35524712278329       -1.68027437580177       -4.03431924536513
H           -2.84303867833213       -1.27570865521134       -2.12149722213506
H           -2.26207092257242       -3.04333917596503        0.32964139934422
H           -3.31898994255392       -5.24216819458582        0.23428866432201
H           -5.79223315611530       -5.41901316379054        0.12153489606186
H           -7.14917837624502       -3.39353999963197        0.15351828964788
H           -7.97378327368264        0.04747911050442       -0.95678593200667
H           -6.67605537158445       -0.72235253837969       -1.86890383771325
H           -7.88113474850165       -1.70722278806632       -1.03906893168950
H           -7.85987647996439       -1.80882391909539        1.54936362594176
H           -6.62779756376939       -0.90995699318163        2.43476288597941
H           -7.93699325777628       -0.05168132677564        1.62206154175260
H           -7.36951475065100        1.67627936750732        0.37758303264472
H           -6.22369772572939        3.83860414115797        0.35195874935244
H            0.09046325066597        3.43723383003514       -0.05658215538198
H            0.01866388513164        5.91564610981827       -0.10082375933915
H           -2.11204110766066        7.11469700535216        0.02080241130954
H           -4.25139910780221        5.88422737332987        0.19363848804844
H           -2.14277533182216       -0.10667488862565        2.46046600170345
H            0.32319628361676        0.04205029779412        2.70383883193148
H            4.53041758415766       -2.36080544729084        0.91268452516083
H            6.95235891341312       -2.19280109760858        1.15504365499657

          :  Hamiltonian                  GFN2-xTB          :
         :: gradient norm              0.000058128829 Eh/a0 ::
         :: HOMO-LUMO gap              0.961967577609 eV    ::
         :: SCC energy              -129.777933690043 Eh    ::
         :: -> dispersion             -0.115871316415 Eh    ::
         :: -> Gsolv                  -0.053867491571 Eh    ::
         :: repulsion energy           2.130116658339 Eh    ::

    * Orbital Energies and Occupations

         #    Occupation            Energy/Eh            Energy/eV
      -------------------------------------------------------------
         1        2.0000           -0.7410954             -20.1662
       ...           ...                  ...                  ...
       105        2.0000           -0.4200041             -11.4289
       106        2.0000           -0.4193116             -11.4100
       107        2.0000           -0.4181287             -11.3779
       108        2.0000           -0.4163125             -11.3284
       109        2.0000           -0.4150300             -11.2935
       110        2.0000           -0.4143691             -11.2756
       111        2.0000           -0.4104206             -11.1681
       112        2.0000           -0.4085343             -11.1168
       113        2.0000           -0.4015364             -10.9264
       114        2.0000           -0.3994806             -10.8704
       115        2.0000           -0.3969404             -10.8013
       116        2.0000           -0.3884448             -10.5701
       117        2.0000           -0.3551418              -9.6639 (HOMO)
       118                         -0.3197902              -8.7019 (LUMO)
       119                         -0.2595719              -7.0633
       120                         -0.2579882              -7.0202
       121                         -0.2549408              -6.9373
       122                         -0.2375992              -6.4654
       123                         -0.2343229              -6.3763
       124                         -0.2299659              -6.2577
       125                         -0.2286961              -6.2231
       126                         -0.2249457              -6.1211
       127                         -0.2171894              -5.9100
       128                         -0.2081813              -5.6649
       ...                                ...                  ...
       226                          0.7361940              20.0329
      -------------------------------------------------------------
                  HL-Gap            0.0353517 Eh            0.9620 eV

     #   Z          covCN         q      C6AA      α(0)
     1   6 C        3.761    -0.111    22.672     6.788
     2   6 C        3.902     0.027    20.069     6.368
     3   6 C        3.761    -0.108    22.613     6.779
     4   6 C        3.761    -0.108    22.611     6.779
     5   6 C        2.973     0.015    27.670     8.628
     6   6 C        2.927    -0.037    28.916     8.819
     7   6 C        2.920    -0.034    28.839     8.806
     8   6 C        2.937     0.080    26.212     8.397
     9   7 N        2.746    -0.117    23.547     7.207
    10   6 C        2.776     0.277    22.308     7.736
    11   8 O        0.859    -0.439    22.469     6.355
    12   6 C        2.976    -0.028    28.694     8.787
    13   6 C        2.922    -0.008    28.226     8.712
    14   6 C        2.914    -0.022    28.555     8.763
    15   6 C        2.918    -0.016    28.409     8.740
    16   6 C        2.984     0.013    27.722     8.637
    17   6 C        2.925     0.082    26.165     8.388
    18   7 N        2.752    -0.060    22.402     7.030
    19   6 C        2.928     0.056    26.745     8.481
    20   6 C        2.924    -0.057    29.422     8.895
    21   6 C        2.920    -0.032    28.809     8.802
    22   6 C        2.917    -0.043    29.057     8.839
    23   6 C        2.928    -0.035    28.881     8.813
    24   6 C        2.978    -0.011    28.280     8.723
    25   6 C        3.909     0.023    20.128     6.377
    26   6 C        3.761    -0.108    22.608     6.778
    27   6 C        3.761    -0.107    22.599     6.777
    28   6 C        2.982    -0.015    28.385     8.739
    29   6 C        2.928    -0.045    29.114     8.849
    30   6 C        2.910    -0.049    29.212     8.863
    31   6 C        3.057    -0.023    28.525     8.759
    32   6 C        3.083     0.102    25.649     8.302
    33   8 O        1.714    -0.253    18.190     5.759
    34   6 C        3.087     0.126    25.141     8.219
    35   6 C        2.908    -0.054    29.339     8.882
    36   6 C        2.926    -0.033    28.813     8.803
    37   6 C        2.921    -0.039    28.963     8.825
    38   6 C        2.913    -0.034    28.851     8.808
    39   6 C        3.054    -0.020    28.451     8.748
    40   6 C        2.919     0.038    27.155     8.545
    41   6 C        2.917    -0.031    28.773     8.796
    42   6 C        2.921    -0.008    28.224     8.712
    43   6 C        2.976    -0.031    28.779     8.800
    44   6 C        2.994     0.011    27.757     8.642
    45   6 C        2.775     0.278    22.302     7.735
    46   8 O        0.859    -0.441    22.511     6.361
    47   6 C        2.919    -0.034    28.841     8.807
    48   6 C        2.929    -0.032    28.808     8.802
    49   1 H        0.925     0.039     2.465     2.455
    50   1 H        0.925     0.044     2.403     2.424
    51   1 H        0.925     0.039     2.462     2.454
    52   1 H        0.925     0.045     2.383     2.414
    53   1 H        0.925     0.035     2.510     2.478
    54   1 H        0.925     0.039     2.459     2.452
    55   1 H        0.925     0.035     2.512     2.479
    56   1 H        0.925     0.039     2.459     2.452
    57   1 H        0.925     0.045     2.383     2.414
    58   1 H        0.926     0.056     2.252     2.347
    59   1 H        0.926     0.034     2.533     2.489
    60   1 H        0.926     0.068     2.106     2.270
    61   1 H        0.926     0.065     2.145     2.290
    62   1 H        0.926     0.062     2.175     2.306
    63   1 H        0.926     0.023     2.690     2.565
    64   1 H        0.926     0.031     2.566     2.505
    65   1 H        0.926     0.033     2.550     2.497
    66   1 H        0.926     0.041     2.439     2.442
    67   1 H        0.925     0.047     2.363     2.404
    68   1 H        0.925     0.033     2.545     2.495
    69   1 H        0.925     0.048     2.350     2.397
    70   1 H        0.925     0.047     2.356     2.400
    71   1 H        0.925     0.033     2.546     2.495
    72   1 H        0.925     0.047     2.362     2.404
    73   1 H        0.926     0.049     2.335     2.390
    74   1 H        0.926     0.042     2.421     2.433
    75   1 H        0.926     0.035     2.514     2.480
    76   1 H        0.926     0.043     2.414     2.429
    77   1 H        0.926     0.043     2.411     2.428
    78   1 H        0.926     0.045     2.384     2.415
    79   1 H        0.926     0.060     2.197     2.318
    80   1 H        0.926     0.069     2.099     2.266
    81   1 H        0.926     0.034     2.527     2.486
    82   1 H        0.926     0.049     2.336     2.390

molecular dipole:
                 x           y           z       tot (Debye)
 q only:       -2.242       0.040      -0.198
   full:       -2.262       0.035      -0.171       5.767

 projected vibrational frequencies (cm⁻¹)
eigval :       -0.00    -0.00    -0.00     0.00     0.00     0.00
eigval :       10.17    14.93    19.82    21.61    27.31    36.41
eigval :       42.66    53.22    56.37    62.35    79.09    95.21
eigval :      102.40   106.47   112.44   121.19   128.20   134.13
eigval :      134.87   168.62   175.16   179.14   186.21   192.11
eigval :      196.31   213.68   227.51   232.49   242.79   248.48
eigval :      255.62   271.05   289.10   301.92   310.18   311.03
eigval :      315.00   323.97   329.38   342.14   349.88   361.16
eigval :      366.13   380.52   387.43   391.37   393.68   403.80
eigval :      421.52   421.86   434.83   436.79   448.49   464.80
eigval :      467.91   481.32   491.73   498.80   513.14   519.55
eigval :      522.54   531.41   540.17   544.99   550.04   555.63
eigval :      568.83   575.33   581.59   604.06   609.74   623.08
eigval :      626.36   640.26   655.85   680.83   685.83   689.25
eigval :      690.44   703.54   708.03   708.74   711.37   719.17
eigval :      749.20   772.64   775.83   776.37   788.97   802.61
eigval :      808.63   812.85   824.86   840.74   843.99   850.80
eigval :      857.98   864.66   867.69   870.58   888.36   902.01
eigval :      906.85   909.37   910.04   910.71   914.06   919.11
eigval :      921.32   922.37   923.85   929.99   934.41   943.90
eigval :      958.97   959.64   961.77   963.58   984.71  1006.48
eigval :     1013.63  1032.48  1034.95  1035.51  1063.20  1069.37
eigval :     1094.57  1103.19  1110.10  1127.57  1130.80  1137.84
eigval :     1140.98  1143.85  1153.14  1158.37  1167.12  1172.87
eigval :     1179.29  1181.98  1184.43  1187.47  1200.40  1202.42
eigval :     1216.55  1225.99  1226.99  1231.91  1238.05  1241.59
eigval :     1248.70  1249.46  1252.76  1273.98  1281.93  1287.17
eigval :     1290.94  1301.46  1307.47  1320.27  1324.99  1336.52
eigval :     1338.06  1346.35  1357.90  1361.81  1389.26  1396.53
eigval :     1397.26  1401.38  1402.61  1407.36  1409.88  1420.06
eigval :     1426.01  1426.32  1434.67  1445.81  1468.50  1478.95
eigval :     1483.67  1484.93  1485.50  1486.05  1489.98  1495.51
eigval :     1495.65  1497.84  1499.99  1501.38  1503.63  1509.47
eigval :     1515.25  1543.18  1567.06  1568.30  1580.08  1580.12
eigval :     1586.76  1587.64  1595.01  1595.49  1600.43  1611.57
eigval :     1651.75  1674.19  3023.82  3024.95  3025.73  3027.59
eigval :     3028.13  3029.52  3031.31  3034.38  3038.74  3044.84
eigval :     3047.34  3047.46  3050.69  3053.02  3057.61  3075.83
eigval :     3077.64  3077.91  3080.16  3084.82  3087.07  3089.45
eigval :     3091.30  3094.72  3095.25  3095.70  3095.87  3097.06
eigval :     3098.34  3100.62  3101.09  3105.41  3108.79  3119.64

   temp. (K)  partition function   enthalpy   heat capacity  entropy
                                   cal/mol     cal/K/mol   cal/K/mol   J/K/mol
 298.15  VIB  0.516E+18            23673.568    149.679    145.551
         ROT  0.803E+08              888.752      2.981     39.151
         INT  0.414E+26            24562.320    152.660    184.702
         TR   0.152E+29             1481.254      4.968     45.168
         TOT                       26043.5744   157.6277   229.8702   961.7770

       T/K    H(0)-H(T)+PV         H(T)/Eh          T*S/Eh         G(T)/Eh
   ------------------------------------------------------------------------
    298.15    0.415031E-01    0.683572E+00    0.109219E+00    0.574353E+00
   ------------------------------------------------------------------------

         :::::::::::::::::::::::::::::::::::::::::::::::::::::
         ::                  THERMODYNAMIC                  ::
         :::::::::::::::::::::::::::::::::::::::::::::::::::::
         :: total free energy        -127.073463857321 Eh   ::
         ::.................................................::
         :: total energy             -127.647817036869 Eh   ::
         :: zero point energy           0.642068861416 Eh   ::
         :: G(RRHO) w/o ZPVE           -0.067715681868 Eh   ::
         :: G(RRHO) contrib.            0.574353179548 Eh   ::
         :::::::::::::::::::::::::::::::::::::::::::::::::::::

           -------------------------------------------------
          | TOTAL ENERGY             -127.647817036869 Eh   |
          | TOTAL ENTHALPY           -126.964245097834 Eh   |
          | TOTAL FREE ENERGY        -127.073463857321 Eh   |
          | GRADIENT NORM               0.000058141115 Eh/α |
          | HOMO-LUMO GAP               0.961968481486 eV   |
           -------------------------------------------------

 * finished run on 2025/09/08 at 00:28:23.824
