   * xtb version 6.7.1 (edcfbbe) compiled by 'albert@albert-system' on 2024-07-22

   ID    Z sym.   atoms
    1    6 C      1-8, 10, 12-17, 19-32, 34-45, 47, 48
    2    7 N      9, 18
    3    8 O      11, 33, 46
    4    1 H      49-82

          program call               : xtb data2507/toluene/BFDMAc-NAI/BFDMAc-NAI_toluene_T1_crest.xyz --gfn 2 --uhf 2 --gbsa toluene --ohess vtight --parallel 40 --molden --ceasefiles --namespace data2507/toluene/BFDMAc-NAI/BFDMAc-NAI_toluene_T1_finalOpt
      * Solvation model:               GBSA
        Solvent                        toluene
        Solvent mass                       9.2140E+01 g/mol
          :  Hamiltonian                  GFN2-xTB          :
 * total energy  :  -127.5875732 Eh     change       -0.1433335E-08 Eh
 * total energy  :  -127.5878444 Eh     change       -0.2712915E-03 Eh
 * total energy  :  -127.5879304 Eh     change       -0.8594539E-04 Eh
 * total energy  :  -127.5879474 Eh     change       -0.1704079E-04 Eh
 * total energy  :  -127.5879725 Eh     change       -0.2503929E-04 Eh
 * total energy  :  -127.5879840 Eh     change       -0.1150233E-04 Eh
 * total energy  :  -127.5880120 Eh     change       -0.2806097E-04 Eh
 * total energy  :  -127.5880254 Eh     change       -0.1335090E-04 Eh
 * total energy  :  -127.5880342 Eh     change       -0.8779867E-05 Eh
 * total energy  :  -127.5880537 Eh     change       -0.1950665E-04 Eh
 * total energy  :  -127.5881247 Eh     change       -0.7926136E-06 Eh
 * total energy  :  -127.5881252 Eh     change       -0.5488556E-06 Eh
 * total energy  :  -127.5881257 Eh     change       -0.4670878E-06 Eh
 * total energy  :  -127.5881262 Eh     change       -0.5198479E-06 Eh
 * total energy  :  -127.5881268 Eh     change       -0.5780545E-06 Eh
 * total energy  :  -127.5881274 Eh     change       -0.5991379E-06 Eh
 * total energy  :  -127.5881279 Eh     change       -0.5450618E-06 Eh
 * total energy  :  -127.5881284 Eh     change       -0.4717287E-06 Eh
 * total energy  :  -127.5881284 Eh     change       -0.5520803E-08 Eh
   *** GEOMETRY OPTIMIZATION CONVERGED AFTER 44 ITERATIONS ***

 final structure:
================
82
 xtb: 6.7.1 (edcfbbe)
C            9.19973498111070       -0.63758144647391        1.86723470475370
C            8.87990323812520       -0.38989368969978        0.38557420902485
C            9.37986510732685        1.00173052308241       -0.02998143883089
C            9.62972607382192       -1.43476265124893       -0.44618024937905
C            7.37246828605260       -0.45280962905756        0.18526515683783
C            6.55021143419055        0.43242448091858        0.87912190306574
C            5.17817220058298        0.42030026890346        0.72481316500536
C            4.58868946858173       -0.49622724015968       -0.13100024465465
N            3.16723828368598       -0.51904062279322       -0.29362089744994
C            2.66710342122325       -0.12097960989343       -1.52670573243193
O            3.43748513275165        0.26085640346656       -2.41295964512313
C            1.22893412315858       -0.16077480592851       -1.67960521655772
C            0.65015781540164        0.21369633633232       -2.90764091161011
C           -0.71434382355643        0.17132150088931       -3.06868543926884
C           -1.54298826985441       -0.21872729917194       -2.02054217411861
C           -1.00481670094662       -0.57225797049116       -0.77484667520902
C           -1.79653429898144       -0.97395501361852        0.33368167242344
N           -3.20719364812992       -0.93544831424672        0.24687314643752
C           -3.91185550010064       -2.12195144047026        0.24558172308746
C           -3.21159764101040       -3.34035331318259        0.26735650288965
C           -3.88598902258099       -4.53835508258071        0.30148837521411
C           -5.27493599297925       -4.54890032255201        0.29204310323579
C           -5.96838192086683       -3.35477074046839        0.21718932394712
C           -5.31661839388427       -2.12873209329484        0.18413180431429
C           -6.11942369055946       -0.85687933418373        0.04621449465776
C           -6.91064632506389       -0.92870265387544       -1.27669273921935
C           -7.09152429446651       -0.74803796160232        1.23989877665165
C           -5.24419261769615        0.37619763248835        0.03465233428012
C           -5.84808440314385        1.62657178908679       -0.07228683874581
C           -5.13843503273038        2.81042738510989       -0.02257962820203
C           -3.76511756695656        2.74081757670496        0.17462024890643
C           -3.12865919088868        1.49153988045106        0.27625416296372
O           -1.79693887919776        1.63758241326751        0.49785489135348
C           -1.54742459117205        2.97346256646116        0.53914921345617
C           -0.31879442473771        3.57787824494997        0.74554004386431
C           -0.29200771808965        4.96065158564073        0.74584636680575
C           -1.44966602310860        5.71313800337430        0.54850416130554
C           -2.67432099228839        5.10849424996394        0.34395618866940
C           -2.72482860187479        3.72010678289121        0.33905441901329
C           -3.84241566490850        0.28020777739098        0.17365239971119
C           -1.20447965195749       -1.38586917227234        1.53726535033553
C            0.15638049075280       -1.37227617267514        1.68527864341008
C            0.98391419380501       -0.95533671637339        0.61915299776493
C            0.40912489981287       -0.56048900063117       -0.60700228842704
C            2.41579162759657       -0.94275666780714        0.79724571508032
O            2.97949381113149       -1.29441948132456        1.83961074268962
C            5.38466465707996       -1.38905675191262       -0.82627505679509
C            6.75968489899027       -1.36031731444306       -0.67046778129621
H            8.81756282919362       -1.60837166593385        2.17655723126405
H           10.27616268553037       -0.62192591501925        2.02419324266606
H            8.75083760099421        0.12128287675124        2.50179927115780
H           10.46053314597314        1.05894977548145        0.08157975567652
H            8.93133871513649        1.78146405397923        0.57906030187019
H            9.12722904432922        1.19542726712628       -1.07061310257704
H            9.32619201621517       -2.44260204596058       -0.17265737331246
H            9.45627045476405       -1.28504679565166       -1.50927631961932
H           10.69839006481839       -1.34302526972930       -0.26282248905602
H            6.97988108628416        1.15581304113444        1.55530156808971
H            4.55796720246674        1.11523402340192        1.27289591743232
H            1.30992523671729        0.52651101286539       -3.70259426304233
H           -1.15418981363043        0.45404303125229       -4.01395099644221
H           -2.61159419928733       -0.24049745975686       -2.17436963288108
H           -2.13388961718706       -3.33150021940736        0.24696722146203
H           -3.33143459198508       -5.46353739067952        0.32458612467129
H           -5.81192110269738       -5.48421369320168        0.32095930500084
H           -7.04533271044658       -3.38543070153649        0.17922115777415
H           -6.22550996061651       -1.02638691054737       -2.11607900380549
H           -7.57796246088706       -1.78449427914140       -1.27635074123354
H           -7.50486970803083       -0.03195127326819       -1.41870942726615
H           -7.73756272253677       -1.61866853828048        1.28688624800138
H           -6.53133641978059       -0.68240903615005        2.17029625474437
H           -7.71534941239278        0.13512619403201        1.15013332042603
H           -6.91733784777237        1.67987129458680       -0.19383318621809
H           -5.63439480494019        3.76268069546548       -0.11450609810060
H            0.57122376538015        2.98778419109608        0.89620510925903
H            0.64807324840139        5.46765237603367        0.90181309487800
H           -1.38145074918757        6.79035871626941        0.55667206843311
H           -3.56749746957331        5.69346802880291        0.19148976536069
H           -1.84244779373049       -1.66889209638397        2.36190656105127
H            0.63101968572810       -1.65997602140890        2.61036079057395
H            4.92613838274367       -2.10212534442048       -1.49677097443678
H            7.34460287652545       -2.06920436493063       -1.23307730094273

          :  Hamiltonian                  GFN2-xTB          :
         :: gradient norm              0.000054816859 Eh/a0 ::
         :: HOMO-LUMO gap              0.742134558560 eV    ::
         :: SCC energy              -129.703358779582 Eh    ::
         :: -> dispersion             -0.116767450124 Eh    ::
         :: -> Gsolv                  -0.073195292680 Eh    ::
         :: repulsion energy           2.115230371226 Eh    ::

    * Orbital Energies and Occupations

         #    Occupation            Energy/Eh            Energy/eV
      -------------------------------------------------------------
         1        2.0000           -0.7575193             -20.6131
       ...           ...                  ...                  ...
       106        2.0000           -0.4201503             -11.4329
       107        2.0000           -0.4173781             -11.3574
       108        2.0000           -0.4123309             -11.2201
       109        2.0000           -0.4094212             -11.1409
       110        2.0000           -0.4047259             -11.0132
       111        2.0000           -0.4038503             -10.9893
       112        2.0000           -0.4022610             -10.9461
       113        2.0000           -0.3907101             -10.6318
       114        2.0000           -0.3890759             -10.5873
       115        1.9991           -0.3860836             -10.5059
       116        1.9987           -0.3857178             -10.4959
       117        1.0021           -0.3735358             -10.1644
       118        1.0000           -0.2999045              -8.1608 (HOMO)
       119        0.0000           -0.2726315              -7.4187 (LUMO)
       120                         -0.2538059              -6.9064
       121                         -0.2455811              -6.6826
       122                         -0.2407221              -6.5504
       123                         -0.2340234              -6.3681
       124                         -0.2309711              -6.2850
       125                         -0.2254977              -6.1361
       126                         -0.2204816              -5.9996
       127                         -0.2178926              -5.9292
       128                         -0.2121990              -5.7742
       129                         -0.2066440              -5.6231
       ...                                ...                  ...
       226                          0.7198627              19.5885
      -------------------------------------------------------------
                  HL-Gap            0.0272730 Eh            0.7421 eV

     #   Z          covCN         q      C6AA      α(0)
     1   6 C        3.761    -0.107    22.592     6.776
     2   6 C        3.902     0.026    20.081     6.370
     3   6 C        3.761    -0.107    22.593     6.776
     4   6 C        3.761    -0.110    22.648     6.784
     5   6 C        2.972     0.010    27.782     8.646
     6   6 C        2.929    -0.036    28.889     8.815
     7   6 C        2.920    -0.034    28.851     8.808
     8   6 C        2.935     0.091    25.971     8.358
     9   7 N        2.748    -0.140    24.022     7.279
    10   6 C        2.777     0.260    22.629     7.791
    11   8 O        0.858    -0.510    24.011     6.570
    12   6 C        2.978    -0.041    29.024     8.837
    13   6 C        2.918    -0.035    28.872     8.811
    14   6 C        2.912    -0.032    28.798     8.800
    15   6 C        2.917    -0.052    29.286     8.874
    16   6 C        2.977     0.011    27.758     8.642
    17   6 C        2.930     0.026    27.425     8.588
    18   7 N        2.752     0.023    20.844     6.781
    19   6 C        2.932     0.060    26.664     8.468
    20   6 C        2.922    -0.039    28.971     8.827
    21   6 C        2.917    -0.023    28.571     8.765
    22   6 C        2.917    -0.022    28.545     8.761
    23   6 C        2.924    -0.029    28.724     8.789
    24   6 C        2.978     0.007    27.857     8.658
    25   6 C        3.910     0.028    20.050     6.364
    26   6 C        3.761    -0.113    22.703     6.792
    27   6 C        3.761    -0.114    22.722     6.795
    28   6 C        2.980     0.002    27.968     8.675
    29   6 C        2.925    -0.039    28.965     8.826
    30   6 C        2.909    -0.027    28.674     8.781
    31   6 C        3.058    -0.015    28.324     8.728
    32   6 C        3.086     0.119    25.288     8.243
    33   8 O        1.716    -0.216    17.591     5.663
    34   6 C        3.099     0.129    25.064     8.204
    35   6 C        2.908    -0.046    29.150     8.853
    36   6 C        2.927    -0.027    28.679     8.782
    37   6 C        2.921    -0.033    28.811     8.802
    38   6 C        2.912    -0.030    28.754     8.793
    39   6 C        3.055    -0.015    28.328     8.729
    40   6 C        2.921     0.043    27.035     8.527
    41   6 C        2.912    -0.036    28.907     8.816
    42   6 C        2.917    -0.037    28.932     8.820
    43   6 C        2.977    -0.040    29.000     8.833
    44   6 C        2.991     0.007    27.845     8.656
    45   6 C        2.777     0.258    22.665     7.798
    46   8 O        0.858    -0.512    24.063     6.577
    47   6 C        2.921    -0.034    28.859     8.810
    48   6 C        2.927    -0.040    28.992     8.830
    49   1 H        0.925     0.034     2.530     2.488
    50   1 H        0.925     0.045     2.388     2.417
    51   1 H        0.925     0.038     2.475     2.460
    52   1 H        0.925     0.045     2.387     2.416
    53   1 H        0.925     0.038     2.475     2.460
    54   1 H        0.925     0.034     2.531     2.488
    55   1 H        0.925     0.038     2.481     2.463
    56   1 H        0.925     0.038     2.480     2.463
    57   1 H        0.925     0.043     2.406     2.426
    58   1 H        0.926     0.043     2.413     2.429
    59   1 H        0.926     0.028     2.618     2.530
    60   1 H        0.926     0.035     2.520     2.482
    61   1 H        0.926     0.036     2.508     2.476
    62   1 H        0.926     0.028     2.621     2.532
    63   1 H        0.926     0.051     2.308     2.375
    64   1 H        0.926     0.053     2.286     2.365
    65   1 H        0.926     0.058     2.225     2.333
    66   1 H        0.926     0.065     2.141     2.288
    67   1 H        0.925     0.043     2.415     2.430
    68   1 H        0.925     0.062     2.174     2.306
    69   1 H        0.925     0.062     2.180     2.309
    70   1 H        0.925     0.062     2.171     2.304
    71   1 H        0.925     0.043     2.407     2.426
    72   1 H        0.925     0.062     2.181     2.309
    73   1 H        0.926     0.074     2.045     2.236
    74   1 H        0.926     0.068     2.105     2.269
    75   1 H        0.926     0.041     2.442     2.444
    76   1 H        0.926     0.050     2.315     2.380
    77   1 H        0.926     0.054     2.273     2.358
    78   1 H        0.926     0.058     2.221     2.331
    79   1 H        0.926     0.045     2.379     2.412
    80   1 H        0.926     0.044     2.395     2.420
    81   1 H        0.926     0.028     2.620     2.531
    82   1 H        0.926     0.049     2.329     2.386

molecular dipole:
                 x           y           z       tot (Debye)
 q only:       -8.053       0.424       0.641
   full:       -7.862       0.378       0.624      20.070

 projected vibrational frequencies (cm⁻¹)
eigval :       -0.00    -0.00    -0.00    -0.00     0.00     0.00
eigval :       10.65    16.03    18.07    26.58    28.17    32.91
eigval :       43.98    47.69    56.80    67.20    85.61    90.41
eigval :      101.98   105.03   116.22   118.89   124.24   128.22
eigval :      140.87   171.20   174.83   182.04   186.45   188.29
eigval :      198.93   220.08   226.22   235.13   243.15   251.87
eigval :      255.70   271.43   294.06   299.11   308.76   312.01
eigval :      316.39   319.95   327.64   345.42   350.83   362.15
eigval :      367.55   380.90   386.43   391.85   394.84   399.91
eigval :      410.87   421.31   432.83   435.42   455.85   462.71
eigval :      468.01   480.92   489.04   490.66   510.42   517.64
eigval :      520.56   521.00   535.18   543.12   545.67   553.76
eigval :      560.13   569.83   581.08   600.19   608.71   614.81
eigval :      631.01   635.80   652.51   660.69   670.47   687.04
eigval :      691.62   701.22   703.77   706.98   712.78   718.06
eigval :      720.95   762.65   770.92   775.73   777.22   788.59
eigval :      805.55   808.29   811.78   827.75   838.52   846.20
eigval :      849.85   851.32   865.00   871.26   876.86   888.00
eigval :      889.95   904.82   906.39   907.62   909.08   909.86
eigval :      919.99   922.75   924.73   928.21   933.26   941.86
eigval :      956.99   960.42   961.53   963.89   986.41  1005.98
eigval :     1010.89  1031.91  1035.40  1036.07  1058.46  1068.15
eigval :     1092.45  1101.17  1104.45  1123.40  1126.64  1136.88
eigval :     1137.32  1140.80  1146.80  1148.29  1155.76  1165.85
eigval :     1169.70  1178.94  1184.47  1188.32  1191.54  1201.60
eigval :     1206.35  1208.85  1223.85  1226.85  1232.50  1234.42
eigval :     1241.94  1245.64  1259.86  1278.05  1278.75  1281.49
eigval :     1290.91  1296.56  1306.29  1314.65  1321.08  1331.13
eigval :     1343.92  1347.57  1359.46  1364.08  1377.75  1389.73
eigval :     1394.15  1396.35  1401.34  1402.57  1406.49  1407.95
eigval :     1413.33  1414.10  1416.40  1425.53  1430.44  1452.44
eigval :     1458.55  1473.83  1474.29  1476.67  1486.04  1486.37
eigval :     1487.37  1490.41  1491.71  1492.81  1498.73  1503.41
eigval :     1508.86  1509.47  1516.82  1540.76  1545.87  1550.62
eigval :     1557.64  1569.44  1577.85  1581.13  1587.33  1602.67
eigval :     1602.93  1610.15  3022.45  3023.68  3026.58  3028.38
eigval :     3030.04  3033.80  3034.22  3035.66  3037.87  3046.67
eigval :     3050.01  3058.50  3060.36  3064.53  3068.57  3072.10
eigval :     3073.53  3074.40  3077.68  3084.53  3086.87  3089.53
eigval :     3093.16  3093.83  3096.51  3100.40  3101.00  3101.95
eigval :     3106.52  3109.26  3110.07  3114.29  3115.76  3119.18

   temp. (K)  partition function   enthalpy   heat capacity  entropy
                                   cal/mol     cal/K/mol   cal/K/mol   J/K/mol
 298.15  VIB  0.452E+18            23751.754    150.504    145.680
         ROT  0.771E+08              888.752      2.981     39.070
         INT  0.348E+26            24640.506    153.485    184.750
         TR   0.152E+29             1481.254      4.968     45.168
         TOT                       26121.7602   158.4530   229.9183   961.9780

       T/K    H(0)-H(T)+PV         H(T)/Eh          T*S/Eh         G(T)/Eh
   ------------------------------------------------------------------------
    298.15    0.416277E-01    0.681283E+00    0.109242E+00    0.572041E+00
   ------------------------------------------------------------------------

         :::::::::::::::::::::::::::::::::::::::::::::::::::::
         ::                  THERMODYNAMIC                  ::
         :::::::::::::::::::::::::::::::::::::::::::::::::::::
         :: total free energy        -127.016087069948 Eh   ::
         ::.................................................::
         :: total energy             -127.588128408802 Eh   ::
         :: zero point energy           0.639655244736 Eh   ::
         :: G(RRHO) w/o ZPVE           -0.067613905882 Eh   ::
         :: G(RRHO) contrib.            0.572041338854 Eh   ::
         :::::::::::::::::::::::::::::::::::::::::::::::::::::

           -------------------------------------------------
          | TOTAL ENERGY             -127.588128408802 Eh   |
          | TOTAL ENTHALPY           -126.906845489454 Eh   |
          | TOTAL FREE ENERGY        -127.016087069948 Eh   |
          | GRADIENT NORM               0.000054776518 Eh/α |
          | HOMO-LUMO GAP               0.742135373780 eV   |
           -------------------------------------------------

 * finished run on 2025/09/08 at 00:42:18.599
