   * xtb version 6.7.1 (edcfbbe) compiled by 'albert@albert-system' on 2024-07-22

   ID    Z sym.   atoms
    1    6 C      1, 3-6, 8-11, 13-21, 23-26, 28-34, 36-44
    2    8 O      2, 12, 27, 35
    3    7 N      7, 22
    4    1 H      45-78

          program call               : xtb data2507/toluene/NAP-1,5-DPA/NAP-1,5-DPA.xyz --gfn 2 --gbsa toluene --ohess vtight --parallel 40 --molden --ceasefiles --namespace data2507/toluene/NAP-1,5-DPA/NAP-1,5-DPA_toluene_S0_preOpt
      * Solvation model:               GBSA
        Solvent                        toluene
        Solvent mass                       9.2140E+01 g/mol
          :  Hamiltonian                  GFN2-xTB          :
 * total energy  :  -120.8678797 Eh     change       -0.7230341E-09 Eh
 * total energy  :  -120.8826984 Eh     change       -0.1481870E-01 Eh
 * total energy  :  -120.8883316 Eh     change       -0.5633264E-02 Eh
 * total energy  :  -120.8900200 Eh     change       -0.1688374E-02 Eh
 * total energy  :  -120.8908443 Eh     change       -0.8243470E-03 Eh
 * total energy  :  -120.8910380 Eh     change       -0.1937030E-03 Eh
 * total energy  :  -120.8911327 Eh     change       -0.9465623E-04 Eh
 * total energy  :  -120.8912144 Eh     change       -0.8167503E-04 Eh
 * total energy  :  -120.8912907 Eh     change       -0.7633212E-04 Eh
 * total energy  :  -120.8913553 Eh     change       -0.6462408E-04 Eh
 * total energy  :  -120.8926836 Eh     change       -0.7089553E-06 Eh
 * total energy  :  -120.8926843 Eh     change       -0.7051331E-06 Eh
 * total energy  :  -120.8926850 Eh     change       -0.7017407E-06 Eh
 * total energy  :  -120.8926857 Eh     change       -0.6993394E-06 Eh
 * total energy  :  -120.8926864 Eh     change       -0.6974676E-06 Eh
 * total energy  :  -120.8926871 Eh     change       -0.6965248E-06 Eh
 * total energy  :  -120.8926878 Eh     change       -0.6962404E-06 Eh
 * total energy  :  -120.8926885 Eh     change       -0.6963885E-06 Eh
 * total energy  :  -120.8926885 Eh     change       -0.6591080E-08 Eh
   *** GEOMETRY OPTIMIZATION CONVERGED AFTER 300 ITERATIONS ***

 final structure:
================
78
 xtb: 6.7.1 (edcfbbe)
C            6.55594308053931        4.97065517650910        2.55054539862978
O            6.85661766100418        3.61632619711687        2.29626110643215
C            5.87398011240853        2.81520916201917        1.78237913880936
C            4.57947486456552        3.22638512684643        1.48627168774251
C            3.66949378156097        2.32772565873354        0.95961111015982
C            4.02079498269221        1.00117314069758        0.72446719663561
N            3.07590113593929        0.11567771891559        0.19243006781790
C            3.46055103880457       -0.93743442009091       -0.64137836832200
C            4.50430274163600       -0.78305509127653       -1.55790550677343
C            4.87342168327232       -1.82344016941985       -2.37995898687792
C            4.20617082959641       -3.04865427693660       -2.32588669190197
O            4.65588238276303       -4.01266962654518       -3.18744881356311
C            4.02293738756975       -5.27264838992308       -3.17537566159587
C            3.15786121372643       -3.20342710419657       -1.42725153615297
C            2.79747428223319       -2.16063894142872       -0.59221615110916
C            1.75180105343400        0.18741351929223        0.66125700137865
C            1.51299421916003        0.26906065969375        2.01500008741253
C            0.20702911862277        0.33355184513586        2.50634503288769
C           -0.86040141488812        0.27682586682529        1.65228101462690
C           -0.66265688915449        0.19983735170112        0.25836023162668
C           -1.75180140964083        0.18742481099957       -0.66125679020733
N           -3.07590235636290        0.11570365359602       -0.19242957008093
C           -3.46056245446579       -0.93740202036048        0.64138230662704
C           -2.79749693010860       -2.16061285775040        0.59222445349199
C           -3.15789439580280       -3.20339528055217        1.42726240787651
C           -4.20620372968570       -3.04861028967507        2.32589579088738
O           -4.65592378643204       -4.01261831537050        3.18746161476925
C           -4.02298834822875       -5.27260191995068        3.17539487188257
C           -4.87344228776668       -1.82338938994369        2.37996492713741
C           -4.50431301308687       -0.78301010321972        1.55790868260071
C           -4.02078647861779        1.00120788568087       -0.72446899849699
C           -5.31821303247781        0.59044021141518       -1.03666280832916
C           -6.22991023078185        1.48554336428576       -1.55031605442749
C           -5.87394975153391        2.81526123795480       -1.78238996458784
O           -6.85657781947562        3.61638823989159       -2.29627469013857
C           -6.55588612221232        4.97071207008204       -2.55056626362016
C           -4.57944005137237        3.22642335289199       -1.48628288712677
C           -3.66946991071500        2.32775552326691       -0.95961774883734
C           -1.51299404752536        0.26906239493693       -2.01500036985152
C           -0.20702834527608        0.33353630299807       -2.50634598163174
C            0.86040173434307        0.27680774559438       -1.65228160293786
C            0.66265668139563        0.19983038436491       -0.25836022403185
C            5.31821664467772        0.59039130770722        1.03666257835290
C            6.22992447952055        1.48548582112652        1.55031191763044
H            7.47265125963124        5.40247999536455        2.94907689568673
H            5.75553029221264        5.07052555069050        3.29033408604992
H            6.27526164320385        5.49721091940908        1.63300584838538
H            4.26628299252299        4.24472131680671        1.65274568199995
H            2.66798533496902        2.65929273335498        0.72774851201357
H            5.02162999868707        0.16257368276602       -1.62312410038064
H            5.68031136555883       -1.70872566871164       -3.08713958557575
H            2.96428307968975       -5.19098602050379       -3.44111483076667
H            4.54002665730440       -5.86571097122370       -3.92813304699838
H            4.11980488206830       -5.75950390988697       -2.19982358600345
H            2.61701231745011       -4.13378517271984       -1.35714699077234
H            1.98691893409300       -2.29894588284722        0.10808442697470
H            2.34879918137406        0.28425421177625        2.69960527254401
H            0.04656527373029        0.41136367172333        3.57153910163571
H           -1.86465134160642        0.31514879541650        2.04325405137131
H           -1.98694234362981       -2.29892942732065       -0.10807507179423
H           -2.61705256653895       -4.13375779112570        1.35716271405090
H           -4.11985915001089       -5.75946123853437        2.19984504725843
H           -4.54008277540808       -5.86565684087663        3.92815472974394
H           -2.96433350405044       -5.19094650512383        3.44113426819008
H           -5.68033283944961       -1.70866599131538        3.08714302004933
H           -5.02163410154547        0.16262237350436        1.62312159889523
H           -5.60712530890195       -0.43746944191600       -0.87653978336495
H           -7.23400240538145        1.17327370135081       -1.79243588850823
H           -6.27519729867313        5.49726925893092       -1.63302978428783
H           -7.47258891763464        5.40254661361570       -2.94909962810173
H           -5.75547246935790        5.07056808882355       -3.29035591710522
H           -4.26623674879086        4.24475566159268       -1.65275911447795
H           -2.66795774677998        2.65931194704820       -0.72775601226798
H           -2.34879901826533        0.28426061401260       -2.69960538592055
H           -0.04656404651436        0.41134997995093       -3.57153984489262
H            1.86465181989087        0.31512707953976       -2.04325455214359
H            5.60711767964211       -0.43752168611569        0.87654078512301
H            7.23401356664271        1.17320581888813        1.79243112858050

          :  Hamiltonian                  GFN2-xTB          :
         :: gradient norm              0.000065998453 Eh/a0 ::
         :: HOMO-LUMO gap              2.109474991304 eV    ::
         :: SCC energy              -122.825146538675 Eh    ::
         :: -> dispersion             -0.101566579230 Eh    ::
         :: -> Gsolv                  -0.049426940682 Eh    ::
         :: repulsion energy           1.932458012797 Eh    ::

    * Orbital Energies and Occupations

         #    Occupation            Energy/Eh            Energy/eV
      -------------------------------------------------------------
         1        2.0000           -0.7154096             -19.4673
       ...           ...                  ...                  ...
        98        2.0000           -0.4186456             -11.3919
        99        2.0000           -0.4093358             -11.1386
       100        2.0000           -0.4082114             -11.1080
       101        2.0000           -0.4080750             -11.1043
       102        2.0000           -0.4059476             -11.0464
       103        2.0000           -0.4051769             -11.0254
       104        2.0000           -0.4046209             -11.0103
       105        2.0000           -0.4028591             -10.9624
       106        2.0000           -0.3836680             -10.4401
       107        2.0000           -0.3824560             -10.4072
       108        2.0000           -0.3791286             -10.3166
       109        2.0000           -0.3445612              -9.3760
       110        2.0000           -0.3380767              -9.1995 (HOMO)
       111                         -0.2605549              -7.0901 (LUMO)
       112                         -0.2316509              -6.3035
       113                         -0.2263174              -6.1584
       114                         -0.2251714              -6.1272
       115                         -0.2227936              -6.0625
       116                         -0.2227186              -6.0605
       117                         -0.2211728              -6.0184
       118                         -0.2209218              -6.0116
       119                         -0.2082647              -5.6672
       120                         -0.1932366              -5.2582
       121                         -0.1787910              -4.8651
       ...                                ...                  ...
       210                          0.6872026              18.6997
      -------------------------------------------------------------
                  HL-Gap            0.0775218 Eh            2.1095 eV

     #   Z          covCN         q      C6AA      α(0)
     1   6 C        3.642     0.036    20.308     6.479
     2   8 O        1.705    -0.293    18.876     5.866
     3   6 C        2.863     0.133    25.094     8.211
     4   6 C        2.916    -0.067    29.671     8.932
     5   6 C        2.924    -0.051    29.256     8.870
     6   6 C        2.922     0.055    26.766     8.484
     7   7 N        2.752    -0.078    22.759     7.085
     8   6 C        2.919     0.058    26.708     8.475
     9   6 C        2.922    -0.050    29.240     8.868
    10   6 C        2.919    -0.056    29.388     8.890
    11   6 C        2.863     0.132    25.118     8.215
    12   8 O        1.705    -0.295    18.898     5.869
    13   6 C        3.642     0.037    20.298     6.477
    14   6 C        2.917    -0.067    29.669     8.932
    15   6 C        2.924    -0.052    29.293     8.876
    16   6 C        2.924     0.058    26.693     8.473
    17   6 C        2.920    -0.049    29.225     8.865
    18   6 C        2.914    -0.033    28.823     8.804
    19   6 C        2.917    -0.043    29.062     8.840
    20   6 C        2.985    -0.001    28.048     8.687
    21   6 C        2.924     0.058    26.693     8.473
    22   7 N        2.752    -0.078    22.759     7.085
    23   6 C        2.919     0.058    26.708     8.475
    24   6 C        2.924    -0.052    29.293     8.876
    25   6 C        2.917    -0.067    29.669     8.932
    26   6 C        2.863     0.132    25.118     8.215
    27   8 O        1.705    -0.295    18.898     5.869
    28   6 C        3.642     0.037    20.298     6.477
    29   6 C        2.919    -0.056    29.388     8.890
    30   6 C        2.922    -0.050    29.240     8.868
    31   6 C        2.922     0.055    26.766     8.484
    32   6 C        2.921    -0.049    29.212     8.863
    33   6 C        2.920    -0.056    29.389     8.890
    34   6 C        2.863     0.133    25.094     8.211
    35   8 O        1.705    -0.293    18.876     5.866
    36   6 C        3.642     0.036    20.308     6.479
    37   6 C        2.916    -0.067    29.671     8.932
    38   6 C        2.924    -0.051    29.256     8.870
    39   6 C        2.920    -0.049    29.225     8.865
    40   6 C        2.914    -0.033    28.823     8.804
    41   6 C        2.917    -0.043    29.062     8.840
    42   6 C        2.985    -0.001    28.048     8.687
    43   6 C        2.921    -0.049    29.212     8.863
    44   6 C        2.920    -0.056    29.389     8.890
    45   1 H        0.925     0.065     2.140     2.287
    46   1 H        0.924     0.045     2.382     2.413
    47   1 H        0.924     0.045     2.381     2.413
    48   1 H        0.926     0.042     2.422     2.434
    49   1 H        0.926     0.036     2.503     2.474
    50   1 H        0.926     0.039     2.455     2.450
    51   1 H        0.926     0.045     2.389     2.417
    52   1 H        0.924     0.045     2.390     2.418
    53   1 H        0.925     0.065     2.145     2.290
    54   1 H        0.924     0.044     2.391     2.418
    55   1 H        0.926     0.040     2.446     2.446
    56   1 H        0.926     0.033     2.541     2.493
    57   1 H        0.926     0.032     2.557     2.501
    58   1 H        0.926     0.034     2.531     2.488
    59   1 H        0.926     0.035     2.511     2.478
    60   1 H        0.926     0.033     2.541     2.493
    61   1 H        0.926     0.040     2.446     2.446
    62   1 H        0.924     0.044     2.391     2.418
    63   1 H        0.925     0.065     2.145     2.290
    64   1 H        0.924     0.045     2.390     2.418
    65   1 H        0.926     0.045     2.389     2.417
    66   1 H        0.926     0.039     2.455     2.450
    67   1 H        0.926     0.040     2.448     2.447
    68   1 H        0.926     0.045     2.382     2.414
    69   1 H        0.924     0.045     2.381     2.413
    70   1 H        0.925     0.065     2.140     2.287
    71   1 H        0.924     0.045     2.382     2.413
    72   1 H        0.926     0.042     2.422     2.434
    73   1 H        0.926     0.036     2.503     2.474
    74   1 H        0.926     0.032     2.557     2.501
    75   1 H        0.926     0.034     2.531     2.488
    76   1 H        0.926     0.035     2.511     2.478
    77   1 H        0.926     0.040     2.448     2.447
    78   1 H        0.926     0.045     2.382     2.414

molecular dipole:
                 x           y           z       tot (Debye)
 q only:        0.000       0.238      -0.000
   full:        0.000       0.245      -0.000       0.623

 projected vibrational frequencies (cm⁻¹)
eigval :       -0.00    -0.00    -0.00    -0.00    -0.00     0.00
eigval :       10.17    14.76    23.40    28.21    29.88    34.29
eigval :       35.43    40.18    46.19    61.25    74.57    78.79
eigval :       80.37    85.74    90.49    92.16   108.01   132.90
eigval :      141.51   157.81   161.44   176.93   181.40   185.96
eigval :      192.42   192.45   201.57   210.66   229.92   231.33
eigval :      233.11   234.31   250.50   264.01   280.05   288.02
eigval :      320.18   327.52   337.31   338.69   358.30   367.94
eigval :      383.09   384.38   390.49   391.32   394.00   419.50
eigval :      427.04   438.58   448.84   449.63   456.12   484.01
eigval :      489.49   495.33   498.99   501.17   504.22   523.70
eigval :      527.51   546.35   555.14   558.34   570.36   597.93
eigval :      608.95   609.02   618.26   625.80   649.49   661.20
eigval :      663.19   664.84   667.09   685.26   716.13   770.07
eigval :      770.98   771.00   779.95   790.96   801.63   802.42
eigval :      805.59   807.19   813.25   817.98   838.42   859.55
eigval :      859.59   864.78   864.92   879.77   887.47   888.75
eigval :      895.80   896.80   897.85   897.95   917.43   917.47
eigval :      918.41   920.51   925.50   925.53   928.18   929.14
eigval :      983.65  1000.53  1017.22  1018.01  1024.27  1055.29
eigval :     1055.47  1055.95  1056.00  1112.11  1117.11  1118.68
eigval :     1118.68  1118.69  1118.72  1127.70  1127.73  1130.79
eigval :     1131.08  1155.52  1155.53  1156.45  1156.46  1163.44
eigval :     1183.92  1185.05  1185.98  1187.34  1189.94  1190.87
eigval :     1202.99  1203.10  1215.80  1216.30  1236.23  1241.61
eigval :     1243.70  1267.07  1267.21  1271.19  1271.38  1299.54
eigval :     1312.00  1316.19  1317.86  1324.22  1333.55  1333.92
eigval :     1343.59  1347.58  1380.02  1382.21  1395.25  1396.28
eigval :     1396.50  1396.61  1396.76  1414.33  1415.70  1422.58
eigval :     1423.81  1449.48  1465.48  1465.51  1466.20  1466.22
eigval :     1470.52  1470.62  1473.54  1476.45  1478.88  1479.98
eigval :     1480.70  1481.75  1503.84  1555.11  1562.89  1563.24
eigval :     1569.52  1569.57  1586.29  1586.56  1607.10  1607.28
eigval :     1609.06  1609.34  2931.11  2931.12  2931.23  2931.23
eigval :     2944.50  2944.53  2944.56  2944.60  3022.65  3022.67
eigval :     3023.24  3023.25  3075.13  3075.29  3083.07  3083.42
eigval :     3084.03  3084.26  3085.40  3085.76  3085.83  3086.31
eigval :     3088.35  3088.40  3100.70  3100.75  3101.14  3101.17
eigval :     3105.08  3105.22  3106.13  3106.15  3106.64  3107.70

   temp. (K)  partition function   enthalpy   heat capacity  entropy
                                   cal/mol     cal/K/mol   cal/K/mol   J/K/mol
 298.15  VIB  0.227E+19            23416.422    142.221    146.651
         ROT  0.406E+08              888.752      2.981     37.796
         INT  0.922E+26            24305.174    145.202    184.447
         TR   0.136E+29             1481.254      4.968     44.951
         TOT                       25786.4280   150.1704   229.3977   959.8000

       T/K    H(0)-H(T)+PV         H(T)/Eh          T*S/Eh         G(T)/Eh
   ------------------------------------------------------------------------
    298.15    0.410933E-01    0.652232E+00    0.108994E+00    0.543237E+00
   ------------------------------------------------------------------------

         :::::::::::::::::::::::::::::::::::::::::::::::::::::
         ::                  THERMODYNAMIC                  ::
         :::::::::::::::::::::::::::::::::::::::::::::::::::::
         :: total free energy        -120.349451149040 Eh   ::
         ::.................................................::
         :: total energy             -120.892688523068 Eh   ::
         :: zero point energy           0.611138338555 Eh   ::
         :: G(RRHO) w/o ZPVE           -0.067900964528 Eh   ::
         :: G(RRHO) contrib.            0.543237374028 Eh   ::
         :::::::::::::::::::::::::::::::::::::::::::::::::::::

           -------------------------------------------------
          | TOTAL ENERGY             -120.892688523068 Eh   |
          | TOTAL ENTHALPY           -120.240456895858 Eh   |
          | TOTAL FREE ENERGY        -120.349451149040 Eh   |
          | GRADIENT NORM               0.000065999731 Eh/α |
          | HOMO-LUMO GAP               2.109475033655 eV   |
           -------------------------------------------------

 * finished run on 2025/08/30 at 14:07:16.024
