   * xtb version 6.7.1 (edcfbbe) compiled by 'albert@albert-system' on 2024-07-22

   ID    Z sym.   atoms
    1    6 C      1, 3-6, 8-11, 13-21, 23-26, 28-34, 36-44
    2    8 O      2, 12, 27, 35
    3    7 N      7, 22
    4    1 H      45-78

          program call               : xtb data2507/toluene/NAP-1,5-DPA/NAP-1,5-DPA_toluene_S0_finalOpt.xtbopt.xyz --gfn 2 --uhf 2 --gbsa toluene --ohess vtight --parallel 40 --molden --ceasefiles --namespace data2507/toluene/NAP-1,5-DPA/NAP-1,5-DPA_toluene_T1_preOpt
      * Solvation model:               GBSA
        Solvent                        toluene
        Solvent mass                       9.2140E+01 g/mol
          :  Hamiltonian                  GFN2-xTB          :
 * total energy  :  -120.8055839 Eh     change       -0.2573074E-08 Eh
 * total energy  :  -120.8110233 Eh     change       -0.5439477E-02 Eh
 * total energy  :  -120.8122950 Eh     change       -0.1271690E-02 Eh
 * total energy  :  -120.8124201 Eh     change       -0.1250286E-03 Eh
 * total energy  :  -120.8124636 Eh     change       -0.4355310E-04 Eh
 * total energy  :  -120.8124783 Eh     change       -0.1468603E-04 Eh
 * total energy  :  -120.8124886 Eh     change       -0.1028279E-04 Eh
 * total energy  :  -120.8125003 Eh     change       -0.1174634E-04 Eh
 * total energy  :  -120.8125089 Eh     change       -0.8614563E-05 Eh
 * total energy  :  -120.8125152 Eh     change       -0.6281798E-05 Eh
 * total energy  :  -120.8125259 Eh     change       -0.1211848E-05 Eh
 * total energy  :  -120.8125269 Eh     change       -0.1008746E-05 Eh
 * total energy  :  -120.8125279 Eh     change       -0.1008470E-05 Eh
 * total energy  :  -120.8125292 Eh     change       -0.1279097E-05 Eh
 * total energy  :  -120.8125307 Eh     change       -0.1493766E-05 Eh
 * total energy  :  -120.8125319 Eh     change       -0.1216740E-05 Eh
 * total energy  :  -120.8125328 Eh     change       -0.9110787E-06 Eh
 * total energy  :  -120.8125336 Eh     change       -0.8309162E-06 Eh
 * total energy  :  -120.8125336 Eh     change       -0.9056947E-08 Eh
   *** GEOMETRY OPTIMIZATION CONVERGED AFTER 22 ITERATIONS ***

 final structure:
================
78
 xtb: 6.7.1 (edcfbbe)
C            8.22374213048067        3.05291287535980        2.62534672838565
O            6.89263164056888        3.46541187737718        2.40249111303707
C            6.02183795991582        2.58509517071786        1.83017310900049
C            4.72070489308417        3.05642562907495        1.62801971450469
C            3.76366825268261        2.25383074558217        1.05484647242958
C            4.07327212792950        0.94651980734071        0.65912197958654
N            3.08651401948124        0.14041854352908        0.09582996085067
C            3.40621645511060       -0.82019661042955       -0.86169408701212
C            4.42108254625625       -0.59927897566187       -1.79983537406556
C            4.71044927498346       -1.54749828538235       -2.75257374897346
C            3.99207573023389       -2.74561459898870       -2.81138495632006
O            4.35963334708456       -3.61191268717268       -3.79994600757173
C            3.65814963419019       -4.82960324818336       -3.92687247730636
C            2.97803008332645       -2.96875820658399       -1.88473354080795
C            2.69333015825417       -2.01813570931281       -0.92392822012640
C            1.78184550284870        0.23739453335606        0.58974626580158
C            1.60002683346346        0.26890472586574        1.99638959225176
C            0.34452941296872        0.29687051446916        2.52729666512354
C           -0.78585111172854        0.28379848241721        1.68663957607401
C           -0.65286069728809        0.26006893971675        0.29707860679118
C           -1.77725839822495        0.27706541994173       -0.57936204373695
N           -3.08069948196858        0.11118110645057       -0.09985200095285
C           -3.39000064125303       -0.95465232220299        0.74244001044540
C           -2.65870709080003       -2.14613115309587        0.67046997012487
C           -2.94433854459573       -3.19330508690424        1.51365303444686
C           -3.97050062752626       -3.09307413824682        2.45748981125998
O           -4.17150476784335       -4.19376132996526        3.23916733521103
C           -5.19961364417610       -4.15883550521863        4.20496908416105
C           -4.70000680690152       -1.91006392464186        2.53602698099864
C           -4.40770839368445       -0.85611312875510        1.69156018483973
C           -4.07589796482496        0.96255609550964       -0.57476846839037
C           -5.37030456140220        0.50183719292700       -0.84508475205574
C           -6.32671175580652        1.35751827461840       -1.33800736555590
C           -6.02741131593174        2.70097256993815       -1.58657914107292
O           -7.05098391464647        3.45771067566270       -2.07721224445861
C           -6.80848477479051        4.81714495271193       -2.36787787189312
C           -4.74027627344085        3.16377757477001       -1.32625682810730
C           -3.78158634785881        2.30379586912235       -0.82786595307863
C           -1.59722383939679        0.46527145214586       -1.97389815130044
C           -0.34259430575469        0.56966339210936       -2.49759732617274
C            0.78859183321751        0.48133372657756       -1.66256997631370
C            0.65708343034760        0.30176603430274       -0.28422528623937
C            5.37042214862227        0.47705659221500        0.87253417674675
C            6.33425696052612        1.28360653896963        1.44607339535067
H            8.26902878593803        2.20522103120833        3.31585354546588
H            8.72291966138807        3.91078952456338        3.07301384795394
H            8.72267497455665        2.79009057744551        1.68762658582664
H            4.48963208961780        4.06694539666074        1.92712729837994
H            2.76401559156991        2.62869438983768        0.89453033581574
H            4.96783302136773        0.33176108314341       -1.78437867568186
H            5.48892288877194       -1.38048648987761       -3.48073585254879
H            2.59564314278612       -4.65938843142551       -4.12542712724460
H            4.10912484496368       -5.33765119834248       -4.77781921225625
H            3.76961464457230       -5.44988587632657       -3.03226056943919
H            2.40590378388657       -3.88265310400717       -1.89560563372745
H            1.91227064446975       -2.20398003496510       -0.20200408675964
H            2.47452274411467        0.23110791551789        2.62977140767346
H            0.20180229376985        0.30259663801964        3.59805209749181
H           -1.76594309627866        0.30925821881949        2.13591157720200
H           -1.87118566029570       -2.23762804703496       -0.06202884352141
H           -2.38786217250669       -4.11597695435680        1.45859085313501
H           -5.02279048527040       -3.37600722066206        4.94884494166943
H           -5.17444290881047       -5.13242616090712        4.69189149123389
H           -6.17909798056943       -4.00965595992728        3.74032781972802
H           -5.49248892264088       -1.79216958351478        3.25773080593130
H           -4.96655757433326        0.06409384144203        1.77863365108434
H           -5.61125508942898       -0.53755273074548       -0.68038967674565
H           -7.32389948049575        1.00695692634380       -1.55440534191645
H           -6.02971400962724        4.93012663284294       -3.12816231806561
H           -6.52733773134876        5.37374042019898       -1.46865502522640
H           -7.75010777538529        5.20464115408211       -2.75351106776921
H           -4.47328985493819        4.19358665788131       -1.50190046044014
H           -2.78733315994749        2.67080699029781       -0.62064112202525
H           -2.47186373468000        0.48324405009774       -2.60808476756878
H           -0.20049858448890        0.69522401735614       -3.56115221312044
H            1.76775227672069        0.57133943662549       -2.10561142849282
H            5.62139914038623       -0.53655901562796        0.59743426284370
H            7.32327147249932        0.88178561045958        1.59831842625914

          :  Hamiltonian                  GFN2-xTB          :
         :: gradient norm              0.000064512068 Eh/a0 ::
         :: HOMO-LUMO gap              0.646203376723 eV    ::
         :: SCC energy              -122.729522319155 Eh    ::
         :: -> dispersion             -0.102066866243 Eh    ::
         :: -> Gsolv                  -0.049798293893 Eh    ::
         :: repulsion energy           1.916988673895 Eh    ::

    * Orbital Energies and Occupations

         #    Occupation            Energy/Eh            Energy/eV
      -------------------------------------------------------------
         1        2.0000           -0.7188490             -19.5609
       ...           ...                  ...                  ...
        99        2.0000           -0.4110480             -11.1852
       100        2.0000           -0.4105443             -11.1715
       101        2.0000           -0.4090617             -11.1311
       102        2.0000           -0.4086616             -11.1202
       103        2.0000           -0.4016633             -10.9298
       104        2.0000           -0.3994825             -10.8705
       105        2.0000           -0.3894863             -10.5985
       106        2.0000           -0.3843580             -10.4589
       107        2.0000           -0.3836591             -10.4399
       108        2.0000           -0.3659370              -9.9577
       109        1.9995           -0.3453414              -9.3972
       110        1.0005           -0.3307139              -8.9992
       111        1.0000           -0.2528970              -6.8817 (HOMO)
       112        0.0000           -0.2291495              -6.2355 (LUMO)
       113        0.0000           -0.2286422              -6.2217
       114        0.0000           -0.2260129              -6.1501
       115                         -0.2255110              -6.1365
       116                         -0.2240008              -6.0954
       117                         -0.2237776              -6.0893
       118                         -0.2096982              -5.7062
       119                         -0.2066056              -5.6220
       120                         -0.1950587              -5.3078
       121                         -0.1688067              -4.5935
       122                         -0.1321724              -3.5966
       ...                                ...                  ...
       210                          0.7124453              19.3866
      -------------------------------------------------------------
                  HL-Gap            0.0237475 Eh            0.6462 eV

     #   Z          covCN         q      C6AA      α(0)
     1   6 C        3.642     0.034    20.349     6.486
     2   8 O        1.705    -0.285    18.733     5.844
     3   6 C        2.863     0.136    25.022     8.199
     4   6 C        2.918    -0.054    29.350     8.884
     5   6 C        2.921    -0.042    29.053     8.839
     6   6 C        2.926     0.055    26.774     8.486
     7   7 N        2.751    -0.039    22.003     6.967
     8   6 C        2.922     0.057    26.732     8.479
     9   6 C        2.921    -0.046    29.146     8.853
    10   6 C        2.919    -0.055    29.376     8.888
    11   6 C        2.863     0.136    25.032     8.201
    12   8 O        1.705    -0.286    18.751     5.846
    13   6 C        3.642     0.034    20.340     6.484
    14   6 C        2.916    -0.065    29.616     8.924
    15   6 C        2.923    -0.045    29.128     8.851
    16   6 C        2.926     0.021    27.537     8.606
    17   6 C        2.912    -0.053    29.308     8.877
    18   6 C        2.909    -0.045    29.107     8.847
    19   6 C        2.917    -0.065    29.623     8.925
    20   6 C        2.975    -0.002    28.064     8.690
    21   6 C        2.926     0.021    27.542     8.606
    22   7 N        2.751    -0.040    22.010     6.968
    23   6 C        2.922     0.057    26.728     8.478
    24   6 C        2.921    -0.043    29.073     8.842
    25   6 C        2.919    -0.054    29.331     8.881
    26   6 C        2.863     0.136    25.033     8.201
    27   8 O        1.705    -0.286    18.757     5.847
    28   6 C        3.642     0.034    20.340     6.484
    29   6 C        2.916    -0.067    29.661     8.931
    30   6 C        2.922    -0.048    29.204     8.862
    31   6 C        2.926     0.055    26.776     8.486
    32   6 C        2.920    -0.046    29.150     8.854
    33   6 C        2.918    -0.055    29.361     8.886
    34   6 C        2.863     0.136    25.026     8.200
    35   8 O        1.705    -0.285    18.731     5.843
    36   6 C        3.642     0.034    20.347     6.485
    37   6 C        2.915    -0.066    29.637     8.927
    38   6 C        2.923    -0.045    29.111     8.848
    39   6 C        2.912    -0.053    29.315     8.878
    40   6 C        2.909    -0.045    29.112     8.847
    41   6 C        2.916    -0.065    29.628     8.926
    42   6 C        2.975    -0.002    28.064     8.690
    43   6 C        2.921    -0.048    29.204     8.862
    44   6 C        2.915    -0.066    29.647     8.929
    45   1 H        0.924     0.048     2.347     2.396
    46   1 H        0.925     0.068     2.112     2.272
    47   1 H        0.924     0.048     2.342     2.393
    48   1 H        0.926     0.049     2.335     2.390
    49   1 H        0.926     0.044     2.390     2.418
    50   1 H        0.926     0.043     2.411     2.428
    51   1 H        0.926     0.049     2.338     2.391
    52   1 H        0.924     0.047     2.356     2.401
    53   1 H        0.925     0.067     2.115     2.274
    54   1 H        0.924     0.047     2.352     2.399
    55   1 H        0.926     0.045     2.386     2.416
    56   1 H        0.926     0.040     2.446     2.446
    57   1 H        0.926     0.016     2.791     2.612
    58   1 H        0.926     0.015     2.806     2.620
    59   1 H        0.926     0.011     2.870     2.649
    60   1 H        0.926     0.042     2.423     2.434
    61   1 H        0.926     0.048     2.348     2.396
    62   1 H        0.924     0.047     2.355     2.400
    63   1 H        0.925     0.067     2.117     2.275
    64   1 H        0.924     0.048     2.348     2.396
    65   1 H        0.926     0.045     2.377     2.411
    66   1 H        0.926     0.041     2.434     2.440
    67   1 H        0.926     0.044     2.398     2.422
    68   1 H        0.926     0.049     2.328     2.386
    69   1 H        0.924     0.048     2.350     2.397
    70   1 H        0.924     0.048     2.347     2.396
    71   1 H        0.925     0.068     2.111     2.272
    72   1 H        0.926     0.046     2.375     2.410
    73   1 H        0.926     0.043     2.414     2.430
    74   1 H        0.926     0.016     2.794     2.614
    75   1 H        0.926     0.015     2.809     2.621
    76   1 H        0.926     0.011     2.869     2.649
    77   1 H        0.926     0.042     2.420     2.432
    78   1 H        0.926     0.046     2.364     2.404

molecular dipole:
                 x           y           z       tot (Debye)
 q only:       -0.040      -0.176       0.310
   full:       -0.058      -0.189       0.396       1.125

 projected vibrational frequencies (cm⁻¹)
eigval :       -0.00    -0.00    -0.00    -0.00     0.00     0.00
eigval :       10.68    12.61    21.00    28.84    33.64    36.68
eigval :       38.01    42.97    47.14    56.80    71.17    75.97
eigval :       87.99    93.10    98.39   103.66   108.55   136.14
eigval :      140.76   157.12   158.83   170.16   178.74   184.83
eigval :      193.40   197.98   207.51   208.44   224.74   229.34
eigval :      230.05   237.09   241.36   260.68   272.21   286.61
eigval :      320.21   326.90   329.52   337.52   354.15   362.23
eigval :      380.27   385.82   387.80   392.41   393.26   405.51
eigval :      430.46   432.14   442.26   459.12   463.68   475.06
eigval :      477.47   487.82   490.28   492.13   496.59   508.61
eigval :      523.17   524.78   541.93   553.78   566.50   589.60
eigval :      599.25   607.98   608.24   611.74   619.36   660.60
eigval :      663.04   663.40   666.39   680.88   683.94   732.18
eigval :      740.21   767.57   768.42   773.76   778.00   800.08
eigval :      802.17   806.52   808.19   808.90   814.53   817.27
eigval :      831.99   852.49   856.00   856.98   859.69   869.72
eigval :      877.18   882.38   896.22   896.94   900.08   900.99
eigval :      913.07   917.64   919.44   920.61   923.00   923.21
eigval :      973.09   997.85  1010.00  1012.07  1014.44  1052.73
eigval :     1053.07  1053.53  1053.71  1090.67  1095.60  1115.24
eigval :     1116.35  1118.22  1118.27  1118.91  1125.90  1126.84
eigval :     1128.64  1130.04  1152.73  1153.64  1154.36  1155.20
eigval :     1174.97  1176.94  1180.68  1182.08  1182.75  1186.47
eigval :     1186.98  1190.66  1216.22  1216.68  1230.06  1245.19
eigval :     1248.97  1260.43  1265.11  1267.33  1268.61  1268.93
eigval :     1293.76  1298.54  1316.72  1318.22  1326.83  1328.32
eigval :     1338.89  1339.80  1367.38  1369.02  1388.53  1394.29
eigval :     1394.54  1396.22  1396.79  1404.16  1407.08  1415.87
eigval :     1416.77  1424.99  1425.13  1451.01  1458.59  1458.69
eigval :     1462.49  1463.96  1464.15  1465.15  1468.57  1469.98
eigval :     1477.01  1477.21  1477.69  1478.10  1515.62  1538.90
eigval :     1539.59  1546.88  1547.81  1566.20  1584.12  1584.65
eigval :     1588.63  1600.84  2934.46  2935.10  2935.78  2935.80
eigval :     2946.96  2947.95  2948.22  2948.28  3023.80  3024.52
eigval :     3025.22  3025.32  3064.11  3064.84  3076.35  3077.81
eigval :     3083.66  3085.02  3086.05  3086.93  3088.47  3089.18
eigval :     3089.65  3090.03  3098.01  3099.99  3101.78  3101.98
eigval :     3102.69  3103.20  3106.00  3107.12  3107.87  3108.33

   temp. (K)  partition function   enthalpy   heat capacity  entropy
                                   cal/mol     cal/K/mol   cal/K/mol   J/K/mol
 298.15  VIB  0.211E+19            23601.765    144.061    147.488
         ROT  0.812E+08              888.752      2.981     39.174
         INT  0.172E+27            24490.517    147.042    186.663
         TR   0.136E+29             1481.254      4.968     44.951
         TOT                       25971.7711   152.0097   231.6137   969.0718

       T/K    H(0)-H(T)+PV         H(T)/Eh          T*S/Eh         G(T)/Eh
   ------------------------------------------------------------------------
    298.15    0.413887E-01    0.648891E+00    0.110047E+00    0.538844E+00
   ------------------------------------------------------------------------

         :::::::::::::::::::::::::::::::::::::::::::::::::::::
         ::                  THERMODYNAMIC                  ::
         :::::::::::::::::::::::::::::::::::::::::::::::::::::
         :: total free energy        -120.273689807927 Eh   ::
         ::.................................................::
         :: total energy             -120.812533647324 Eh   ::
         :: zero point energy           0.607502339075 Eh   ::
         :: G(RRHO) w/o ZPVE           -0.068658499678 Eh   ::
         :: G(RRHO) contrib.            0.538843839397 Eh   ::
         :::::::::::::::::::::::::::::::::::::::::::::::::::::

           -------------------------------------------------
          | TOTAL ENERGY             -120.812533647324 Eh   |
          | TOTAL ENTHALPY           -120.163642656420 Eh   |
          | TOTAL FREE ENERGY        -120.273689807927 Eh   |
          | GRADIENT NORM               0.000064497948 Eh/α |
          | HOMO-LUMO GAP               0.646202877921 eV   |
           -------------------------------------------------

 * finished run on 2025/08/30 at 14:20:24.440
