   * xtb version 6.7.1 (edcfbbe) compiled by 'albert@albert-system' on 2024-07-22

   ID    Z sym.   atoms
    1    6 C      1, 3-6, 8-11, 13-21, 23-26, 28-34, 36-44
    2    8 O      2, 12, 27, 35
    3    7 N      7, 22
    4    1 H      45-78

          program call               : xtb data2507/toluene/NAP-1,5-DPA/NAP-1,5-DPA_toluene_T1_crest.xyz --gfn 2 --uhf 2 --gbsa toluene --ohess vtight --parallel 40 --molden --ceasefiles --namespace data2507/toluene/NAP-1,5-DPA/NAP-1,5-DPA_toluene_T1_finalOpt
      * Solvation model:               GBSA
        Solvent                        toluene
        Solvent mass                       9.2140E+01 g/mol
          :  Hamiltonian                  GFN2-xTB          :
 * total energy  :  -120.8123466 Eh     change       -0.3458808E-08 Eh
 * total energy  :  -120.8124286 Eh     change       -0.8198490E-04 Eh
 * total energy  :  -120.8124694 Eh     change       -0.4081304E-04 Eh
 * total energy  :  -120.8124787 Eh     change       -0.9274381E-05 Eh
 * total energy  :  -120.8124868 Eh     change       -0.8136939E-05 Eh
 * total energy  :  -120.8124931 Eh     change       -0.6314096E-05 Eh
 * total energy  :  -120.8124981 Eh     change       -0.4975397E-05 Eh
 * total energy  :  -120.8125018 Eh     change       -0.3665949E-05 Eh
 * total energy  :  -120.8125041 Eh     change       -0.2336099E-05 Eh
 * total energy  :  -120.8125056 Eh     change       -0.1462540E-05 Eh
 * total energy  :  -120.8125084 Eh     change       -0.4533292E-06 Eh
 * total energy  :  -120.8125088 Eh     change       -0.3908501E-06 Eh
 * total energy  :  -120.8125093 Eh     change       -0.5508473E-06 Eh
 * total energy  :  -120.8125099 Eh     change       -0.6095983E-06 Eh
 * total energy  :  -120.8125104 Eh     change       -0.4759345E-06 Eh
 * total energy  :  -120.8125109 Eh     change       -0.5294742E-06 Eh
 * total energy  :  -120.8125116 Eh     change       -0.6676458E-06 Eh
 * total energy  :  -120.8125122 Eh     change       -0.6417738E-06 Eh
 * total energy  :  -120.8125122 Eh     change       -0.7999517E-08 Eh
   *** GEOMETRY OPTIMIZATION CONVERGED AFTER 22 ITERATIONS ***

 final structure:
================
78
 xtb: 6.7.1 (edcfbbe)
C            8.25454112331460        2.91580129979632        2.69372412749300
O            6.92436255799066        3.34391229273685        2.49611872930239
C            6.04599526329079        2.49289532785760        1.89187142199804
C            4.74817162696255        2.98145116950023        1.71033079721567
C            3.78384787066842        2.20844552215893        1.10931152884627
C            4.08237629915864        0.91424268342862        0.66501121432699
N            3.08848412778436        0.13500000908033        0.07630499869450
C            3.40209081879735       -0.78824142168632       -0.91955355508311
C            4.41021897905046       -0.52922066685427       -1.85516162155351
C            4.69201200023741       -1.43737249987868       -2.84830572784601
C            3.97237386470746       -2.63184840480421       -2.95082214751073
O            4.33068994106765       -3.45605062703796       -3.97805444404087
C            3.62645416395582       -4.66651540864731       -4.15051506083175
C            2.96625992423615       -2.89341646318293       -2.02562219409176
C            2.68935091501530       -1.98327371705077       -1.02419283701911
C            1.78704129571459        0.21883616053554        0.57984492055221
C            1.61463250797561        0.21611937764745        1.98827995906881
C            0.36315101734870        0.23749861905441        2.52843030529501
C           -0.77310544962458        0.24744938805495        1.69578613476680
C           -0.65040941502706        0.25003498277141        0.30505023589151
C           -1.78111236142682        0.28177760403863       -0.56322735641546
N           -3.08177857699527        0.11204864233963       -0.07879630841240
C           -3.38771001572641       -0.95433428282963        0.76450258387628
C           -2.66218216460868       -2.14879435722647        0.68510796281865
C           -2.94363648298509       -3.19454141705490        1.53157329394467
C           -3.95935909912878       -3.08955684010476        2.48612689489714
O           -4.15575577019037       -4.18815731691564        3.27193328232566
C           -5.17229719952476       -4.14681820156834        4.24968848261512
C           -4.68417902972066       -1.90404651335308        2.57079572371521
C           -4.39633844435486       -0.85180963475531        1.72278159289465
C           -4.08177697023969        0.96134044907523       -0.54800162339442
C           -5.37542046001321        0.49557220086624       -0.81334265788614
C           -6.33725536797110        1.34735206290953       -1.30233948977497
C           -6.04427306033285        2.69199966926476       -1.55211033549752
O           -7.07250336480993        3.44437405259872       -2.03978711036548
C           -6.83591365232440        4.80413020692665       -2.33374351520998
C           -4.75830303956966        3.16013923933372       -1.29570662383507
C           -3.79425981485918        2.30415153264154       -0.80067847958134
C           -1.61008640820912        0.49079537763545       -1.95615686194483
C           -0.35950628779294        0.61028202623137       -2.48579152241210
C            0.77726889607222        0.51263827588301       -1.65956712475066
C            0.65581033454257        0.30368464237161       -0.28441586507893
C            5.37665674792609        0.42777766454504        0.85647157579192
C            6.34784663365618        1.20472569637305        1.45765846511437
H            8.29970637596656        2.04039736156085        3.34874702725227
H            8.76113641822524        3.75197915721664        3.17300265626363
H            8.74618515892590        2.68900503579096        1.74281947650384
H            4.52571985475871        3.98200870478290        2.04711082046256
H            2.78694141399862        2.59690345708565        0.96524101783479
H            4.95699684958320        0.40061832495744       -1.80541728946214
H            5.46473582202010       -1.24044729700813       -3.57508147122032
H            3.74574273807027       -5.32482499120221       -3.28454017111573
H            2.56230554398441       -4.48692130362630       -4.33128242134374
H            4.06846673535265       -5.13781191259923       -5.02696499840265
H            2.39381845716559       -3.80610683855264       -2.06979324102107
H            1.91398287030827       -2.19857805452814       -0.30439272238970
H            2.49309888226279        0.15954771962480        2.61469334317431
H            0.22779664737962        0.21932759609353        3.60000581579022
H           -1.74936664757469        0.26782967393189        2.15328684487063
H           -1.88215783522529       -2.24341197940098       -0.05496887656438
H           -2.39132667584022       -4.11939725824920        1.47145593792386
H           -4.98382666753444       -3.36254828862156        4.98919828087597
H           -5.14502918467894       -5.11910726530409        4.73906769537193
H           -6.15659816377040       -3.99522124424307        3.79614509048610
H           -5.46899576234628       -1.78265675849109        3.30022771270286
H           -4.95092093476821        0.07054547564795        1.81446088004446
H           -5.61146689421607       -0.54484201270507       -0.64795320246067
H           -7.33377897199803        0.99269079806935       -1.51508117223303
H           -6.06117989358677        4.91835303374637       -3.09797019611882
H           -6.55226007040195        5.36314710794563       -1.43682890595666
H           -7.78065159542253        5.18790972786368       -2.71545641473421
H           -4.49624713898447        4.19110456255492       -1.47202047559139
H           -2.80101771025033        2.67557984150333       -0.59654197966760
H           -2.48857108444694        0.51433677319518       -2.58477531143552
H           -0.22455500909094        0.75413533762007       -3.54796238149643
H            1.75270461020105        0.61645113943477       -2.10748610048329
H            5.61911090018970       -0.57655629049770        0.54234289280498
H            7.33422537240533        0.79019951679453        1.59170907872719

          :  Hamiltonian                  GFN2-xTB          :
         :: gradient norm              0.000053530349 Eh/a0 ::
         :: HOMO-LUMO gap              0.646533109277 eV    ::
         :: SCC energy              -122.729415301924 Eh    ::
         :: -> dispersion             -0.102128032171 Eh    ::
         :: -> Gsolv                  -0.049751307052 Eh    ::
         :: repulsion energy           1.916903053581 Eh    ::

    * Orbital Energies and Occupations

         #    Occupation            Energy/Eh            Energy/eV
      -------------------------------------------------------------
         1        2.0000           -0.7188267             -19.5603
       ...           ...                  ...                  ...
        99        2.0000           -0.4110334             -11.1848
       100        2.0000           -0.4105572             -11.1718
       101        2.0000           -0.4090566             -11.1310
       102        2.0000           -0.4086764             -11.1207
       103        2.0000           -0.4017426             -10.9320
       104        2.0000           -0.3993914             -10.8680
       105        2.0000           -0.3894973             -10.5988
       106        2.0000           -0.3843104             -10.4576
       107        2.0000           -0.3836324             -10.4392
       108        2.0000           -0.3661100              -9.9624
       109        1.9996           -0.3453264              -9.3968
       110        1.0004           -0.3305751              -8.9954
       111        1.0000           -0.2529216              -6.8823 (HOMO)
       112        0.0000           -0.2291619              -6.2358 (LUMO)
       113        0.0000           -0.2286446              -6.2217
       114        0.0000           -0.2259894              -6.1495
       115                         -0.2254867              -6.1358
       116                         -0.2239929              -6.0952
       117                         -0.2237644              -6.0889
       118                         -0.2097334              -5.7071
       119                         -0.2067939              -5.6271
       120                         -0.1950871              -5.3086
       121                         -0.1685390              -4.5862
       122                         -0.1321337              -3.5955
       ...                                ...                  ...
       210                          0.7125528              19.3895
      -------------------------------------------------------------
                  HL-Gap            0.0237596 Eh            0.6465 eV

     #   Z          covCN         q      C6AA      α(0)
     1   6 C        3.642     0.034    20.349     6.486
     2   8 O        1.705    -0.285    18.734     5.844
     3   6 C        2.863     0.136    25.022     8.199
     4   6 C        2.918    -0.054    29.351     8.884
     5   6 C        2.921    -0.042    29.052     8.839
     6   6 C        2.926     0.055    26.777     8.486
     7   7 N        2.751    -0.039    22.001     6.966
     8   6 C        2.922     0.056    26.735     8.479
     9   6 C        2.921    -0.046    29.145     8.853
    10   6 C        2.919    -0.055    29.377     8.888
    11   6 C        2.863     0.136    25.033     8.201
    12   8 O        1.705    -0.286    18.752     5.847
    13   6 C        3.642     0.034    20.339     6.484
    14   6 C        2.916    -0.065    29.615     8.924
    15   6 C        2.923    -0.045    29.127     8.851
    16   6 C        2.925     0.021    27.532     8.605
    17   6 C        2.913    -0.053    29.310     8.878
    18   6 C        2.909    -0.045    29.105     8.846
    19   6 C        2.917    -0.065    29.622     8.925
    20   6 C        2.974    -0.002    28.065     8.690
    21   6 C        2.926     0.021    27.538     8.606
    22   7 N        2.751    -0.040    22.008     6.967
    23   6 C        2.922     0.057    26.731     8.479
    24   6 C        2.921    -0.043    29.071     8.842
    25   6 C        2.919    -0.054    29.330     8.881
    26   6 C        2.863     0.136    25.033     8.201
    27   8 O        1.705    -0.286    18.758     5.848
    28   6 C        3.642     0.034    20.339     6.484
    29   6 C        2.916    -0.067    29.662     8.931
    30   6 C        2.922    -0.048    29.201     8.862
    31   6 C        2.926     0.054    26.778     8.486
    32   6 C        2.920    -0.046    29.149     8.854
    33   6 C        2.918    -0.055    29.362     8.886
    34   6 C        2.863     0.136    25.027     8.200
    35   8 O        1.705    -0.285    18.732     5.843
    36   6 C        3.642     0.034    20.346     6.485
    37   6 C        2.915    -0.066    29.637     8.927
    38   6 C        2.923    -0.045    29.112     8.848
    39   6 C        2.913    -0.053    29.316     8.878
    40   6 C        2.909    -0.045    29.111     8.847
    41   6 C        2.917    -0.065    29.627     8.926
    42   6 C        2.974    -0.002    28.065     8.690
    43   6 C        2.921    -0.048    29.202     8.862
    44   6 C        2.915    -0.066    29.647     8.929
    45   1 H        0.924     0.048     2.347     2.396
    46   1 H        0.925     0.068     2.112     2.273
    47   1 H        0.924     0.048     2.342     2.393
    48   1 H        0.926     0.049     2.335     2.390
    49   1 H        0.926     0.044     2.390     2.417
    50   1 H        0.926     0.043     2.412     2.429
    51   1 H        0.926     0.048     2.339     2.392
    52   1 H        0.924     0.047     2.353     2.399
    53   1 H        0.924     0.047     2.357     2.401
    54   1 H        0.925     0.067     2.115     2.274
    55   1 H        0.926     0.045     2.387     2.416
    56   1 H        0.926     0.040     2.447     2.446
    57   1 H        0.926     0.016     2.789     2.611
    58   1 H        0.926     0.015     2.806     2.619
    59   1 H        0.926     0.011     2.866     2.648
    60   1 H        0.926     0.042     2.424     2.435
    61   1 H        0.926     0.048     2.348     2.396
    62   1 H        0.924     0.047     2.355     2.400
    63   1 H        0.925     0.067     2.117     2.275
    64   1 H        0.924     0.048     2.348     2.396
    65   1 H        0.926     0.045     2.377     2.411
    66   1 H        0.926     0.041     2.435     2.440
    67   1 H        0.926     0.044     2.399     2.422
    68   1 H        0.926     0.049     2.328     2.386
    69   1 H        0.924     0.048     2.350     2.397
    70   1 H        0.924     0.048     2.347     2.396
    71   1 H        0.925     0.068     2.112     2.272
    72   1 H        0.926     0.046     2.375     2.410
    73   1 H        0.926     0.043     2.414     2.430
    74   1 H        0.926     0.016     2.791     2.613
    75   1 H        0.926     0.015     2.809     2.621
    76   1 H        0.926     0.011     2.866     2.647
    77   1 H        0.926     0.042     2.421     2.433
    78   1 H        0.926     0.046     2.364     2.404

molecular dipole:
                 x           y           z       tot (Debye)
 q only:       -0.039      -0.173       0.285
   full:       -0.057      -0.188       0.365       1.055

 projected vibrational frequencies (cm⁻¹)
eigval :       -0.00    -0.00    -0.00     0.00     0.00     0.00
eigval :        8.86    12.66    20.33    28.44    33.61    35.12
eigval :       36.87    39.19    45.24    55.90    69.83    75.25
eigval :       87.02    93.06    98.15   103.10   108.04   135.20
eigval :      141.16   156.71   159.12   170.10   180.26   186.38
eigval :      193.54   198.54   207.52   208.74   228.81   230.89
eigval :      232.23   237.74   241.83   260.58   271.52   286.38
eigval :      319.87   326.98   329.33   336.96   353.54   361.93
eigval :      379.79   384.56   387.29   391.11   392.30   405.62
eigval :      430.38   432.17   442.66   458.79   463.42   475.21
eigval :      477.58   487.47   489.53   491.28   495.45   508.13
eigval :      522.29   524.53   541.98   553.74   566.34   589.45
eigval :      599.12   607.82   608.01   611.70   619.25   660.20
eigval :      662.55   663.23   666.01   681.01   683.84   732.26
eigval :      740.49   767.29   768.10   773.55   777.84   800.06
eigval :      800.23   805.08   806.90   808.91   814.38   817.67
eigval :      831.71   851.86   852.37   856.23   856.84   869.54
eigval :      877.60   882.75   895.14   896.28   898.61   900.13
eigval :      911.54   912.28   918.65   919.58   922.96   923.12
eigval :      972.90   997.60  1009.68  1011.88  1014.12  1052.50
eigval :     1053.00  1053.33  1053.54  1091.42  1095.76  1115.97
eigval :     1116.58  1117.26  1118.76  1118.89  1124.88  1126.38
eigval :     1128.23  1129.78  1152.47  1153.06  1154.60  1155.16
eigval :     1174.39  1176.90  1180.43  1181.33  1182.65  1185.79
eigval :     1186.65  1190.56  1215.42  1216.10  1229.63  1244.79
eigval :     1249.51  1260.04  1264.34  1267.01  1267.32  1268.52
eigval :     1293.76  1298.75  1316.40  1318.01  1326.74  1328.29
eigval :     1338.67  1339.70  1367.48  1369.03  1388.28  1394.05
eigval :     1395.61  1395.97  1396.16  1404.02  1406.91  1415.82
eigval :     1416.64  1424.75  1425.01  1451.25  1458.12  1458.53
eigval :     1464.09  1464.19  1464.99  1465.23  1468.29  1469.77
eigval :     1477.02  1477.30  1477.39  1478.01  1516.14  1538.55
eigval :     1539.16  1546.46  1547.58  1566.46  1584.04  1584.56
eigval :     1588.56  1600.75  2933.59  2934.92  2935.32  2935.87
eigval :     2946.30  2947.70  2947.76  2948.29  3024.65  3025.16
eigval :     3025.30  3025.31  3064.48  3065.23  3076.82  3078.33
eigval :     3083.48  3084.68  3086.06  3086.59  3088.77  3088.99
eigval :     3089.58  3090.07  3098.64  3100.55  3101.62  3102.32
eigval :     3102.67  3103.09  3106.07  3107.29  3107.56  3107.98

   temp. (K)  partition function   enthalpy   heat capacity  entropy
                                   cal/mol     cal/K/mol   cal/K/mol   J/K/mol
 298.15  VIB  0.331E+19            23623.989    143.906    147.765
         ROT  0.813E+08              888.752      2.981     39.176
         INT  0.269E+27            24512.741    146.886    186.941
         TR   0.136E+29             1481.254      4.968     44.951
         TOT                       25993.9953   151.8545   231.8920   970.2362

       T/K    H(0)-H(T)+PV         H(T)/Eh          T*S/Eh         G(T)/Eh
   ------------------------------------------------------------------------
    298.15    0.414241E-01    0.648800E+00    0.110179E+00    0.538620E+00
   ------------------------------------------------------------------------

         :::::::::::::::::::::::::::::::::::::::::::::::::::::
         ::                  THERMODYNAMIC                  ::
         :::::::::::::::::::::::::::::::::::::::::::::::::::::
         :: total free energy        -120.273892090192 Eh   ::
         ::.................................................::
         :: total energy             -120.812512250345 Eh   ::
         :: zero point energy           0.607375472044 Eh   ::
         :: G(RRHO) w/o ZPVE           -0.068755311891 Eh   ::
         :: G(RRHO) contrib.            0.538620160153 Eh   ::
         :::::::::::::::::::::::::::::::::::::::::::::::::::::

           -------------------------------------------------
          | TOTAL ENERGY             -120.812512250345 Eh   |
          | TOTAL ENTHALPY           -120.163712710095 Eh   |
          | TOTAL FREE ENERGY        -120.273892090192 Eh   |
          | GRADIENT NORM               0.000053592797 Eh/α |
          | HOMO-LUMO GAP               0.646532553267 eV   |
           -------------------------------------------------

 * finished run on 2025/08/30 at 14:34:07.655
