   * xtb version 6.7.1 (edcfbbe) compiled by 'albert@albert-system' on 2024-07-22

   ID    Z sym.   atoms
    1    6 C      1, 3-6, 8-11, 13-21, 23-26, 28-34, 36-44
    2    8 O      2, 12, 27, 35
    3    7 N      7, 22
    4    1 H      45-78

          program call               : xtb data2507/toluene/NAP-1,5-DPA/NAP-1,5-DPA_toluene_S0_crest.xyz --gfn 2 --gbsa toluene --ohess vtight --parallel 40 --molden --ceasefiles --namespace data2507/toluene/NAP-1,5-DPA/NAP-1,5-DPA_toluene_S0_finalOpt
      * Solvation model:               GBSA
        Solvent                        toluene
        Solvent mass                       9.2140E+01 g/mol
          :  Hamiltonian                  GFN2-xTB          :
 * total energy  :  -120.8925660 Eh     change       -0.1096623E-07 Eh
 * total energy  :  -120.8926485 Eh     change       -0.8246301E-04 Eh
 * total energy  :  -120.8926877 Eh     change       -0.3922905E-04 Eh
 * total energy  :  -120.8926947 Eh     change       -0.7007204E-05 Eh
 * total energy  :  -120.8927031 Eh     change       -0.8378899E-05 Eh
 * total energy  :  -120.8927099 Eh     change       -0.6790850E-05 Eh
 * total energy  :  -120.8927161 Eh     change       -0.6197185E-05 Eh
 * total energy  :  -120.8927200 Eh     change       -0.3951082E-05 Eh
 * total energy  :  -120.8927221 Eh     change       -0.2079922E-05 Eh
 * total energy  :  -120.8927239 Eh     change       -0.1818065E-05 Eh
 * total energy  :  -120.8927469 Eh     change       -0.2468388E-06 Eh
 * total energy  :  -120.8927471 Eh     change       -0.1893592E-06 Eh
 * total energy  :  -120.8927473 Eh     change       -0.1908976E-06 Eh
 * total energy  :  -120.8927475 Eh     change       -0.2062536E-06 Eh
 * total energy  :  -120.8927478 Eh     change       -0.2276178E-06 Eh
 * total energy  :  -120.8927480 Eh     change       -0.2576865E-06 Eh
 * total energy  :  -120.8927483 Eh     change       -0.2556772E-06 Eh
 * total energy  :  -120.8927485 Eh     change       -0.1814255E-06 Eh
 * total energy  :  -120.8927486 Eh     change       -0.9961110E-07 Eh
   *** GEOMETRY OPTIMIZATION CONVERGED AFTER 43 ITERATIONS ***

 final structure:
================
78
 xtb: 6.7.1 (edcfbbe)
C            8.25506919512895        3.01969131730810        2.61874673258565
O            6.93767402213865        3.45975488300446        2.37356749598041
C            6.05164152181600        2.58466795888972        1.80759749189141
C            4.76386297825032        3.07757529636907        1.58790741548250
C            3.79566271409836        2.28428242924615        1.01555379135756
C            4.08041441507577        0.96607443669254        0.65134252713989
N            3.08250934204505        0.17377824119243        0.06948758210470
C            3.40602636038622       -0.80416805750877       -0.87632575253061
C            4.41051613041660       -0.58052845739603       -1.82190110893596
C            4.71279410814795       -1.53931265336206       -2.76199225861481
C            4.01525858005300       -2.74816527334018       -2.79982525097359
O            4.39215613546150       -3.62457518862108       -3.78121610491397
C            3.71548688460850       -4.85809919850245       -3.87649416250085
C            3.01232225776283       -2.97460391600654       -1.86522648377531
C            2.71976088936892       -2.01478702933308       -0.91243323864087
C            1.78039620545419        0.23817259278396        0.59267393969945
C            1.59404760039086        0.24971747968115        1.95744069713333
C            0.30891913006993        0.29893406833461        2.50162372639383
C           -0.79137541883305        0.28282450924399        1.68870165099740
C           -0.64889851980808        0.27009279743473        0.28611687759872
C           -1.77364607992177        0.28055018528384       -0.59054530506962
N           -3.07470101832966        0.14660807595078       -0.07697278557354
C           -3.38798394208619       -0.93563146487076        0.75109488565685
C           -2.68357677715116       -2.13761954388932        0.65012521283992
C           -2.97826730937524       -3.19392140771888        1.48252938325696
C           -3.99427035506320       -3.09210763782250        2.43372945067218
O           -4.20904282929448       -4.20490935432427        3.20115610272527
C           -5.22813655270750       -4.16370771784384        4.17501441541483
C           -4.70278176364742       -1.90039490123141        2.53554826308741
C           -4.39580196477688       -0.83597116819271        1.70715225112350
C           -4.08143047862501        0.98469449835895       -0.57332487561984
C           -5.35892277544431        0.50223603159966       -0.86406799055647
C           -6.33156888732956        1.34735401634757       -1.34987542541704
C           -6.05831094118043        2.69787108530910       -1.57375027219146
O           -7.09476048857381        3.44388175381506       -2.06401660393614
C           -6.87411254196718        4.81216551952595       -2.32563399368120
C           -4.78549063863793        3.18201915049486       -1.29387068247936
C           -3.81429962165037        2.33290119654993       -0.79484927479187
C           -1.58882336935424        0.43816432749043       -1.94637691318989
C           -0.30476031736321        0.56035475999596       -2.48164464115512
C            0.79632141642821        0.47293720875321       -1.67409398763248
C            0.65520786810111        0.30844702117305       -0.28098727007454
C            5.36157074657998        0.47511268333166        0.88269041358506
C            6.34066764968581        1.27374726293975        1.44728785460364
H            8.27273438682231        2.18134303169323        3.32212873328107
H            8.76940301968196        3.87212249039313        3.05979457982025
H            8.75931042230788        2.73094317947834        1.69126428079843
H            4.54914347712073        4.09651093981860        1.87059583146482
H            2.80492010645654        2.67895246803307        0.84604416986050
H            4.94760753693908        0.35628575930954       -1.81768573937445
H            5.48670256949593       -1.37001030826572       -3.49465897383203
H            2.64809186770681       -4.71451092226370       -4.07133107975473
H            4.17093447095019       -5.37578723292712       -4.71929679842767
H            3.84522888086251       -5.45669748169946       -2.96939883689933
H            2.45362484310672       -3.89695148802016       -1.85927675819715
H            1.94317461221975       -2.20866767748645       -0.18740051991555
H            2.45460277350174        0.22101162008551        2.61011118947797
H            0.19087210002655        0.32805371335192        3.57473515606910
H           -1.77879174330926        0.30406451584047        2.12107328683282
H           -1.90107271868763       -2.23663292368973       -0.08720128002617
H           -2.43612035287343       -4.12388136285492        1.40836372194284
H           -5.03107334804111       -3.39474756728251        4.92851003941914
H           -5.21827699546496       -5.14427687817706        4.64851065284163
H           -6.20866408114178       -3.98941153147223        3.72085901129143
H           -5.49163532652660       -1.78122218436909        3.26117124552787
H           -4.94493960980729        0.08885017303285        1.80682832053145
H           -5.58274474592153       -0.54304286110498       -0.71200966117707
H           -7.31987988306186        0.97902061360032       -1.57789281776590
H           -6.09077991220005        4.95406944266145       -3.07668027458251
H           -6.61078799729400        5.35669530167186       -1.41346422613550
H           -7.81896095806798        5.19072482539099       -2.71245215695938
H           -4.53641483073144        4.21916395944100       -1.45237984101607
H           -2.82960299619753        2.71994156625065       -0.57725432725818
H           -2.44987061749642        0.46721707698348       -2.59850877402114
H           -0.18743083693766        0.70460066069439       -3.54556477914399
H            1.78284187069853        0.55366176717227       -2.10149882718502
H            5.59747443465282       -0.54549489546984        0.61974510185872
H            7.32128924656010        0.85495293013252        1.60867621937559

          :  Hamiltonian                  GFN2-xTB          :
         :: gradient norm              0.000026860488 Eh/a0 ::
         :: HOMO-LUMO gap              2.139600908501 eV    ::
         :: SCC energy              -122.825068449392 Eh    ::
         :: -> dispersion             -0.101825025205 Eh    ::
         :: -> Gsolv                  -0.049262410104 Eh    ::
         :: repulsion energy           1.932319893407 Eh    ::

    * Orbital Energies and Occupations

         #    Occupation            Energy/Eh            Energy/eV
      -------------------------------------------------------------
         1        2.0000           -0.7156190             -19.4730
       ...           ...                  ...                  ...
        98        2.0000           -0.4183401             -11.3836
        99        2.0000           -0.4092866             -11.1373
       100        2.0000           -0.4084165             -11.1136
       101        2.0000           -0.4072309             -11.0813
       102        2.0000           -0.4060913             -11.0503
       103        2.0000           -0.4057423             -11.0408
       104        2.0000           -0.4036063             -10.9827
       105        2.0000           -0.4010685             -10.9136
       106        2.0000           -0.3832609             -10.4291
       107        2.0000           -0.3824328             -10.4065
       108        2.0000           -0.3783668             -10.2959
       109        2.0000           -0.3444845              -9.3739
       110        2.0000           -0.3374744              -9.1831 (HOMO)
       111                         -0.2588455              -7.0435 (LUMO)
       112                         -0.2306220              -6.2755
       113                         -0.2263045              -6.1581
       114                         -0.2246073              -6.1119
       115                         -0.2232980              -6.0762
       116                         -0.2229258              -6.0661
       117                         -0.2208789              -6.0104
       118                         -0.2205590              -6.0017
       119                         -0.2082069              -5.6656
       120                         -0.1933900              -5.2624
       121                         -0.1773164              -4.8250
       ...                                ...                  ...
       210                          0.6878720              18.7179
      -------------------------------------------------------------
                  HL-Gap            0.0786289 Eh            2.1396 eV

     #   Z          covCN         q      C6AA      α(0)
     1   6 C        3.642     0.036    20.309     6.479
     2   8 O        1.705    -0.293    18.870     5.865
     3   6 C        2.863     0.133    25.091     8.211
     4   6 C        2.919    -0.056    29.380     8.889
     5   6 C        2.923    -0.048    29.181     8.859
     6   6 C        2.922     0.055    26.766     8.484
     7   7 N        2.751    -0.078    22.746     7.083
     8   6 C        2.920     0.058    26.706     8.475
     9   6 C        2.922    -0.050    29.233     8.866
    10   6 C        2.919    -0.056    29.391     8.890
    11   6 C        2.863     0.132    25.111     8.214
    12   8 O        1.705    -0.294    18.889     5.868
    13   6 C        3.642     0.037    20.301     6.478
    14   6 C        2.917    -0.067    29.664     8.931
    15   6 C        2.924    -0.051    29.275     8.873
    16   6 C        2.923     0.058    26.698     8.473
    17   6 C        2.920    -0.050    29.248     8.869
    18   6 C        2.914    -0.033    28.828     8.804
    19   6 C        2.917    -0.043    29.080     8.843
    20   6 C        2.985    -0.002    28.058     8.689
    21   6 C        2.923     0.058    26.699     8.474
    22   7 N        2.751    -0.078    22.752     7.084
    23   6 C        2.920     0.058    26.705     8.474
    24   6 C        2.922    -0.049    29.212     8.863
    25   6 C        2.920    -0.056    29.379     8.888
    26   6 C        2.863     0.132    25.112     8.214
    27   8 O        1.705    -0.294    18.896     5.869
    28   6 C        3.642     0.037    20.301     6.478
    29   6 C        2.917    -0.067    29.677     8.933
    30   6 C        2.923    -0.052    29.297     8.876
    31   6 C        2.922     0.055    26.766     8.484
    32   6 C        2.921    -0.049    29.208     8.863
    33   6 C        2.920    -0.056    29.391     8.890
    34   6 C        2.863     0.133    25.091     8.211
    35   8 O        1.705    -0.293    18.871     5.865
    36   6 C        3.642     0.036    20.309     6.479
    37   6 C        2.916    -0.067    29.668     8.932
    38   6 C        2.924    -0.050    29.244     8.868
    39   6 C        2.920    -0.050    29.251     8.869
    40   6 C        2.914    -0.033    28.834     8.805
    41   6 C        2.917    -0.043    29.079     8.843
    42   6 C        2.985    -0.002    28.059     8.689
    43   6 C        2.923    -0.051    29.269     8.872
    44   6 C        2.917    -0.067    29.678     8.933
    45   1 H        0.924     0.045     2.382     2.414
    46   1 H        0.925     0.065     2.139     2.287
    47   1 H        0.924     0.045     2.379     2.412
    48   1 H        0.926     0.045     2.378     2.411
    49   1 H        0.926     0.039     2.468     2.457
    50   1 H        0.926     0.039     2.456     2.451
    51   1 H        0.926     0.045     2.385     2.415
    52   1 H        0.924     0.045     2.388     2.417
    53   1 H        0.925     0.065     2.143     2.289
    54   1 H        0.924     0.045     2.390     2.418
    55   1 H        0.926     0.040     2.443     2.444
    56   1 H        0.926     0.034     2.537     2.491
    57   1 H        0.926     0.031     2.569     2.506
    58   1 H        0.926     0.033     2.544     2.494
    59   1 H        0.926     0.034     2.524     2.484
    60   1 H        0.926     0.035     2.512     2.478
    61   1 H        0.926     0.044     2.401     2.423
    62   1 H        0.924     0.045     2.386     2.416
    63   1 H        0.925     0.065     2.145     2.290
    64   1 H        0.924     0.045     2.386     2.416
    65   1 H        0.926     0.042     2.428     2.436
    66   1 H        0.926     0.037     2.482     2.464
    67   1 H        0.926     0.040     2.453     2.449
    68   1 H        0.926     0.045     2.381     2.413
    69   1 H        0.924     0.045     2.380     2.413
    70   1 H        0.924     0.045     2.381     2.413
    71   1 H        0.925     0.065     2.139     2.287
    72   1 H        0.926     0.042     2.419     2.432
    73   1 H        0.926     0.037     2.494     2.470
    74   1 H        0.926     0.031     2.571     2.507
    75   1 H        0.926     0.033     2.545     2.495
    76   1 H        0.926     0.035     2.522     2.483
    77   1 H        0.926     0.038     2.477     2.461
    78   1 H        0.926     0.042     2.421     2.433

molecular dipole:
                 x           y           z       tot (Debye)
 q only:       -0.049       0.050       0.346
   full:       -0.068       0.006       0.440       1.131

 projected vibrational frequencies (cm⁻¹)
eigval :       -0.00    -0.00    -0.00     0.00     0.00     0.00
eigval :        9.77    15.08    20.90    27.37    28.57    35.66
eigval :       38.05    42.68    47.21    56.80    67.85    74.19
eigval :       86.56    91.08    95.85   100.96   107.98   134.34
eigval :      139.50   155.34   156.84   169.00   177.66   186.13
eigval :      196.70   199.71   208.27   209.52   228.96   231.04
eigval :      232.03   239.97   245.40   260.78   280.37   289.43
eigval :      320.53   329.93   332.31   339.98   358.77   366.89
eigval :      384.48   385.93   389.61   391.96   400.31   415.52
eigval :      423.72   434.48   435.48   458.88   465.45   483.25
eigval :      488.84   495.07   497.31   499.82   503.77   527.33
eigval :      527.74   543.94   553.24   559.16   569.62   601.39
eigval :      608.45   609.66   612.86   620.82   647.02   662.24
eigval :      663.58   664.90   667.19   688.39   713.34   769.24
eigval :      770.47   771.61   780.28   788.53   799.33   801.88
eigval :      805.54   807.20   812.19   817.84   839.16   854.32
eigval :      859.47   861.18   861.26   880.27   884.91   886.01
eigval :      896.88   897.88   899.85   900.42   912.87   916.87
eigval :      918.28   920.51   920.76   920.87   927.87   928.83
eigval :      983.11  1000.84  1016.71  1017.46  1025.60  1055.30
eigval :     1055.51  1056.09  1056.44  1113.37  1117.37  1117.68
eigval :     1117.74  1119.71  1119.77  1126.55  1127.78  1129.43
eigval :     1130.08  1154.27  1155.47  1155.61  1155.70  1163.66
eigval :     1183.69  1185.08  1186.12  1187.82  1189.83  1190.85
eigval :     1201.98  1202.50  1215.81  1216.38  1236.72  1241.46
eigval :     1243.33  1267.89  1268.22  1270.91  1271.14  1298.59
eigval :     1309.73  1320.16  1320.69  1324.57  1326.27  1331.65
eigval :     1343.60  1347.81  1380.01  1382.16  1394.57  1395.24
eigval :     1395.78  1396.42  1396.54  1414.39  1415.90  1422.34
eigval :     1423.58  1449.37  1463.94  1465.28  1465.48  1466.34
eigval :     1470.76  1471.21  1473.00  1476.23  1480.39  1480.62
eigval :     1481.19  1481.86  1504.24  1555.14  1563.49  1563.84
eigval :     1568.77  1569.06  1586.00  1586.29  1606.95  1607.26
eigval :     1608.48  1608.78  2930.12  2931.08  2931.96  2932.38
eigval :     2943.79  2944.64  2945.05  2945.71  3022.14  3023.19
eigval :     3023.44  3023.86  3074.66  3075.64  3082.27  3082.92
eigval :     3083.31  3084.59  3085.26  3085.67  3086.26  3086.70
eigval :     3087.06  3087.30  3099.63  3100.20  3100.65  3100.94
eigval :     3104.74  3105.47  3105.95  3106.42  3109.82  3110.90

   temp. (K)  partition function   enthalpy   heat capacity  entropy
                                   cal/mol     cal/K/mol   cal/K/mol   J/K/mol
 298.15  VIB  0.233E+19            23416.934    142.327    146.664
         ROT  0.815E+08              888.752      2.981     39.181
         INT  0.190E+27            24305.686    145.308    185.845
         TR   0.136E+29             1481.254      4.968     44.951
         TOT                       25786.9400   150.2765   230.7966   965.6529

       T/K    H(0)-H(T)+PV         H(T)/Eh          T*S/Eh         G(T)/Eh
   ------------------------------------------------------------------------
    298.15    0.410941E-01    0.652126E+00    0.109659E+00    0.542467E+00
   ------------------------------------------------------------------------

         :::::::::::::::::::::::::::::::::::::::::::::::::::::
         ::                  THERMODYNAMIC                  ::
         :::::::::::::::::::::::::::::::::::::::::::::::::::::
         :: total free energy        -120.350281743183 Eh   ::
         ::.................................................::
         :: total energy             -120.892748557401 Eh   ::
         :: zero point energy           0.611031614419 Eh   ::
         :: G(RRHO) w/o ZPVE           -0.068564800200 Eh   ::
         :: G(RRHO) contrib.            0.542466814218 Eh   ::
         :::::::::::::::::::::::::::::::::::::::::::::::::::::

           -------------------------------------------------
          | TOTAL ENERGY             -120.892748557401 Eh   |
          | TOTAL ENTHALPY           -120.240622838303 Eh   |
          | TOTAL FREE ENERGY        -120.350281743183 Eh   |
          | GRADIENT NORM               0.000026911965 Eh/α |
          | HOMO-LUMO GAP               2.139601317067 eV   |
           -------------------------------------------------

 * finished run on 2025/08/30 at 14:20:19.144
