   * xtb version 6.7.1 (edcfbbe) compiled by 'albert@albert-system' on 2024-07-22

   ID    Z sym.   atoms
    1    6 C      1-15, 17-29, 31-35, 37-59
    2    7 N      16, 30, 36
    3    1 H      60-106

          program call               : xtb data2507/gas/mCP-Py/mCP-Py_gas_T1_crest.xyz --gfn 2 --spinpol --tblite --uhf 2 --ohess vtight --parallel 40 --molden --ceasefiles --namespace data2507/gas/mCP-Py/mCP-Py_gas_T1_finalOpt
 * total energy  :  -152.6718544 Eh     change       -0.7165664E-07 Eh
 * total energy  :  -152.6719140 Eh     change       -0.5960016E-04 Eh
 * total energy  :  -152.6719278 Eh     change       -0.1380996E-04 Eh
 * total energy  :  -152.6719301 Eh     change       -0.2299222E-05 Eh
 * total energy  :  -152.6719325 Eh     change       -0.2408144E-05 Eh
 * total energy  :  -152.6719347 Eh     change       -0.2191000E-05 Eh
 * total energy  :  -152.6719367 Eh     change       -0.1972973E-05 Eh
 * total energy  :  -152.6719379 Eh     change       -0.1247600E-05 Eh
 * total energy  :  -152.6719387 Eh     change       -0.8027379E-06 Eh
 * total energy  :  -152.6719394 Eh     change       -0.6402684E-06 Eh
 * total energy  :  -152.6719458 Eh     change       -0.4872902E-06 Eh
 * total energy  :  -152.6719459 Eh     change       -0.1639947E-06 Eh
 * total energy  :  -152.6719461 Eh     change       -0.1538380E-06 Eh
 * total energy  :  -152.6719464 Eh     change       -0.2953658E-06 Eh
 * total energy  :  -152.6719467 Eh     change       -0.3111064E-06 Eh
 * total energy  :  -152.6719469 Eh     change       -0.2081620E-06 Eh
 * total energy  :  -152.6719471 Eh     change       -0.1818173E-06 Eh
 * total energy  :  -152.6719473 Eh     change       -0.2669691E-06 Eh
 * total energy  :  -152.6719474 Eh     change       -0.9944279E-07 Eh
   *** GEOMETRY OPTIMIZATION CONVERGED AFTER 32 ITERATIONS ***

 final structure:
================
106
 xtb: 6.7.1 (edcfbbe)
C           -4.67634901938142        4.70514344264160        4.07581911629531
C           -3.66798852908114        4.18105997107721        3.04968996320760
C           -3.37710670157484        5.31118146609119        2.04711036734429
C           -2.37440054903170        3.81319136740558        3.79600407673135
C           -4.16602906459574        2.96859154670151        2.29610428453765
C           -5.44327192655602        2.39069265265077        2.51381094724786
C           -5.88892660603709        1.30806258962845        1.81941458451287
C           -5.04878506814496        0.71555535270611        0.82174349450148
C           -3.74403171800036        1.31096474193109        0.59655948391742
C           -3.32519669451018        2.38056118051853        1.31273164041069
C           -3.01364329606433        0.54824628134943       -0.49332923004782
C           -2.81098687328336        1.36024115359993       -1.75300741334993
C           -3.61291679468467        2.45720133241314       -2.04858144264120
C           -3.43810281809278        3.11852653435425       -3.25250699083057
C           -2.47132648348961        2.65035994802015       -4.12818742806458
N           -1.70826953063146        1.60270022815414       -3.86342726374493
C           -1.87610509448739        0.97910936392039       -2.71348947562374
C           -1.71633916822553        0.01516106081804        0.07798745235630
C           -0.57688156777163        0.82699825295378        0.08497617699624
C            0.61525210690123        0.40779527662991        0.63848796991076
C            0.66779779970646       -0.86319695999361        1.19101177482220
C           -0.48454799544927       -1.67940370426372        1.22845092483123
C           -1.67554545763608       -1.23416918177339        0.67483827237136
C           -0.10659688180902       -2.88637140228377        1.90914334129600
C           -0.78663679928342       -4.05326849704572        2.22999698730803
C           -0.10235775466765       -5.05785070422644        2.88486770328521
C            1.24583758427101       -4.91528817473138        3.20512141019070
C            1.94412445442787       -3.76381229234952        2.89466633478975
C            1.25571141468988       -2.74143815264620        2.25814608197676
N            1.71181073304497       -1.51365662899165        1.81710454131536
C            3.01564644967523       -1.02375108479262        1.96591602440307
C            3.62603571422715       -1.03145192578619        3.21752336957845
C            4.91874019803197       -0.55962887866922        3.35265264581752
C            5.60879750460544       -0.07102258177639        2.25875191113948
C            5.00502654165606       -0.06625658948539        1.00299031848013
N            5.70981579842686        0.40136152683542       -0.11215313633277
C            6.99212299433657        0.02521686952719       -0.46731471388847
C            7.83991148815253       -0.89918674859345        0.12558402084277
C            9.07598660918048       -1.10791067062811       -0.45598179768681
C            9.46412126608604       -0.42462509018805       -1.60601958433850
C            8.61420327878653        0.47574331246547       -2.21636455795578
C            7.36662880972978        0.70192063689981       -1.65037872678472
C            6.25102708848256        1.52712342898484       -2.02040768834873
C            6.02739975536976        2.41727517379081       -3.06247378736811
C            4.81774757915464        3.07994226382420       -3.11913306822733
C            3.84538299869329        2.87825506237601       -2.14271163124204
C            4.04826739816003        2.00077870895035       -1.09504705822637
C            5.24908635580280        1.30883792018030       -1.04783479444332
C            3.70778399338759       -0.54584143489005        0.85892622974401
C           -4.02111932945333       -0.53526177618679       -0.82811543630705
C           -3.92095994649312       -1.53610896180540       -1.73456964578538
C           -4.98746092306960       -2.45600202449591       -1.91671868629555
C           -4.82164291075826       -3.57326703791011       -2.92119501937784
C           -3.61749045861065       -4.43847045902001       -2.51072423892706
C           -4.56737988766394       -2.96781996714794       -4.31207068978235
C           -6.05026766160552       -4.48224321584945       -3.01563247714514
C           -6.16127232296069       -2.28038398695891       -1.13752074720889
C           -6.29581065408563       -1.28006495393103       -0.22479595184708
C           -5.21668901557078       -0.35958544242056       -0.02351997906936
H           -4.89766963487583        3.95110349340317        4.82767070265060
H           -4.25857608381966        5.57235268443072        4.58356594715917
H           -5.60202524923591        5.01263806256247        3.59466806219315
H           -4.28300363630699        5.57299436964346        1.50404494704845
H           -2.62017301674698        5.01682586318605        1.32547413184114
H           -3.02186556645460        6.19493023192977        2.57302019166667
H           -2.00226617079278        4.67561823351763        4.34525113277601
H           -1.59861632460409        3.48439909529074        3.11018154753278
H           -2.56598820410958        3.00829774412746        4.50258861400674
H           -6.09081288906999        2.82071450458827        3.26105750505707
H           -6.86186039259386        0.88296428997372        2.01311183933873
H           -2.34740232662543        2.79904614435535        1.12743070502859
H           -4.36148725728578        2.78711715702268       -1.34187697996258
H           -4.04280888399809        3.97589706618785       -3.50621131875322
H           -2.29609693066257        3.12784260093259       -5.08324395930692
H           -1.22072172949229        0.13401033549565       -2.54249960748555
H           -0.62793447322549        1.80809230591716       -0.36450779651830
H            1.47512118056343        1.05932818457327        0.64990199001033
H           -2.55759983910798       -1.85537057654052        0.70879034981150
H           -1.82720308625557       -4.16795204229426        1.96647637070532
H           -0.61254900046084       -5.97278785231597        3.14662500845289
H            1.75857260176908       -5.72446269699346        3.70386485626152
H            2.99346812008885       -3.67102123913773        3.13085799066065
H            3.07913169795640       -1.39122546343290        4.07532964179787
H            5.38842031947315       -0.55834857497207        4.32481671054191
H            6.60767338275412        0.32112332054580        2.37115393887907
H            7.54290173871087       -1.44988706959948        1.00539349340495
H            9.75467152383228       -1.82021982221836       -0.01036856516571
H           10.44001332883041       -0.61325557316354       -2.02797916383940
H            8.90642401796149        0.99227194167245       -3.11812816862949
H            6.78887327367689        2.58604233135330       -3.80882416311021
H            4.62123495988806        3.77198371526944       -3.92423373324724
H            2.91332546761642        3.42022801563729       -2.20408807482154
H            3.29708874309807        1.87122563935569       -0.33181153101751
H            3.24856373904763       -0.57670810777176       -0.11754446300926
H           -3.01904947228313       -1.63875981956757       -2.31913469600801
H           -2.70141169358363       -3.85543514964112       -2.47881690858755
H           -3.48128812402308       -5.25001428223319       -3.22239684771851
H           -3.78282477856065       -4.86771997489226       -1.52450486565594
H           -4.44870875806957       -3.76070857208996       -5.04758683920784
H           -5.40809266837243       -2.34373813589291       -4.60822848466278
H           -3.67005572204827       -2.35568710973011       -4.32305485078531
H           -5.86722328386534       -5.26223971025457       -3.75208563263933
H           -6.25675331115703       -4.96365957564096       -2.06240088217501
H           -6.92810221164610       -3.92304483455573       -3.33128211072219
H           -6.98392053642451       -2.96438688029204       -1.27165959299600
H           -7.20199306553452       -1.16788876771168        0.35069007213004

 projected vibrational frequencies (cm⁻¹)
eigval :       -0.00     0.00     0.00     0.00     0.00     0.00
eigval :        6.29     9.82    14.75    16.03    16.76    24.70
eigval :       28.26    33.56    37.05    38.41    47.79    52.51
eigval :       56.16    62.27    70.80    80.94    85.87    99.29
eigval :      103.14   106.19   123.37   129.76   137.26   143.71
eigval :      156.03   172.45   172.95   174.80   176.23   192.61
eigval :      199.82   210.60   217.00   218.56   228.10   236.21
eigval :      239.33   249.25   260.72   267.86   271.78   274.17
eigval :      278.45   301.71   305.21   306.49   315.35   319.94
eigval :      322.39   325.94   333.18   344.60   350.77   355.78
eigval :      364.28   369.05   379.92   384.08   392.98   396.29
eigval :      405.09   421.84   422.63   423.08   427.31   432.59
eigval :      439.72   444.40   446.92   452.02   473.42   476.76
eigval :      502.18   514.93   515.03   520.65   531.99   533.54
eigval :      540.88   550.10   559.87   561.48   580.38   582.63
eigval :      590.98   593.31   597.43   606.29   610.91   616.55
eigval :      621.42   637.40   651.20   662.74   670.99   674.15
eigval :      675.69   679.09   689.40   693.98   696.98   707.85
eigval :      708.78   713.15   750.36   760.01   763.14   766.23
eigval :      767.25   770.45   775.19   779.32   786.89   797.53
eigval :      805.07   818.76   862.28   863.27   863.99   869.97
eigval :      870.04   872.57   875.08   876.92   892.48   894.69
eigval :      894.89   896.02   898.35   899.91   903.41   904.08
eigval :      907.27   907.95   908.58   911.43   915.91   921.49
eigval :      923.15   923.77   925.98   927.68   930.23   933.45
eigval :      955.02   955.23   959.75   960.24   960.55   962.10
eigval :      962.27   968.12   997.41  1005.18  1009.94  1017.95
eigval :     1028.21  1028.48  1030.98  1032.76  1033.02  1069.71
eigval :     1071.66  1073.99  1080.00  1088.57  1096.99  1111.97
eigval :     1116.29  1121.13  1121.78  1127.81  1142.27  1149.25
eigval :     1154.36  1168.09  1170.90  1171.04  1176.70  1178.24
eigval :     1180.77  1180.96  1188.26  1195.14  1200.50  1202.51
eigval :     1204.24  1211.06  1211.43  1228.79  1231.73  1232.95
eigval :     1235.32  1237.49  1244.98  1251.31  1255.20  1259.58
eigval :     1267.25  1273.03  1283.92  1288.59  1294.62  1295.38
eigval :     1300.03  1301.63  1308.23  1317.60  1320.84  1345.21
eigval :     1352.90  1354.69  1358.47  1359.96  1362.74  1376.28
eigval :     1378.01  1391.51  1401.40  1402.26  1402.57  1403.98
eigval :     1404.67  1418.86  1420.89  1424.67  1426.39  1426.67
eigval :     1427.59  1445.99  1464.29  1471.94  1476.13  1478.68
eigval :     1479.28  1485.46  1486.16  1488.41  1490.20  1490.28
eigval :     1493.06  1493.36  1499.61  1500.31  1503.70  1503.82
eigval :     1513.95  1514.01  1519.19  1519.31  1540.23  1557.86
eigval :     1565.44  1566.98  1571.34  1575.17  1576.40  1582.41
eigval :     1586.10  1589.87  1597.38  1599.96  1611.56  1615.44
eigval :     1633.69  3020.68  3021.38  3021.49  3022.37  3026.07
eigval :     3026.38  3028.68  3029.27  3029.97  3030.28  3034.81
eigval :     3035.26  3037.53  3037.77  3046.18  3047.72  3048.15
eigval :     3049.57  3051.46  3058.34  3069.88  3076.61  3077.41
eigval :     3077.73  3079.38  3081.11  3082.17  3082.75  3083.76
eigval :     3084.00  3085.13  3085.19  3086.06  3088.40  3089.33
eigval :     3089.69  3093.13  3093.32  3094.61  3096.44  3096.93
eigval :     3099.26  3100.40  3101.01  3105.12  3108.06  3108.76

   temp. (K)  partition function   enthalpy   heat capacity  entropy
                                   cal/mol     cal/K/mol   cal/K/mol   J/K/mol
 298.15  VIB  0.131E+25            30399.744    189.495    189.173
         ROT  0.146E+09              888.752      2.981     40.342
         INT  0.191E+33            31288.496    192.475    229.516
         TR   0.204E+29             1481.254      4.968     45.751
         TOT                       32769.7498   197.4436   275.2661  1151.7132

       T/K    H(0)-H(T)+PV         H(T)/Eh          T*S/Eh         G(T)/Eh
   ------------------------------------------------------------------------
    298.15    0.522219E-01    0.900769E+00    0.130788E+00    0.769982E+00
   ------------------------------------------------------------------------

         :::::::::::::::::::::::::::::::::::::::::::::::::::::
         ::                  THERMODYNAMIC                  ::
         :::::::::::::::::::::::::::::::::::::::::::::::::::::
         :: total free energy        -151.901965928565 Eh   ::
         ::.................................................::
         :: total energy             -152.671947490954 Eh   ::
         :: zero point energy           0.848547430255 Eh   ::
         :: G(RRHO) w/o ZPVE           -0.078565867865 Eh   ::
         :: G(RRHO) contrib.            0.769981562389 Eh   ::
         :::::::::::::::::::::::::::::::::::::::::::::::::::::

           -------------------------------------------------
          | TOTAL ENERGY             -152.671947490954 Eh   |
          | TOTAL ENTHALPY           -151.771178140333 Eh   |
          | TOTAL FREE ENERGY        -151.901965928565 Eh   |
          | GRADIENT NORM               0.000098092757 Eh/α |
           -------------------------------------------------

 * finished run on 2025/08/24 at 21:50:43.462
