   * xtb version 6.7.1 (edcfbbe) compiled by 'albert@albert-system' on 2024-07-22

   ID    Z sym.   atoms
    1    6 C      1-15, 17-29, 31-35, 37-59
    2    7 N      16, 30, 36
    3    1 H      60-106

          program call               : xtb data2507/gas/mCP-Py/mCP-Py_gas_S0_finalOpt.xtbopt.xyz --gfn 2 --spinpol --tblite --uhf 2 --ohess vtight --parallel 40 --molden --ceasefiles --namespace data2507/gas/mCP-Py/mCP-Py_gas_T1_preOpt
 * total energy  :  -152.6645179 Eh     change        0.4708909E-08 Eh
 * total energy  :  -152.6658325 Eh     change       -0.1314599E-02 Eh
 * total energy  :  -152.6661563 Eh     change       -0.3237962E-03 Eh
 * total energy  :  -152.6662151 Eh     change       -0.5881004E-04 Eh
 * total energy  :  -152.6662647 Eh     change       -0.4953064E-04 Eh
 * total energy  :  -152.6662834 Eh     change       -0.1868412E-04 Eh
 * total energy  :  -152.6662988 Eh     change       -0.1542632E-04 Eh
 * total energy  :  -152.6663080 Eh     change       -0.9208690E-05 Eh
 * total energy  :  -152.6663136 Eh     change       -0.5617050E-05 Eh
 * total energy  :  -152.6663190 Eh     change       -0.5357560E-05 Eh
 * total energy  :  -152.6663603 Eh     change        0.4318269E-07 Eh
 * total energy  :  -152.6663603 Eh     change        0.4773574E-07 Eh
 * total energy  :  -152.6663605 Eh     change       -0.1618918E-06 Eh
 * total energy  :  -152.6663607 Eh     change       -0.2074402E-06 Eh
 * total energy  :  -152.6663608 Eh     change       -0.1077026E-06 Eh
 * total energy  :  -152.6663610 Eh     change       -0.1980164E-06 Eh
 * total energy  :  -152.6663607 Eh     change        0.2616078E-06 Eh
 * total energy  :  -152.6663610 Eh     change       -0.2537248E-06 Eh
 * total energy  :  -152.6663610 Eh     change       -0.4934543E-07 Eh
   *** GEOMETRY OPTIMIZATION CONVERGED AFTER 52 ITERATIONS ***

 final structure:
================
106
 xtb: 6.7.1 (edcfbbe)
C           -4.47822973752433        4.81119650504783        4.07396287672342
C           -3.49686087799982        4.26153740076816        3.03527124907801
C           -3.20292971368048        5.37611715677877        2.02032832290757
C           -2.20375155679034        3.86583982191557        3.76270727349177
C           -4.03836702703758        3.04925503364586        2.29482429910642
C           -5.30059406783131        2.51299700884733        2.53919678449690
C           -5.77675087998939        1.41167838754259        1.84819249282621
C           -4.97756430451618        0.82175064998657        0.88203833964951
C           -3.70479414405568        1.35779734719993        0.62433761441365
C           -3.23796620782471        2.44519883380054        1.32027287255223
C           -3.00764314649380        0.56691365723978       -0.47200913721166
C           -2.79559302469116        1.37486216228037       -1.73003495441012
C           -3.57348768261933        2.49069068365470       -2.03283352860268
C           -3.37498208262765        3.14461640781830       -3.24187588597916
C           -2.40649554361889        2.66328916361939       -4.10345151512797
N           -1.67082029051836        1.59739276059279       -3.82232626603453
C           -1.86335606857006        0.96879044980893       -2.67800513132683
C           -1.72681739420053        0.01539945637212        0.09889327651379
C           -0.57160890620667        0.82256165768082        0.09247719506410
C            0.62305816145562        0.37365186991625        0.63373989505016
C            0.66000119540819       -0.89529547233798        1.18618777522240
C           -0.51889261491108       -1.70572325623017        1.25347133428051
C           -1.70817526646415       -1.23423563674872        0.70009124346513
C           -0.15933602559394       -2.89537820225927        1.94356554139682
C           -0.85455184862046       -4.05219592195862        2.30254575326421
C           -0.16517386581184       -5.06680861155899        2.94778512277574
C            1.18997661298148       -4.95813347321021        3.23273739424439
C            1.90508616803893       -3.80550640335176        2.89055474741113
C            1.22020241341771       -2.78189272307377        2.27177914780986
N            1.69259974517065       -1.55743911760934        1.80595999208728
C            2.99864867446177       -1.10187402629527        1.93449819775209
C            3.65987061637149       -1.19298341553915        3.17899892916924
C            4.95939568017412       -0.75028963220354        3.29606603672766
C            5.63639699221956       -0.22793660144572        2.20603053772203
C            4.98487150161630       -0.14499176949383        0.95832205539365
N            5.67618466638979        0.34711298798731       -0.15102992048149
C            6.93735358575165       -0.05542100278601       -0.54972611331636
C            7.76779317996503       -1.02359623270025       -0.00692969849488
C            8.98808511857452       -1.24930026615959       -0.62175778811328
C            9.37010866492788       -0.53664216329797       -1.75621206461762
C            8.53563528032359        0.41043906646633       -2.31886160558293
C            7.30461673981354        0.65279770703401       -1.72125982950938
C            6.20619112311357        1.51692833487904       -2.03817395551526
C            5.97884770486880        2.44596100593905       -3.04673998036012
C            4.78795738693680        3.14679549937271       -3.04643206770966
C            3.83692928859273        2.94835484760947       -2.04807207061989
C            4.04204831942527        2.02796569404511       -1.03431628231577
C            5.21923502961134        1.29740760730422       -1.04503927975896
C            3.67218536732731       -0.56814150562477        0.83497581745217
C           -4.04767833542386       -0.49247602344508       -0.78262793799577
C           -3.97557018234773       -1.50722001505990       -1.70539420275071
C           -5.05148487990925       -2.38489115302256       -1.86492912329906
C           -4.93457001491379       -3.50626981671996       -2.88436443218698
C           -3.74842056061688       -4.40347276172267       -2.50123341169418
C           -4.69940184143903       -2.89685836599580       -4.27406869365050
C           -6.18970192889463       -4.38038424753106       -2.95452178504263
C           -6.18475160338013       -2.19253226296604       -1.07653634282206
C           -6.26899249353778       -1.16966927241066       -0.14740687695342
C           -5.19361121366585       -0.30976263678577        0.00838543694337
H           -4.70250046269310        4.06568950457279        4.83335968989754
H           -4.03511500380298        5.67252980576322        4.57004799436915
H           -5.40501961125705        5.13461711297903        3.60561278253300
H           -4.11210059926915        5.64897378739908        1.48808576051778
H           -2.46186344427052        5.06299774531536        1.29000778366566
H           -2.82485341160438        6.25890972979642        2.53175542234648
H           -1.80605355179987        4.71788952371233        4.31025812867194
H           -1.44338162546042        3.52377012673990        3.06606914702263
H           -2.40185814237781        3.06247888303170        4.46935893939811
H           -5.93936698562927        2.95396085336836        3.28702524647679
H           -6.75853410006106        1.01695684020058        2.06446662466597
H           -2.25417353838672        2.83230404111485        1.10454966684356
H           -4.31698897419530        2.84187747230276       -1.33244781694305
H           -3.96014172626462        4.01287029160120       -3.50328446451142
H           -2.20259390179375        3.13875682700470       -5.05308504806319
H           -1.23298261999524        0.10630742448745       -2.50078523391532
H           -0.61160439976985        1.80321315251637       -0.35500313063319
H            1.49283807866415        1.01123487999122        0.63496498517275
H           -2.60110174679771       -1.83813088545513        0.74132551973377
H           -1.90466616971564       -4.14958451019420        2.07498983871988
H           -0.69020069335473       -5.96846393444631        3.22810360734215
H            1.70453881808494       -5.77213746684841        3.71863116399741
H            2.96319033155818       -3.73916055571547        3.09254405457901
H            3.12150462557237       -1.56402868795458        4.03652171162360
H            5.45596275955189       -0.80221557647007        4.25369441933770
H            6.64265523728871        0.14524501020113        2.30644472092655
H            7.47070836915555       -1.59664054657357        0.85826967620586
H            9.65338643684991       -1.99665700095647       -0.21624100865807
H           10.33074270771701       -0.73856049765202       -2.20641258085955
H            8.82750138940681        0.95005801418265       -3.20694979276936
H            6.72267637241842        2.61566036881435       -3.81025365418426
H            4.59144587932421        3.86901314513594       -3.82477352886304
H            2.92327948102668        3.52315526392943       -2.06320564076523
H            3.31039525045050        1.89873606441206       -0.25242031428970
H            3.18643612595950       -0.54481040857991       -0.12897674996931
H           -3.08130336217086       -1.61996846337170       -2.29942771717926
H           -2.81535875146153       -3.84700342916055       -2.49263672189789
H           -3.65124445687444       -5.22053871562257       -3.21305880561270
H           -3.90147348837434       -4.82603653877837       -1.51011111601874
H           -4.62534074617149       -3.68475218947406       -5.02076360510534
H           -5.52732008968757       -2.24353605505906       -4.54230410300976
H           -3.78361055231420       -2.31313875972202       -4.30388487631006
H           -6.04567930730254       -5.16043366346097       -3.69953664244209
H           -6.38649925559609       -4.86195444908267       -1.99937333824422
H           -7.05894285181043       -3.79518292820467       -3.24583827042508
H           -7.03168088876484       -2.85120640190878       -1.17936467544555
H           -7.16214543353709       -1.04805848959413        0.44763561413003

 projected vibrational frequencies (cm⁻¹)
eigval :       -0.00    -0.00    -0.00    -0.00     0.00     0.00
eigval :        6.49     9.75    14.94    17.05    20.48    26.08
eigval :       29.21    33.47    36.47    39.19    48.99    52.33
eigval :       58.51    64.29    77.31    80.98    85.68    98.71
eigval :      102.57   117.88   128.46   138.60   142.76   144.83
eigval :      155.03   173.40   176.07   177.02   183.98   190.91
eigval :      201.64   214.49   216.93   218.98   226.86   237.53
eigval :      239.93   248.87   261.31   266.08   272.56   279.98
eigval :      283.26   300.35   307.51   312.82   319.76   321.78
eigval :      326.15   332.70   341.74   349.93   356.82   362.68
eigval :      363.91   368.54   375.80   383.53   386.69   404.10
eigval :      411.22   417.33   420.26   424.91   429.19   435.29
eigval :      439.57   449.60   452.09   453.40   476.58   481.62
eigval :      500.82   506.78   514.91   528.49   530.81   531.22
eigval :      540.76   550.54   553.93   564.75   575.89   578.81
eigval :      582.53   587.42   602.03   612.63   617.32   619.07
eigval :      623.23   634.83   645.23   650.87   658.22   666.73
eigval :      668.75   677.88   685.00   690.71   701.83   709.48
eigval :      714.36   719.65   722.27   746.03   754.52   760.17
eigval :      761.91   767.17   772.82   775.66   784.35   799.20
eigval :      814.84   825.24   828.22   832.41   845.21   855.35
eigval :      862.23   863.32   866.48   868.77   873.31   879.36
eigval :      880.04   884.13   886.23   886.75   891.13   891.68
eigval :      894.45   897.77   900.69   902.41   906.12   907.82
eigval :      908.92   910.40   912.95   914.22   921.79   929.06
eigval :      954.52   959.93   960.06   960.84   962.33   963.15
eigval :      963.31   963.78   970.04   985.80  1002.05  1009.54
eigval :     1012.96  1022.67  1035.05  1035.39  1035.52  1036.48
eigval :     1061.12  1065.81  1071.36  1085.28  1092.94  1097.75
eigval :     1108.77  1118.73  1124.63  1127.34  1132.12  1137.64
eigval :     1139.94  1142.49  1155.28  1164.77  1167.04  1174.89
eigval :     1176.10  1177.24  1181.81  1189.18  1193.41  1205.71
eigval :     1211.62  1226.01  1226.19  1227.43  1228.36  1229.86
eigval :     1233.44  1234.05  1235.30  1237.33  1241.87  1250.92
eigval :     1255.81  1259.20  1266.91  1280.98  1283.86  1285.62
eigval :     1289.22  1292.18  1299.00  1308.47  1315.23  1325.51
eigval :     1327.57  1331.17  1342.41  1350.30  1363.28  1365.56
eigval :     1370.39  1388.14  1390.02  1403.89  1404.59  1405.88
eigval :     1406.39  1406.74  1407.33  1415.07  1420.57  1424.21
eigval :     1429.05  1429.65  1430.05  1432.82  1435.96  1440.03
eigval :     1445.47  1451.71  1460.24  1461.37  1462.07  1474.97
eigval :     1481.06  1482.83  1492.39  1492.41  1494.76  1494.96
eigval :     1500.59  1501.24  1502.11  1505.88  1507.21  1515.03
eigval :     1515.25  1516.15  1520.04  1520.51  1533.50  1538.85
eigval :     1547.91  1552.06  1572.15  1573.00  1577.64  1583.46
eigval :     1599.83  3021.18  3021.49  3022.43  3022.87  3026.11
eigval :     3026.12  3028.96  3029.12  3030.33  3030.40  3034.71
eigval :     3035.14  3037.83  3038.05  3045.67  3046.06  3047.32
eigval :     3049.01  3050.47  3063.34  3076.27  3076.94  3077.54
eigval :     3078.12  3079.68  3080.34  3082.54  3083.58  3086.12
eigval :     3086.68  3086.85  3089.41  3090.92  3091.12  3092.56
eigval :     3093.70  3093.84  3095.38  3097.47  3099.23  3100.51
eigval :     3101.41  3102.15  3104.14  3110.19  3112.87  3113.21

   temp. (K)  partition function   enthalpy   heat capacity  entropy
                                   cal/mol     cal/K/mol   cal/K/mol   J/K/mol
 298.15  VIB  0.592E+24            30382.392    190.835    188.216
         ROT  0.145E+09              888.752      2.981     40.330
         INT  0.860E+32            31271.144    193.816    228.546
         TR   0.204E+29             1481.254      4.968     45.751
         TOT                       32752.3979   198.7841   274.2965  1147.6565

       T/K    H(0)-H(T)+PV         H(T)/Eh          T*S/Eh         G(T)/Eh
   ------------------------------------------------------------------------
    298.15    0.521943E-01    0.896467E+00    0.130327E+00    0.766140E+00
   ------------------------------------------------------------------------

         :::::::::::::::::::::::::::::::::::::::::::::::::::::
         ::                  THERMODYNAMIC                  ::
         :::::::::::::::::::::::::::::::::::::::::::::::::::::
         :: total free energy        -151.900221184873 Eh   ::
         ::.................................................::
         :: total energy             -152.666361019887 Eh   ::
         :: zero point energy           0.844272677133 Eh   ::
         :: G(RRHO) w/o ZPVE           -0.078132842118 Eh   ::
         :: G(RRHO) contrib.            0.766139835014 Eh   ::
         :::::::::::::::::::::::::::::::::::::::::::::::::::::

           -------------------------------------------------
          | TOTAL ENERGY             -152.666361019887 Eh   |
          | TOTAL ENTHALPY           -151.769894074414 Eh   |
          | TOTAL FREE ENERGY        -151.900221184873 Eh   |
          | GRADIENT NORM               0.000118581716 Eh/α |
           -------------------------------------------------

 * finished run on 2025/08/24 at 21:33:04.819
