   * xtb version 6.7.1 (edcfbbe) compiled by 'albert@albert-system' on 2024-07-22

   ID    Z sym.   atoms
    1    6 C      1-15, 17-29, 31-35, 37-59
    2    7 N      16, 30, 36
    3    1 H      60-106

          program call               : xtb data2507/gas/mCP-Py/mCP-Py_gas_S0_crest.xyz --gfn 2 --ohess vtight --parallel 40 --molden --ceasefiles --namespace data2507/gas/mCP-Py/mCP-Py_gas_S0_finalOpt
          :  Hamiltonian                  GFN2-xTB          :
 * total energy  :  -152.7757306 Eh     change       -0.2108948E-08 Eh
 * total energy  :  -152.7757314 Eh     change       -0.7953641E-06 Eh
 * total energy  :  -152.7757314 Eh     change        0.2923315E-07 Eh
 * total energy  :  -152.7757326 Eh     change       -0.1205010E-05 Eh
 * total energy  :  -152.7757353 Eh     change       -0.2758456E-05 Eh
 * total energy  :  -152.7757374 Eh     change       -0.2117224E-05 Eh
 * total energy  :  -152.7757393 Eh     change       -0.1824009E-05 Eh
 * total energy  :  -152.7757411 Eh     change       -0.1884787E-05 Eh
 * total energy  :  -152.7757436 Eh     change       -0.2482478E-05 Eh
 * total energy  :  -152.7757467 Eh     change       -0.3072964E-05 Eh
 * total energy  :  -152.7758052 Eh     change       -0.4292946E-06 Eh
 * total energy  :  -152.7758055 Eh     change       -0.3440883E-06 Eh
 * total energy  :  -152.7758058 Eh     change       -0.3292065E-06 Eh
 * total energy  :  -152.7758063 Eh     change       -0.4382605E-06 Eh
 * total energy  :  -152.7758069 Eh     change       -0.6540317E-06 Eh
 * total energy  :  -152.7758077 Eh     change       -0.7354415E-06 Eh
 * total energy  :  -152.7758084 Eh     change       -0.7251869E-06 Eh
 * total energy  :  -152.7758092 Eh     change       -0.7796425E-06 Eh
 * total energy  :  -152.7758092 Eh     change       -0.7105939E-08 Eh
   *** GEOMETRY OPTIMIZATION CONVERGED AFTER 68 ITERATIONS ***

 final structure:
================
106
 xtb: 6.7.1 (edcfbbe)
C           -4.49340857688794        4.84492210607169        4.06894055167929
C           -3.51567926216435        4.29460201435087        3.02720470852767
C           -3.23230168525751        5.40577442486032        2.00580414149697
C           -2.21719869056604        3.90676236316962        3.74897799487509
C           -4.05593665496589        3.07616928541186        2.29479258937872
C           -5.31065895782972        2.53411587175182        2.55336789505308
C           -5.78417318148377        1.42346816735511        1.87172294978163
C           -4.98865495648484        0.83843164682273        0.90436533742318
C           -3.72347840476187        1.37598755094541        0.63135740378774
C           -3.26080270842168        2.47407370083036        1.31649444610298
C           -3.02539729492131        0.58127145992699       -0.45650009776548
C           -2.80809142957839        1.37655586133690       -1.72352653183545
C           -3.56722096343381        2.50147301466279       -2.02361965735817
C           -3.36717138999019        3.14998564663580       -3.23105263928598
C           -2.41943925680742        2.64130589482464       -4.10461313676724
N           -1.69732717650040        1.56663599419150       -3.83616275644003
C           -1.88842938919319        0.95614528306209       -2.68231312541616
C           -1.73366788475583        0.01608378871324        0.09911079987463
C           -0.58364133944679        0.81252524780130        0.10710257792746
C            0.60914555818588        0.36901429649871        0.64047073203380
C            0.65196731330706       -0.91168157989095        1.16934036760944
C           -0.50923494702976       -1.71478761338261        1.20102877566312
C           -1.70113374785351       -1.24529426548923        0.66810356423891
C           -0.13943468591983       -2.94032174681352        1.85139379827990
C           -0.83038372139668       -4.10631070072776        2.15277622491353
C           -0.15203634143205       -5.13321042435342        2.77782893151618
C            1.20083116567462       -5.01331538676799        3.08824050479329
C            1.90958892048649       -3.86331236496194        2.79748810500571
C            1.22764112923279       -2.81881591066556        2.19042548771358
N            1.69443623694405       -1.58748217758215        1.77158558186434
C            3.00366008191112       -1.11322201505145        1.92420586917428
C            3.61924402349111       -1.15376925326625        3.17262104819957
C            4.91629362608556       -0.69569133144554        3.31291648715718
C            5.60577188621746       -0.18834433242704        2.22724189380370
C            4.99716086505839       -0.15142550054634        0.97445527491096
N            5.70223574135840        0.33477248783680       -0.13281601488888
C            6.98039673271361       -0.04385027673097       -0.49976862445078
C            7.82205257973567       -0.98819644296843        0.07006132588276
C            9.05538610796490       -1.19307455804043       -0.51855024745010
C            9.44672650312576       -0.48670935948616       -1.65349295316170
C            8.60264651958395        0.43376285737740       -2.24149897149696
C            7.35793507058371        0.65668053275795       -1.66792907036130
C            6.24851962461689        1.49950664143192       -2.01603238242090
C            6.02997128933640        2.41540651954292       -3.03664951676581
C            4.82618469777171        3.08996240689517       -3.07441305462547
C            3.85476759747658        2.87445030036082       -2.09998407686798
C            4.05253408806712        1.97110598189003       -1.07358096968413
C            5.24720815101541        1.26754379584512       -1.04589095011714
C            3.69548627315760       -0.61715967848981        0.82502322964758
C           -4.06629109387384       -0.48021756274028       -0.76270281930371
C           -3.99847628388410       -1.49584269443447       -1.68634981758676
C           -5.06975006497056       -2.38049493646978       -1.83207064991178
C           -4.95573711384316       -3.50327513029836       -2.85102446575314
C           -3.76069080228507       -4.39224100845548       -2.47700050922382
C           -4.73756033192864       -2.89475320416361       -4.24364762529219
C           -6.20630970976649       -4.38489831836708       -2.90749789343317
C           -6.19300668660212       -2.19687493495974       -1.03167869504168
C           -6.27268902066390       -1.17083291710342       -0.10261412644808
C           -5.20380262714584       -0.30499015597277        0.03598325268606
H           -4.70929182389236        4.10261152399877        4.83387356249036
H           -4.05168820331899        5.71125005238391        4.55751904773260
H           -5.42469065316300        5.16110227935073        3.60453276709795
H           -4.14577462665496        5.67299710692240        1.47806314405958
H           -2.49435250507196        5.09294353913809        1.27221794860433
H           -2.85463217772400        6.29215139293113        2.51129470795459
H           -1.82013457592397        4.76227855443762        4.29155736444543
H           -1.45921549649695        3.56541897629347        3.04936534606473
H           -2.40819144204119        3.10497631777806        4.45939570334782
H           -5.94791562988213        2.97569393485519        3.30203163480746
H           -6.76292508584042        1.02578936931672        2.09655217014930
H           -2.28144415177380        2.86676592588110        1.08984474481610
H           -4.30337845978398        2.86527943197471       -1.32086341483515
H           -3.93887490681619        4.02879660796405       -3.48766222781092
H           -2.22625504915483        3.10787769617067       -5.06168090657030
H           -1.26519034662670        0.08779291189491       -2.50812665208621
H           -0.62472025016161        1.80133849111429       -0.32618143011326
H            1.47649329233316        1.01044077012649        0.65423762042504
H           -2.58768912429483       -1.85982918895636        0.69950968393275
H           -1.87471274091934       -4.20280158944799        1.89672483092499
H           -0.67025074729218       -6.04814269258380        3.02344076252937
H            1.70868107313240       -5.83966047962793        3.56334453994300
H            2.96209270958821       -3.78795670903818        3.02582351592749
H            3.07288117270062       -1.52845121925068        4.02438739190882
H            5.38988700235076       -0.71979162750100        4.28290022425553
H            6.60813264056111        0.19352877286674        2.34400688386437
H            7.52238707018263       -1.55644710902774        0.93772227825024
H            9.72942080040168       -1.92046792603950       -0.09057979620004
H           10.42047007895261       -0.67298381663284       -2.08141845614287
H            8.89729625368270        0.96854354368400       -3.13177430229584
H            6.79082807445241        2.59460263615275       -3.78120108101436
H            4.63374226727368        3.80222185393447       -3.86271644924924
H            2.92761767151065        3.42633909419100       -2.14594298781493
H            3.30247442377036        1.83052824517750       -0.31118250769265
H            3.23224095918302       -0.62268196691233       -0.15002898361196
H           -3.10995734708709       -1.60406970168429       -2.28955477034465
H           -2.83101252775727       -3.83005986564698       -2.47831404486530
H           -3.66512514553758       -5.21012038956912       -3.18806848939639
H           -3.90209761847097       -4.81401064969873       -1.48374507472337
H           -4.66534276663904       -3.68358102532490       -4.98951552859055
H           -5.57232517366647       -2.24753499946626       -4.50541563103272
H           -3.82600922033942       -2.30506642879912       -4.28340138166120
H           -6.06539894394791       -5.16452518374554       -3.65351170690245
H           -6.39044605546811       -4.86712291366964       -1.95012899650784
H           -7.08197233589202       -3.80502354765865       -3.19012888921932
H           -7.03670940446838       -2.86142531586319       -1.12206585267676
H           -7.15961058889799       -1.05484994417463        0.50288872049653

          :  Hamiltonian                  GFN2-xTB          :
         :: gradient norm              0.000060780858 Eh/a0 ::
         :: HOMO-LUMO gap              3.024968102204 eV    ::
         :: SCC energy              -155.568607641636 Eh    ::
         :: -> dispersion             -0.149097908841 Eh    ::
         :: repulsion energy           2.792798469582 Eh    ::

    * Orbital Energies and Occupations

         #    Occupation            Energy/Eh            Energy/eV
      -------------------------------------------------------------
         1        2.0000           -0.6776445             -18.4396
       ...           ...                  ...                  ...
       131        2.0000           -0.4089428             -11.1279
       132        2.0000           -0.4080582             -11.1038
       133        2.0000           -0.4053206             -11.0293
       134        2.0000           -0.4040944             -10.9960
       135        2.0000           -0.3981731             -10.8348
       136        2.0000           -0.3949644             -10.7475
       137        2.0000           -0.3913636             -10.6495
       138        2.0000           -0.3784288             -10.2976
       139        2.0000           -0.3774231             -10.2702
       140        2.0000           -0.3697560             -10.0616
       141        2.0000           -0.3649147              -9.9298
       142        2.0000           -0.3626777              -9.8690
       143        2.0000           -0.3595745              -9.7845 (HOMO)
       144                         -0.2484090              -6.7596 (LUMO)
       145                         -0.2469405              -6.7196
       146                         -0.2460620              -6.6957
       147                         -0.2423236              -6.5940
       148                         -0.2388828              -6.5003
       149                         -0.2383547              -6.4860
       150                         -0.2330902              -6.3427
       151                         -0.2236933              -6.0870
       152                         -0.2206741              -6.0048
       153                         -0.2171702              -5.9095
       154                         -0.2124176              -5.7802
       ...                                ...                  ...
       283                          0.7474438              20.3390
      -------------------------------------------------------------
                  HL-Gap            0.1111655 Eh            3.0250 eV

     #   Z          covCN         q      C6AA      α(0)
     1   6 C        3.761    -0.107    22.588     6.775
     2   6 C        3.903     0.026    20.083     6.370
     3   6 C        3.762    -0.103    22.523     6.765
     4   6 C        3.762    -0.104    22.534     6.767
     5   6 C        2.975     0.005    27.899     8.664
     6   6 C        2.925    -0.044    29.081     8.844
     7   6 C        2.914    -0.037    28.931     8.820
     8   6 C        3.035    -0.003    28.072     8.690
     9   6 C        3.054    -0.001    27.993     8.677
    10   6 C        2.922    -0.040    29.004     8.832
    11   6 C        3.947     0.008    20.369     6.413
    12   6 C        2.977     0.009    27.820     8.652
    13   6 C        2.933    -0.018    28.468     8.750
    14   6 C        2.913    -0.040    29.000     8.831
    15   6 C        2.913     0.055    26.756     8.482
    16   7 N        1.835    -0.224    26.729     7.662
    17   6 C        2.917     0.056    26.744     8.480
    18   6 C        2.978     0.004    27.923     8.668
    19   6 C        2.928    -0.037    28.929     8.821
    20   6 C        2.909    -0.051    29.257     8.869
    21   6 C        3.077     0.044    26.922     8.507
    22   6 C        3.067    -0.017    28.375     8.735
    23   6 C        2.916    -0.039    28.969     8.826
    24   6 C        3.069    -0.016    28.343     8.729
    25   6 C        2.912    -0.032    28.800     8.800
    26   6 C        2.920    -0.040    29.005     8.832
    27   6 C        2.924    -0.033    28.826     8.805
    28   6 C        2.910    -0.051    29.264     8.870
    29   6 C        3.077     0.047    26.872     8.499
    30   7 N        2.803    -0.044    22.082     6.979
    31   6 C        2.912     0.067    26.508     8.443
    32   6 C        2.922    -0.048    29.202     8.862
    33   6 C        2.919    -0.028    28.702     8.785
    34   6 C        2.922    -0.048    29.204     8.862
    35   6 C        2.912     0.067    26.497     8.441
    36   7 N        2.802    -0.044    22.087     6.980
    37   6 C        3.074     0.046    26.881     8.501
    38   6 C        2.910    -0.051    29.269     8.871
    39   6 C        2.924    -0.033    28.832     8.806
    40   6 C        2.920    -0.041    29.007     8.832
    41   6 C        2.913    -0.033    28.812     8.802
    42   6 C        3.068    -0.016    28.344     8.730
    43   6 C        3.068    -0.016    28.350     8.731
    44   6 C        2.913    -0.032    28.805     8.801
    45   6 C        2.920    -0.040    28.989     8.829
    46   6 C        2.924    -0.032    28.800     8.801
    47   6 C        2.910    -0.050    29.231     8.865
    48   6 C        3.074     0.047    26.879     8.500
    49   6 C        2.925    -0.057    29.424     8.896
    50   6 C        3.058    -0.000    27.981     8.675
    51   6 C        2.921    -0.040    29.000     8.831
    52   6 C        2.975     0.006    27.872     8.660
    53   6 C        3.903     0.026    20.083     6.370
    54   6 C        3.762    -0.104    22.529     6.766
    55   6 C        3.762    -0.105    22.547     6.769
    56   6 C        3.761    -0.107    22.588     6.775
    57   6 C        2.925    -0.043    29.079     8.843
    58   6 C        2.914    -0.037    28.932     8.820
    59   6 C        3.035    -0.003    28.076     8.691
    60   1 H        0.925     0.036     2.505     2.475
    61   1 H        0.925     0.036     2.506     2.476
    62   1 H        0.925     0.036     2.508     2.477
    63   1 H        0.925     0.033     2.550     2.497
    64   1 H        0.925     0.035     2.513     2.479
    65   1 H        0.925     0.037     2.495     2.470
    66   1 H        0.925     0.036     2.496     2.471
    67   1 H        0.925     0.036     2.506     2.476
    68   1 H        0.925     0.033     2.541     2.493
    69   1 H        0.926     0.035     2.512     2.478
    70   1 H        0.926     0.028     2.613     2.528
    71   1 H        0.926     0.027     2.624     2.533
    72   1 H        0.926     0.034     2.526     2.485
    73   1 H        0.926     0.033     2.547     2.496
    74   1 H        0.925     0.036     2.506     2.476
    75   1 H        0.925     0.035     2.510     2.478
    76   1 H        0.926     0.028     2.619     2.531
    77   1 H        0.926     0.026     2.648     2.545
    78   1 H        0.926     0.035     2.514     2.480
    79   1 H        0.926     0.032     2.562     2.503
    80   1 H        0.926     0.029     2.606     2.524
    81   1 H        0.926     0.030     2.592     2.518
    82   1 H        0.926     0.027     2.626     2.534
    83   1 H        0.926     0.044     2.391     2.418
    84   1 H        0.926     0.041     2.435     2.440
    85   1 H        0.926     0.045     2.384     2.414
    86   1 H        0.926     0.027     2.630     2.536
    87   1 H        0.926     0.029     2.599     2.521
    88   1 H        0.926     0.028     2.609     2.526
    89   1 H        0.926     0.032     2.564     2.504
    90   1 H        0.926     0.032     2.564     2.504
    91   1 H        0.926     0.029     2.593     2.518
    92   1 H        0.926     0.031     2.578     2.511
    93   1 H        0.926     0.024     2.668     2.554
    94   1 H        0.926     0.051     2.311     2.377
    95   1 H        0.926     0.029     2.595     2.519
    96   1 H        0.925     0.037     2.487     2.466
    97   1 H        0.925     0.037     2.490     2.468
    98   1 H        0.925     0.033     2.550     2.497
    99   1 H        0.925     0.037     2.486     2.466
   100   1 H        0.925     0.033     2.549     2.497
   101   1 H        0.925     0.038     2.477     2.461
   102   1 H        0.925     0.036     2.501     2.473
   103   1 H        0.925     0.035     2.511     2.478
   104   1 H        0.925     0.035     2.511     2.478
   105   1 H        0.926     0.036     2.505     2.475
   106   1 H        0.926     0.028     2.612     2.528

molecular dipole:
                 x           y           z       tot (Debye)
 q only:        0.002       0.018       0.693
   full:       -0.225       0.172       1.004       2.652

 projected vibrational frequencies (cm⁻¹)
eigval :       -0.00    -0.00    -0.00     0.00     0.00     0.00
eigval :        6.40     9.97    15.46    17.02    20.83    26.19
eigval :       28.44    33.66    36.87    39.67    49.74    52.43
eigval :       56.84    63.10    78.88    82.02    85.67    99.74
eigval :      103.23   119.19   129.56   139.80   143.79   146.03
eigval :      156.90   174.87   178.15   178.24   185.52   194.33
eigval :      204.23   214.73   219.62   221.59   229.85   239.12
eigval :      245.02   254.16   265.45   271.85   274.20   279.94
eigval :      285.08   303.08   307.58   315.99   321.28   324.02
eigval :      330.68   337.15   346.33   353.61   358.30   365.21
eigval :      369.70   381.57   385.06   393.40   396.70   420.90
eigval :      421.99   423.50   424.76   430.39   433.75   439.99
eigval :      444.35   450.57   454.88   461.86   478.46   489.67
eigval :      515.15   520.73   529.87   531.07   532.21   540.90
eigval :      542.66   555.00   566.51   574.96   586.54   593.77
eigval :      597.92   600.47   611.35   615.16   624.40   628.83
eigval :      632.76   650.23   660.75   671.40   674.78   678.05
eigval :      689.88   690.70   699.13   707.88   709.21   718.07
eigval :      723.07   729.07   750.35   763.10   767.26   775.31
eigval :      777.50   779.39   791.30   804.80   809.14   818.68
eigval :      820.81   831.15   863.38   870.07   870.78   873.34
eigval :      876.64   885.23   887.90   889.84   894.27   896.83
eigval :      899.09   900.62   903.36   904.35   908.26   908.64
eigval :      909.63   911.04   912.97   915.09   916.11   921.59
eigval :      923.26   923.92   931.08   933.50   949.68   960.34
eigval :      960.50   962.04   962.81   963.39   963.47   966.61
eigval :      974.11   997.60  1009.05  1012.56  1015.74  1018.34
eigval :     1033.64  1035.34  1035.88  1035.90  1037.02  1069.73
eigval :     1071.73  1073.87  1097.99  1111.14  1113.17  1121.57
eigval :     1127.63  1128.21  1140.07  1144.95  1150.24  1155.99
eigval :     1168.82  1176.79  1178.59  1180.52  1181.06  1183.64
eigval :     1188.49  1195.75  1199.51  1201.59  1211.79  1227.16
eigval :     1227.25  1232.94  1233.69  1234.18  1235.57  1236.68
eigval :     1241.12  1243.93  1251.82  1255.52  1257.17  1270.52
eigval :     1283.93  1284.86  1287.39  1290.22  1300.08  1300.52
eigval :     1302.08  1310.50  1317.58  1330.02  1346.55  1353.35
eigval :     1358.72  1360.49  1363.33  1376.34  1377.49  1402.03
eigval :     1403.28  1404.53  1406.64  1407.09  1416.74  1419.64
eigval :     1421.76  1425.31  1428.30  1429.95  1430.58  1434.59
eigval :     1449.34  1453.26  1465.39  1473.43  1474.52  1478.02
eigval :     1479.74  1487.30  1488.57  1492.48  1492.52  1494.66
eigval :     1495.01  1501.41  1501.92  1506.03  1506.38  1515.10
eigval :     1515.24  1520.09  1520.34  1568.08  1569.64  1572.73
eigval :     1576.56  1577.01  1579.57  1584.17  1587.39  1590.12
eigval :     1595.68  1600.17  1601.41  1606.56  1612.10  1615.56
eigval :     1617.61  3021.43  3021.98  3022.71  3023.20  3026.15
eigval :     3026.17  3029.07  3029.57  3030.60  3031.11  3034.91
eigval :     3035.39  3038.30  3038.50  3045.74  3047.53  3049.39
eigval :     3049.76  3051.19  3058.05  3073.96  3076.56  3076.74
eigval :     3076.94  3077.79  3079.07  3080.48  3082.09  3082.15
eigval :     3084.88  3085.79  3089.12  3089.40  3089.56  3090.14
eigval :     3090.45  3093.38  3095.04  3095.88  3096.49  3097.59
eigval :     3099.14  3100.29  3100.85  3105.08  3113.75  3114.24

   temp. (K)  partition function   enthalpy   heat capacity  entropy
                                   cal/mol     cal/K/mol   cal/K/mol   J/K/mol
 298.15  VIB  0.344E+24            29925.065    187.377    185.678
         ROT  0.146E+09              888.752      2.981     40.337
         INT  0.502E+32            30813.818    190.358    226.015
         TR   0.204E+29             1481.254      4.968     45.751
         TOT                       32295.0716   195.3264   271.7654  1137.0663

       T/K    H(0)-H(T)+PV         H(T)/Eh          T*S/Eh         G(T)/Eh
   ------------------------------------------------------------------------
    298.15    0.514655E-01    0.904742E+00    0.129124E+00    0.775618E+00
   ------------------------------------------------------------------------

         :::::::::::::::::::::::::::::::::::::::::::::::::::::
         ::                  THERMODYNAMIC                  ::
         :::::::::::::::::::::::::::::::::::::::::::::::::::::
         :: total free energy        -152.000191402936 Eh   ::
         ::.................................................::
         :: total energy             -152.775809172053 Eh   ::
         :: zero point energy           0.853276796434 Eh   ::
         :: G(RRHO) w/o ZPVE           -0.077659027318 Eh   ::
         :: G(RRHO) contrib.            0.775617769116 Eh   ::
         :::::::::::::::::::::::::::::::::::::::::::::::::::::

           -------------------------------------------------
          | TOTAL ENERGY             -152.775809172053 Eh   |
          | TOTAL ENTHALPY           -151.871066903172 Eh   |
          | TOTAL FREE ENERGY        -152.000191402936 Eh   |
          | GRADIENT NORM               0.000060781083 Eh/α |
          | HOMO-LUMO GAP               3.024968086414 eV   |
           -------------------------------------------------

 * finished run on 2025/08/24 at 21:32:35.429
