   * xtb version 6.7.1 (edcfbbe) compiled by 'albert@albert-system' on 2024-07-22

   ID    Z sym.   atoms
    1    6 C      1-15, 17-29, 31-35, 37-59
    2    7 N      16, 30, 36
    3    1 H      60-106

          program call               : xtb data2507/gas/mCP-Py/mCP-Py.xyz --gfn 2 --ohess vtight --parallel 40 --molden --ceasefiles --namespace data2507/gas/mCP-Py/mCP-Py_gas_S0_preOpt
          :  Hamiltonian                  GFN2-xTB          :
 * total energy  :  -152.7466211 Eh     change       -0.3106265E-08 Eh
 * total energy  :  -152.7655872 Eh     change       -0.1896608E-01 Eh
 * total energy  :  -152.7715444 Eh     change       -0.5957187E-02 Eh
 * total energy  :  -152.7734011 Eh     change       -0.1856760E-02 Eh
 * total energy  :  -152.7743385 Eh     change       -0.9374289E-03 Eh
 * total energy  :  -152.7746923 Eh     change       -0.3537452E-03 Eh
 * total energy  :  -152.7749024 Eh     change       -0.2100647E-03 Eh
 * total energy  :  -152.7750490 Eh     change       -0.1466063E-03 Eh
 * total energy  :  -152.7751361 Eh     change       -0.8710622E-04 Eh
 * total energy  :  -152.7751841 Eh     change       -0.4805313E-04 Eh
 * total energy  :  -152.7754266 Eh     change       -0.2211450E-05 Eh
 * total energy  :  -152.7754289 Eh     change       -0.2209306E-05 Eh
 * total energy  :  -152.7754310 Eh     change       -0.2125696E-05 Eh
 * total energy  :  -152.7754329 Eh     change       -0.1922182E-05 Eh
 * total energy  :  -152.7754345 Eh     change       -0.1626525E-05 Eh
 * total energy  :  -152.7754359 Eh     change       -0.1346292E-05 Eh
 * total energy  :  -152.7754371 Eh     change       -0.1198776E-05 Eh
 * total energy  :  -152.7754382 Eh     change       -0.1123619E-05 Eh
 * total energy  :  -152.7754382 Eh     change       -0.6577039E-08 Eh
   *** GEOMETRY OPTIMIZATION CONVERGED AFTER 44 ITERATIONS ***

 final structure:
================
106
 xtb: 6.7.1 (edcfbbe)
C           -5.26578604905855        5.45265496238882        2.11584662705089
C           -4.32853030992035        4.73934431005951        1.13775244875055
C           -4.54769650146049        5.34035451413312       -0.25831028462529
C           -2.88372290936234        4.99104071881582        1.59241809332189
C           -4.57237274695003        3.23964901744167        1.07191856936239
C           -5.56086365062719        2.60117027715494        1.81379958032683
C           -5.76701994359682        1.23218029306504        1.73634159890439
C           -4.96903170562782        0.47840827120773        0.89606940289116
C           -3.97215141757388        1.10950075490183        0.13985747300252
C           -3.77262764905615        2.46656618017826        0.22667677247589
C           -3.21399743148585        0.09837888785745       -0.69963408337757
C           -3.39915853435171        0.30052450820530       -2.18558380735998
C           -4.48502326276179        0.99809833004357       -2.70140699132688
C           -4.63627458234026        1.09454429014619       -4.07484313271342
C           -3.69881115207418        0.47693680447281       -4.88710169678363
N           -2.66701655838782       -0.19842884003699       -4.40984230473554
C           -2.52486270693437       -0.28247498609010       -3.10083686373181
C           -1.75649044685769        0.12769160347563       -0.28436900848172
C           -0.89744488760270        1.07466296708822       -0.85206506124633
C            0.42194626855476        1.19395077592629       -0.46422087433777
C            0.88803901194929        0.34558450020516        0.52915809616741
C            0.03930196820034       -0.62955199822341        1.09706176685099
C           -1.28541301955615       -0.72690738308696        0.69695689271124
C            0.83502790460700       -1.36668890154867        2.03759468933561
C            0.56047473099276       -2.42123753877756        2.89794638318468
C            1.57365727681317       -2.89601006300302        3.70637622678897
C            2.84141006417761       -2.31972705512625        3.67672354758947
C            3.13617824694003       -1.26897444030012        2.82956331060234
C            2.13187258521594       -0.80585870845891        1.99287284225052
N            2.15109358716151        0.22995906735731        1.07825030815373
C            3.25246853564400        1.03304638597124        0.75863409837454
C            3.12181525118106        2.41991718664841        0.74401989929301
C            4.20452516150861        3.20924087334866        0.40342178990796
C            5.42323922031560        2.63638051651889        0.08999364424245
C            5.56062582491190        1.25055592148688        0.10681268024669
N            6.78841228854809        0.66358929696962       -0.22467662272324
C            7.46614730926438       -0.28022759026447        0.52201084447349
C            7.14962353899026       -0.82336531126101        1.75804350508341
C            8.02481073522739       -1.74107901628230        2.30591534570372
C            9.19758971565260       -2.10704271856895        1.64955155724521
C            9.53296291953732       -1.54921354447601        0.43207331182426
C            8.66731836100614       -0.62537849188445       -0.13840901678395
C            8.70657336391699        0.15123354865954       -1.34586740447655
C            9.61103972389556        0.23863196386477       -2.39589951065099
C            9.32938627611402        1.09430576738370       -3.44186916135274
C            8.15603895485055        1.84506790417759       -3.45687320153653
C            7.24098436438916        1.77511066263475       -2.42387275683310
C            7.53075825097449        0.93567763980676       -1.35806027542010
C            4.47282234388340        0.44995635402053        0.43635446449528
C           -3.92190444199340       -1.19052451997203       -0.32262554070078
C           -3.66915902335464       -2.46282444897134       -0.78727483240912
C           -4.43104747771109       -3.53222867779702       -0.32180593220230
C           -4.19161494326529       -4.96197037569832       -0.78150486112672
C           -3.06092217425506       -5.06959589639015       -1.80838834698693
C           -5.47440100006570       -5.50535408979654       -1.42645478721073
C           -3.81557378545520       -5.82038615049934        0.43495216342606
C           -5.44224369481361       -3.27256010882217        0.60396534313483
C           -5.70876201876084       -1.99748241360386        1.06873707167884
C           -4.94192256135014       -0.94323400861800        0.60240020208588
H           -5.13534268728331        5.07613728478521        3.12778542005580
H           -5.04008183411099        6.51725662882655        2.12211344237525
H           -6.30579758721999        5.33289969503332        1.82111230758524
H           -5.56594100525171        5.15169285372027       -0.59283965566726
H           -3.86517182544703        4.91148446218949       -0.98699160226215
H           -4.38711664900929        6.41618673215773       -0.23316935605394
H           -2.69326957623702        6.06021963898754        1.66009175453090
H           -2.16719738690558        4.56074930748058        0.89819493484419
H           -2.71604085339041        4.54710261847690        2.57164440258101
H           -6.19467306562200        3.16982956289560        2.47452272869980
H           -6.54245027113768        0.76647304269316        2.32667360710566
H           -2.99582852862076        2.92661721789028       -0.36483538588142
H           -5.20100692810002        1.46053282283366       -2.03679526773305
H           -5.46697063910953        1.63466849990362       -4.50288418550371
H           -3.77179932531140        0.51949424857850       -5.96594965030268
H           -1.65874686541899       -0.83755732152282       -2.76267160778530
H           -1.27109291486970        1.72361056463467       -1.63088629530138
H            1.06882109914438        1.91887652892642       -0.93467027006501
H           -1.93287185211335       -1.46545345773558        1.14402374618323
H           -0.42843143521612       -2.85306063643450        2.93254284324740
H            1.38324819384307       -3.71793811110964        4.38022029564146
H            3.61052238445588       -2.69966309669284        4.33280796881823
H            4.11530027608201       -0.81640652696155        2.83289450822152
H            2.17855286741874        2.86883335272488        1.01426265880265
H            4.10175836686612        4.28402320976103        0.39766477038573
H            6.27446922855064        3.25327782471740       -0.15323023765249
H            6.25620200627550       -0.52758028375055        2.28576960443054
H            7.79663118718362       -2.18026450801854        3.26589552560087
H            9.85570814451098       -2.82945274972922        2.10886936988600
H           10.45093919114737       -1.81867364850024       -0.06804301137027
H           10.51229304653361       -0.35563069397433       -2.39143323041989
H           10.02073347576635        1.17948067228695       -4.26696523362272
H            7.95499344027317        2.49390419117633       -4.29659127089010
H            6.32607514165023        2.34754521209523       -2.45363393962722
H            4.56822631929321       -0.62507110495760        0.41178665441398
H           -2.87715435716013       -2.61062446378985       -1.50254662011804
H           -2.11631439128323       -4.73012551055174       -1.38939636528059
H           -3.28477484490692       -4.48908303741884       -2.70054917757835
H           -2.94056044790423       -6.10945599299530       -2.10584260808515
H           -5.31318762135639       -6.52097131085399       -1.78180685379275
H           -6.30016180631836       -5.52002006045026       -0.72057210405104
H           -5.76015815100855       -4.88456241427514       -2.27319456756227
H           -3.62783426307003       -6.84642222328660        0.12563399507459
H           -2.91405381223122       -5.43165359588964        0.90435599553450
H           -4.60980776531662       -5.82835234131277        1.17639870539154
H           -6.04436532281223       -4.08722386449589        0.97767340697333
H           -6.50056455307281       -1.83123999610326        1.78428365842932

          :  Hamiltonian                  GFN2-xTB          :
         :: gradient norm              0.000060633390 Eh/a0 ::
         :: HOMO-LUMO gap              3.018366274681 eV    ::
         :: SCC energy              -155.568152697493 Eh    ::
         :: -> dispersion             -0.148642905729 Eh    ::
         :: repulsion energy           2.792714495373 Eh    ::

    * Orbital Energies and Occupations

         #    Occupation            Energy/Eh            Energy/eV
      -------------------------------------------------------------
         1        2.0000           -0.6780384             -18.4504
       ...           ...                  ...                  ...
       131        2.0000           -0.4090284             -11.1302
       132        2.0000           -0.4087870             -11.1237
       133        2.0000           -0.4057212             -11.0402
       134        2.0000           -0.4047597             -11.0141
       135        2.0000           -0.3985090             -10.8440
       136        2.0000           -0.3953828             -10.7589
       137        2.0000           -0.3918758             -10.6635
       138        2.0000           -0.3787645             -10.3067
       139        2.0000           -0.3781136             -10.2890
       140        2.0000           -0.3700240             -10.0689
       141        2.0000           -0.3653631              -9.9420
       142        2.0000           -0.3632185              -9.8837
       143        2.0000           -0.3598968              -9.7933 (HOMO)
       144                         -0.2489739              -6.7749 (LUMO)
       145                         -0.2473590              -6.7310
       146                         -0.2465026              -6.7077
       147                         -0.2425694              -6.6007
       148                         -0.2393176              -6.5122
       149                         -0.2389053              -6.5009
       150                         -0.2332626              -6.3474
       151                         -0.2242317              -6.1017
       152                         -0.2213242              -6.0225
       153                         -0.2175549              -5.9200
       154                         -0.2130290              -5.7968
       ...                                ...                  ...
       283                          0.7469170              20.3246
      -------------------------------------------------------------
                  HL-Gap            0.1109229 Eh            3.0184 eV

     #   Z          covCN         q      C6AA      α(0)
     1   6 C        3.761    -0.107    22.589     6.775
     2   6 C        3.903     0.026    20.083     6.370
     3   6 C        3.762    -0.104    22.523     6.765
     4   6 C        3.762    -0.104    22.531     6.766
     5   6 C        2.975     0.005    27.903     8.665
     6   6 C        2.925    -0.044    29.082     8.844
     7   6 C        2.914    -0.037    28.930     8.820
     8   6 C        3.035    -0.003    28.071     8.690
     9   6 C        3.056    -0.001    27.992     8.677
    10   6 C        2.922    -0.040    29.006     8.832
    11   6 C        3.948     0.008    20.373     6.414
    12   6 C        2.976     0.009    27.821     8.652
    13   6 C        2.933    -0.019    28.471     8.751
    14   6 C        2.913    -0.040    29.004     8.831
    15   6 C        2.913     0.055    26.761     8.483
    16   7 N        1.835    -0.224    26.732     7.662
    17   6 C        2.917     0.056    26.750     8.481
    18   6 C        2.979     0.005    27.910     8.666
    19   6 C        2.928    -0.038    28.936     8.822
    20   6 C        2.909    -0.052    29.285     8.874
    21   6 C        3.076     0.044    26.926     8.508
    22   6 C        3.068    -0.017    28.368     8.734
    23   6 C        2.916    -0.039    28.973     8.827
    24   6 C        3.069    -0.016    28.346     8.730
    25   6 C        2.913    -0.032    28.800     8.800
    26   6 C        2.920    -0.040    29.002     8.831
    27   6 C        2.924    -0.033    28.819     8.804
    28   6 C        2.910    -0.050    29.236     8.866
    29   6 C        3.075     0.047    26.874     8.499
    30   7 N        2.802    -0.043    22.072     6.978
    31   6 C        2.912     0.067    26.503     8.442
    32   6 C        2.922    -0.048    29.201     8.862
    33   6 C        2.919    -0.028    28.699     8.785
    34   6 C        2.922    -0.048    29.194     8.861
    35   6 C        2.912     0.067    26.497     8.441
    36   7 N        2.803    -0.044    22.096     6.981
    37   6 C        3.075     0.047    26.875     8.500
    38   6 C        2.910    -0.050    29.237     8.866
    39   6 C        2.924    -0.033    28.822     8.804
    40   6 C        2.920    -0.041    29.008     8.832
    41   6 C        2.913    -0.032    28.810     8.801
    42   6 C        3.068    -0.017    28.354     8.731
    43   6 C        3.068    -0.017    28.351     8.731
    44   6 C        2.913    -0.033    28.812     8.802
    45   6 C        2.920    -0.040    29.006     8.832
    46   6 C        2.924    -0.033    28.825     8.804
    47   6 C        2.910    -0.051    29.263     8.870
    48   6 C        3.076     0.047    26.875     8.500
    49   6 C        2.925    -0.057    29.417     8.895
    50   6 C        3.059    -0.001    27.983     8.675
    51   6 C        2.919    -0.045    29.107     8.847
    52   6 C        2.975     0.007    27.871     8.660
    53   6 C        3.903     0.026    20.084     6.370
    54   6 C        3.761    -0.107    22.584     6.775
    55   6 C        3.762    -0.105    22.549     6.769
    56   6 C        3.762    -0.104    22.538     6.768
    57   6 C        2.928    -0.039    28.971     8.827
    58   6 C        2.913    -0.037    28.927     8.819
    59   6 C        3.036    -0.003    28.074     8.691
    60   1 H        0.925     0.036     2.504     2.475
    61   1 H        0.925     0.036     2.506     2.476
    62   1 H        0.925     0.036     2.507     2.476
    63   1 H        0.925     0.033     2.549     2.497
    64   1 H        0.925     0.035     2.514     2.479
    65   1 H        0.925     0.037     2.495     2.470
    66   1 H        0.925     0.036     2.498     2.471
    67   1 H        0.925     0.035     2.512     2.478
    68   1 H        0.925     0.033     2.541     2.493
    69   1 H        0.926     0.035     2.511     2.478
    70   1 H        0.926     0.028     2.611     2.527
    71   1 H        0.926     0.027     2.627     2.535
    72   1 H        0.926     0.034     2.525     2.485
    73   1 H        0.926     0.033     2.548     2.496
    74   1 H        0.925     0.036     2.509     2.477
    75   1 H        0.925     0.037     2.492     2.469
    76   1 H        0.926     0.028     2.618     2.530
    77   1 H        0.926     0.029     2.600     2.522
    78   1 H        0.926     0.035     2.517     2.481
    79   1 H        0.926     0.031     2.567     2.506
    80   1 H        0.926     0.029     2.602     2.523
    81   1 H        0.926     0.030     2.584     2.514
    82   1 H        0.926     0.026     2.651     2.546
    83   1 H        0.926     0.045     2.389     2.417
    84   1 H        0.926     0.041     2.432     2.439
    85   1 H        0.926     0.045     2.385     2.415
    86   1 H        0.926     0.024     2.675     2.558
    87   1 H        0.926     0.029     2.594     2.519
    88   1 H        0.926     0.028     2.608     2.525
    89   1 H        0.926     0.031     2.567     2.505
    90   1 H        0.926     0.031     2.566     2.505
    91   1 H        0.926     0.029     2.607     2.525
    92   1 H        0.926     0.030     2.592     2.518
    93   1 H        0.926     0.027     2.629     2.536
    94   1 H        0.926     0.050     2.315     2.379
    95   1 H        0.926     0.037     2.493     2.469
    96   1 H        0.925     0.036     2.503     2.474
    97   1 H        0.925     0.037     2.492     2.469
    98   1 H        0.925     0.036     2.503     2.474
    99   1 H        0.925     0.037     2.487     2.466
   100   1 H        0.925     0.036     2.502     2.474
   101   1 H        0.925     0.034     2.537     2.491
   102   1 H        0.925     0.037     2.487     2.466
   103   1 H        0.925     0.033     2.540     2.492
   104   1 H        0.925     0.036     2.503     2.474
   105   1 H        0.926     0.029     2.599     2.521
   106   1 H        0.926     0.028     2.611     2.527

molecular dipole:
                 x           y           z       tot (Debye)
 q only:       -0.177       0.507       0.364
   full:       -0.466       0.775       0.584       2.735

 projected vibrational frequencies (cm⁻¹)
eigval :       -0.00    -0.00    -0.00     0.00     0.00     0.00
eigval :        7.81     9.17    16.91    17.73    21.83    24.00
eigval :       29.10    33.29    37.20    40.28    49.23    53.10
eigval :       57.13    64.04    78.22    83.03    85.65    93.65
eigval :      102.46   116.62   128.39   140.48   142.50   152.60
eigval :      153.97   173.67   180.03   186.41   189.44   196.52
eigval :      207.03   214.36   219.53   227.74   229.87   233.99
eigval :      245.59   254.09   266.01   268.37   271.84   275.13
eigval :      278.80   299.30   314.42   316.04   321.97   323.49
eigval :      330.79   337.52   346.08   349.68   358.70   367.70
eigval :      370.12   383.25   386.23   393.61   396.51   420.96
eigval :      421.71   424.04   426.76   430.39   431.30   437.99
eigval :      444.19   447.25   455.32   465.66   480.91   486.80
eigval :      515.23   520.65   529.72   530.84   532.57   541.06
eigval :      543.34   553.33   567.89   575.29   586.75   590.37
eigval :      598.76   600.36   612.21   616.99   624.68   630.17
eigval :      635.02   649.02   661.25   670.95   674.36   678.44
eigval :      690.18   690.88   697.92   707.77   709.28   718.08
eigval :      722.65   729.24   750.65   763.16   766.90   772.93
eigval :      777.61   780.13   791.55   803.84   809.29   821.48
eigval :      825.96   833.42   860.86   867.65   871.09   872.28
eigval :      877.84   879.62   885.86   889.00   894.48   897.13
eigval :      899.79   899.85   900.99   905.98   908.02   909.51
eigval :      909.79   911.70   915.37   918.43   919.03   919.95
eigval :      923.21   924.10   931.25   933.45   950.38   960.32
eigval :      960.74   961.38   963.05   963.57   963.59   968.55
eigval :      972.61   997.60  1009.64  1012.87  1015.93  1017.52
eigval :     1035.37  1035.58  1035.69  1036.28  1037.56  1067.00
eigval :     1071.37  1073.85  1098.05  1110.82  1113.66  1122.14
eigval :     1127.66  1127.93  1139.88  1144.89  1150.08  1156.66
eigval :     1170.52  1174.69  1178.66  1179.02  1181.30  1183.25
eigval :     1188.86  1195.84  1199.36  1201.44  1210.59  1227.15
eigval :     1227.44  1232.04  1233.55  1234.49  1235.68  1238.93
eigval :     1241.70  1245.15  1252.14  1253.96  1257.60  1270.61
eigval :     1283.06  1283.59  1287.05  1291.31  1299.60  1303.50
eigval :     1305.60  1311.31  1317.67  1326.60  1346.59  1354.56
eigval :     1358.67  1360.41  1363.56  1372.33  1375.32  1402.04
eigval :     1403.68  1405.33  1406.00  1406.58  1416.43  1418.45
eigval :     1422.18  1426.75  1428.91  1429.99  1430.10  1435.53
eigval :     1449.44  1454.02  1464.61  1473.22  1478.27  1479.52
eigval :     1480.31  1487.50  1488.60  1492.42  1492.45  1494.55
eigval :     1495.04  1501.54  1501.91  1505.74  1506.16  1514.94
eigval :     1515.43  1520.26  1520.64  1567.93  1569.62  1572.98
eigval :     1576.43  1576.80  1578.24  1583.94  1587.46  1590.27
eigval :     1593.45  1600.23  1601.65  1604.75  1611.10  1615.74
eigval :     1617.42  3021.45  3021.98  3022.75  3023.88  3026.22
eigval :     3026.50  3029.54  3030.19  3030.42  3031.14  3035.17
eigval :     3035.48  3038.08  3038.28  3045.14  3045.89  3048.82
eigval :     3049.53  3051.03  3057.79  3073.73  3075.14  3076.43
eigval :     3076.74  3077.51  3078.35  3079.19  3081.86  3083.59
eigval :     3084.31  3085.73  3088.60  3088.69  3089.16  3089.97
eigval :     3090.80  3091.87  3093.26  3096.09  3097.27  3098.02
eigval :     3098.88  3100.24  3100.93  3104.95  3113.72  3118.81

   temp. (K)  partition function   enthalpy   heat capacity  entropy
                                   cal/mol     cal/K/mol   cal/K/mol   J/K/mol
 298.15  VIB  0.273E+24            29918.195    187.380    185.461
         ROT  0.164E+09              888.752      2.981     40.566
         INT  0.447E+32            30806.947    190.361    226.027
         TR   0.204E+29             1481.254      4.968     45.751
         TOT                       32288.2008   195.3290   271.7775  1137.1172

       T/K    H(0)-H(T)+PV         H(T)/Eh          T*S/Eh         G(T)/Eh
   ------------------------------------------------------------------------
    298.15    0.514545E-01    0.904744E+00    0.129130E+00    0.775613E+00
   ------------------------------------------------------------------------

         :::::::::::::::::::::::::::::::::::::::::::::::::::::
         ::                  THERMODYNAMIC                  ::
         :::::::::::::::::::::::::::::::::::::::::::::::::::::
         :: total free energy        -151.999824918980 Eh   ::
         ::.................................................::
         :: total energy             -152.775438202121 Eh   ::
         :: zero point energy           0.853289041385 Eh   ::
         :: G(RRHO) w/o ZPVE           -0.077675758245 Eh   ::
         :: G(RRHO) contrib.            0.775613283141 Eh   ::
         :::::::::::::::::::::::::::::::::::::::::::::::::::::

           -------------------------------------------------
          | TOTAL ENERGY             -152.775438202121 Eh   |
          | TOTAL ENTHALPY           -151.870694637467 Eh   |
          | TOTAL FREE ENERGY        -151.999824918980 Eh   |
          | GRADIENT NORM               0.000060627533 Eh/α |
          | HOMO-LUMO GAP               3.018366208276 eV   |
           -------------------------------------------------

 * finished run on 2025/08/24 at 21:18:50.857
