   * xtb version 6.7.1 (edcfbbe) compiled by 'albert@albert-system' on 2024-07-22

   ID    Z sym.   atoms
    1    6 C      1-6, 8-15, 17-24, 26-28, 30-34, 36, 37, 39, 41-43
    2    8 O      7, 16
    3    7 N      25, 29, 38
    4    9 F      35, 40
    5    1 H      44-80

          program call               : xtb data2507/gas/CBZ/CBZ_gas_S0_finalOpt.xtbopt.xyz --gfn 2 --spinpol --tblite --uhf 2 --ohess vtight --parallel 40 --molden --ceasefiles --namespace data2507/gas/CBZ/CBZ_gas_T1_preOpt
 * total energy  :  -122.2695252 Eh     change       -0.6804889E-07 Eh
 * total energy  :  -122.2748920 Eh     change       -0.5366808E-02 Eh
 * total energy  :  -122.2766594 Eh     change       -0.1767374E-02 Eh
 * total energy  :  -122.2769377 Eh     change       -0.2783646E-03 Eh
 * total energy  :  -122.2771498 Eh     change       -0.2120501E-03 Eh
 * total energy  :  -122.2772775 Eh     change       -0.1277248E-03 Eh
 * total energy  :  -122.2773595 Eh     change       -0.8195902E-04 Eh
 * total energy  :  -122.2774380 Eh     change       -0.7855855E-04 Eh
 * total energy  :  -122.2774972 Eh     change       -0.5923821E-04 Eh
 * total energy  :  -122.2775531 Eh     change       -0.5588710E-04 Eh
 * total energy  :  -122.2777897 Eh     change       -0.3316977E-06 Eh
 * total energy  :  -122.2777900 Eh     change       -0.3042477E-06 Eh
 * total energy  :  -122.2777902 Eh     change       -0.2226147E-06 Eh
 * total energy  :  -122.2777905 Eh     change       -0.2550211E-06 Eh
 * total energy  :  -122.2777908 Eh     change       -0.3174190E-06 Eh
 * total energy  :  -122.2777911 Eh     change       -0.3100516E-06 Eh
 * total energy  :  -122.2777914 Eh     change       -0.2904950E-06 Eh
 * total energy  :  -122.2777916 Eh     change       -0.1990085E-06 Eh
 * total energy  :  -122.2777916 Eh     change       -0.4026981E-07 Eh
   *** GEOMETRY OPTIMIZATION CONVERGED AFTER 44 ITERATIONS ***

 final structure:
================
80
 xtb: 6.7.1 (edcfbbe)
C            2.30084233299598        5.10980112681907       -1.27786645840413
C            3.54873525363671        5.04906407297541       -0.40597819166970
C            4.02419372425587        3.61333804111410       -0.19210672167304
C            5.29960238769984        3.56048409905315        0.64977231825891
C            5.71868108979149        2.14228052316938        1.03715838135988
C            6.28452885957218        1.34705768166852       -0.14435707764491
O            6.45489990749655       -0.02456081363323        0.16141659378694
C            5.37848287234865       -0.83682280455608        0.20874033111372
C            5.65750438644217       -2.17291590690984        0.58271586768284
C            4.66376115637021       -3.10952978051960        0.69161637130590
C            3.34563227486036       -2.73515927783689        0.41379805798711
C            2.09256138933733       -3.40114445534698        0.46504236584405
C            1.68980474917582       -4.69978918489473        0.79378328750570
C            0.35857102877177       -5.01566915046041        0.74054078497656
C           -0.61535803788673       -4.06340083633066        0.35116521028184
O           -1.87923504190883       -4.51487338728268        0.35398707055932
C           -2.95123632147608       -3.66039277182354       -0.01301474248720
C           -3.06758332988599       -3.51035050562297       -1.53220773159624
C           -4.32356300982841       -2.75187890946407       -1.95651741693326
C           -4.35376757859378       -1.29544798603809       -1.49306746094828
C           -5.48007041255077       -0.52198506192950       -2.17681924853761
C           -5.59407921417476        0.90505122024785       -1.65674704992623
C           -0.23378998587342       -2.76544214050507        0.01245471557038
C            1.10841926441876       -2.44444138460833        0.08776763582690
N            1.72520722047552       -1.24376039066785       -0.19229230205798
C            1.07355173461974       -0.07581384450603       -0.61354262941396
C            1.58903963183176        0.67035078729682       -1.71781261583650
C            0.90391320448338        1.81170590738616       -2.05727622840109
N           -0.18001613357377        2.21050510222523       -1.44067891832067
C           -0.76665211496998        1.49223751172567       -0.43173660036437
C           -1.99295587080358        1.97329270574764        0.10023184910693
C           -2.44028955305909        3.28285196392124       -0.24219049900317
C           -3.61565797627396        3.80444545782689        0.23432347199171
C           -4.42041983068893        3.04406020376110        1.06816838153258
F           -5.58047158930896        3.55361110793975        1.53746007950397
C           -4.05757462675006        1.72796944849773        1.40918421820554
C           -4.89963629021797        0.90709350550118        2.18823758484917
N           -5.58049522593885        0.21907498330030        2.80324011728305
C           -2.86008805897291        1.22930858919823        0.92131893012114
F           -2.56880613412898       -0.06144863760220        1.22728500303236
C           -0.07186876221411        0.34637007447391        0.01235035343450
C            3.07671829217604       -1.39795730019576        0.00602390448238
C            4.07565733765965       -0.44509340719925       -0.08544187971916
H            1.95855697474262        6.13635100109998       -1.38268815914010
H            1.49773615323946        4.52170191984709       -0.83938194507305
H            2.51044264434000        4.71718228376614       -2.27068553563397
H            4.34854016516138        5.62776626641927       -0.87389969327728
H            3.33558893839330        5.50359199353461        0.56382237726959
H            3.23210845395507        3.05053971969005        0.30902008835374
H            4.19588676949550        3.15333091042413       -1.16798384075822
H            5.12994948077618        4.12781907636450        1.56724974396490
H            6.11490100799294        4.04587608938651        0.10870135142593
H            4.85944305380064        1.61093470381018        1.45213259592057
H            6.48213057213498        2.18444772775137        1.81619590674015
H            7.28897256079496        1.70293468799275       -0.38767537505807
H            5.65504879342510        1.46031860679522       -1.03346992037121
H            6.68552816685235       -2.42113334536130        0.79130506037345
H            4.88960147556737       -4.11980195927111        0.99449104380782
H            2.42050850493600       -5.43713190636566        1.08686900413569
H            0.00746599069375       -6.00297876031624        0.99341361637979
H           -2.85319812441112       -2.68848611418832        0.47922541130716
H           -3.84270216680260       -4.15968985843043        0.37539436562058
H           -3.08698077238415       -4.51261073675196       -1.96703463015859
H           -2.18473348819425       -2.99960066024067       -1.92268235695468
H           -5.20640995851889       -3.26885310662963       -1.57511706921752
H           -4.37572870472982       -2.77275109848566       -3.04794432630494
H           -4.49876132313337       -1.25246743161904       -0.41244865121305
H           -3.39940295149715       -0.81478346178921       -1.72496802808664
H           -6.42520020718254       -1.04260293513379       -2.00832281968741
H           -5.29910418527471       -0.50332493957199       -3.25444714051549
H           -4.64922840375326        1.43371301096970       -1.77056826129232
H           -6.36078263504918        1.45066418667031       -2.20152726169245
H           -5.86341063892273        0.90254346183663       -0.60330979890098
H           -0.95334381226704       -2.02759836359114       -0.29775995476592
H            2.44920862568941        0.33852296926965       -2.27200579457653
H            1.23779436983715        2.44013222947042       -2.87269615151408
H           -1.80975862147624        3.85970947646979       -0.89963104863166
H           -3.93280366295612        4.80047354081525       -0.03089987037134
H           -0.41907484802340       -0.17070948416528        0.89050725801002
H            3.82837978780047        0.56617678353245       -0.35961082690237

 projected vibrational frequencies (cm⁻¹)
eigval :       -0.00    -0.00    -0.00    -0.00     0.00     0.00
eigval :        9.56    10.72    17.16    27.78    29.47    34.16
eigval :       41.46    50.21    55.41    58.18    68.37    71.94
eigval :       77.54    82.90    82.98    96.32   101.70   108.78
eigval :      113.40   115.89   122.05   130.00   139.12   146.80
eigval :      179.90   193.21   198.95   207.53   214.75   221.96
eigval :      237.38   239.94   243.37   249.01   254.61   256.35
eigval :      270.84   281.21   287.55   297.73   303.98   319.08
eigval :      322.22   336.82   370.97   378.03   383.82   384.62
eigval :      390.40   404.40   405.52   416.26   425.94   427.19
eigval :      433.02   447.55   448.50   489.24   494.69   502.59
eigval :      514.85   533.21   559.42   568.37   582.79   593.30
eigval :      594.36   603.17   605.46   609.59   625.28   635.93
eigval :      646.17   668.63   669.94   699.02   701.39   709.13
eigval :      748.43   757.72   771.21   776.96   796.05   796.81
eigval :      798.26   808.21   817.46   823.14   823.65   831.70
eigval :      837.84   848.34   856.94   867.55   889.21   898.47
eigval :      902.96   905.29   919.84   923.35   930.93   932.46
eigval :      945.99   967.01   976.16   978.02   986.40   989.10
eigval :     1000.22  1006.63  1030.44  1045.00  1052.37  1070.20
eigval :     1072.71  1084.18  1095.90  1106.43  1106.56  1107.53
eigval :     1119.19  1119.72  1123.67  1131.72  1132.59  1144.27
eigval :     1148.54  1152.73  1156.56  1162.62  1172.66  1182.88
eigval :     1191.19  1199.13  1206.66  1215.36  1228.17  1228.45
eigval :     1230.22  1233.69  1245.56  1259.62  1262.18  1269.22
eigval :     1271.77  1274.28  1276.22  1282.88  1285.79  1288.24
eigval :     1288.37  1303.09  1304.68  1319.75  1326.73  1341.98
eigval :     1345.50  1346.85  1348.38  1350.48  1352.15  1360.88
eigval :     1375.12  1375.98  1376.98  1385.58  1397.38  1412.55
eigval :     1413.54  1417.95  1418.12  1440.46  1444.23  1457.27
eigval :     1469.43  1472.06  1478.25  1484.40  1486.69  1486.96
eigval :     1493.07  1493.48  1494.79  1496.44  1497.24  1498.62
eigval :     1501.15  1503.42  1505.68  1506.21  1507.84  1509.06
eigval :     1544.65  1557.10  1577.56  1586.03  2362.39  2925.58
eigval :     2950.76  2954.36  2955.31  2963.85  2968.06  2968.15
eigval :     2969.93  2969.98  2971.92  2975.54  2976.13  2980.17
eigval :     2980.46  2984.19  2987.49  2991.05  2991.53  2995.53
eigval :     2996.34  3025.38  3029.16  3036.85  3037.14  3042.35
eigval :     3043.24  3045.67  3097.41  3100.37  3101.18  3111.94
eigval :     3116.54  3116.83  3121.46  3125.35  3127.61  3129.81

   temp. (K)  partition function   enthalpy   heat capacity  entropy
                                   cal/mol     cal/K/mol   cal/K/mol   J/K/mol
 298.15  VIB  0.410E+20            24419.757    144.832    155.667
         ROT  0.598E+08              888.752      2.981     38.565
         INT  0.245E+28            25308.510    147.813    194.232
         TR   0.136E+29             1481.254      4.968     44.946
         TOT                       26789.7636   152.7809   239.1777  1000.7195

       T/K    H(0)-H(T)+PV         H(T)/Eh          T*S/Eh         G(T)/Eh
   ------------------------------------------------------------------------
    298.15    0.426922E-01    0.681016E+00    0.113641E+00    0.567375E+00
   ------------------------------------------------------------------------

         :::::::::::::::::::::::::::::::::::::::::::::::::::::
         ::                  THERMODYNAMIC                  ::
         :::::::::::::::::::::::::::::::::::::::::::::::::::::
         :: total free energy        -121.710417134997 Eh   ::
         ::.................................................::
         :: total energy             -122.277791642051 Eh   ::
         :: zero point energy           0.638323343819 Eh   ::
         :: G(RRHO) w/o ZPVE           -0.070948836764 Eh   ::
         :: G(RRHO) contrib.            0.567374507054 Eh   ::
         :::::::::::::::::::::::::::::::::::::::::::::::::::::

           -------------------------------------------------
          | TOTAL ENERGY             -122.277791642051 Eh   |
          | TOTAL ENTHALPY           -121.596776092520 Eh   |
          | TOTAL FREE ENERGY        -121.710417134997 Eh   |
          | GRADIENT NORM               0.000113320284 Eh/α |
           -------------------------------------------------

 * finished run on 2025/09/13 at 23:25:18.890
