   * xtb version 6.7.1 (edcfbbe) compiled by 'albert@albert-system' on 2024-07-22

   ID    Z sym.   atoms
    1    6 C      1-6, 8-15, 17-24, 26-28, 30-34, 36, 37, 39, 41-43
    2    8 O      7, 16
    3    7 N      25, 29, 38
    4    9 F      35, 40
    5    1 H      44-80

          program call               : xtb data2507/gas/CBZ/CBZ_gas_T1_crest.xyz --gfn 2 --spinpol --tblite --uhf 2 --ohess vtight --parallel 40 --molden --ceasefiles --namespace data2507/gas/CBZ/CBZ_gas_T1_finalOpt
 * total energy  :  -122.2776905 Eh     change       -0.3201546E-07 Eh
 * total energy  :  -122.2777931 Eh     change       -0.1025542E-03 Eh
 * total energy  :  -122.2778353 Eh     change       -0.4221020E-04 Eh
 * total energy  :  -122.2778318 Eh     change        0.3465962E-05 Eh
 * total energy  :  -122.2778434 Eh     change       -0.1160898E-04 Eh
 * total energy  :  -122.2778455 Eh     change       -0.2109303E-05 Eh
 * total energy  :  -122.2778488 Eh     change       -0.3296171E-05 Eh
 * total energy  :  -122.2778508 Eh     change       -0.1949891E-05 Eh
 * total energy  :  -122.2778524 Eh     change       -0.1625310E-05 Eh
 * total energy  :  -122.2778539 Eh     change       -0.1463557E-05 Eh
 * total energy  :  -122.2778550 Eh     change       -0.1111900E-05 Eh
 * total energy  :  -122.2778558 Eh     change       -0.8062246E-06 Eh
 * total energy  :  -122.2778564 Eh     change       -0.6139582E-06 Eh
 * total energy  :  -122.2778564 Eh     change       -0.3887824E-07 Eh
 * total energy  :  -122.2778567 Eh     change       -0.2722345E-06 Eh
 * total energy  :  -122.2778569 Eh     change       -0.1823388E-06 Eh
 * total energy  :  -122.2778569 Eh     change       -0.4306385E-07 Eh
 * total energy  :  -122.2778570 Eh     change       -0.5535500E-07 Eh
   *** GEOMETRY OPTIMIZATION CONVERGED AFTER 18 ITERATIONS ***

 final structure:
================
80
 xtb: 6.7.1 (edcfbbe)
C            2.02151178909014        5.08341952571560       -0.99022512610202
C            3.30554598729765        5.05901470558839       -0.17066287499320
C            3.87120589479172        3.64616030324562       -0.04056034197107
C            5.17736057452540        3.63130514868989        0.75456662595438
C            5.68451453135353        2.22431290625064        1.07112862119428
C            6.26458783909262        1.50806515994049       -0.15367474493176
O            6.47905783538112        0.12916037874684        0.08535163121616
C            5.42352650030483       -0.71059244948265        0.12985442996363
C            5.73585462173589       -2.04354593402164        0.48770666382747
C            4.76334706310139       -3.00177405571053        0.60288270816294
C            3.43411977024144       -2.65376266358403        0.34432469794735
C            2.19449476216251       -3.34325368509125        0.41353450689780
C            1.82146084101316       -4.64814429151492        0.75189584758445
C            0.49522179135470       -4.98745405708944        0.72548035065427
C           -0.50284373633354       -4.05319315266608        0.35386471571923
O           -1.75841420224458       -4.52574640347189        0.38974729681269
C           -2.85676294604964       -3.69033162126564        0.05814072113067
C           -3.03159849017996       -3.54822786286795       -1.45618498236722
C           -4.34702677498694       -2.87151779894229       -1.83635148303769
C           -4.45300846205675       -1.41839453979210       -1.37438357844677
C           -5.66749454280732       -0.73053307248261       -1.99587910501291
C           -5.84535428332517        0.69324026032522       -1.48509988968442
C           -0.15086906730382       -2.75098760755952        0.00052545322513
C            1.18673215132310       -2.40576822676164        0.04976817051868
N            1.77690051333736       -1.19447241761089       -0.24106388452997
C            1.10338717684924       -0.04410116968156       -0.67594594713440
C            1.60331072129763        0.69159221227556       -1.79457580448665
C            0.89709006980916        1.81403475794181       -2.15279583476971
N           -0.19246367444341        2.20367080317749       -1.54066386321421
C           -0.76306852747341        1.49449019317151       -0.51637447054830
C           -1.99615897925243        1.96450316467223        0.00942393124476
C           -2.46941642393733        3.25661064464263       -0.36338054060729
C           -3.65229330069148        3.76792313320968        0.10554698019960
C           -4.43849719648050        3.01428117538091        0.96300667624561
F           -5.60524827934559        3.51414370143284        1.42586032258438
C           -4.04869172245896        1.71488040633676        1.33629841397614
C           -4.86926946466275        0.89975965200016        2.14379182508796
N           -5.53143576349460        0.21618544572232        2.78373510522106
C           -2.84538752601505        1.22554581972898        0.85349082896532
F           -2.52853567614941       -0.05140981225450        1.19070526285478
C           -0.04680925009331        0.36925795524534       -0.05341957456725
C            3.13335109390676       -1.32193022231590       -0.05754232911974
C            4.10976493148526       -0.34654102589156       -0.15116020007677
H            1.61677435775555        6.09146313310146       -1.03450477186031
H            1.27168838084751        4.43029093886135       -0.54945594171527
H            2.21140345188249        4.74660210998615       -2.00700474934930
H            4.05094803276358        5.70397737976552       -0.64176617395075
H            3.10645682931178        5.45749410610543        0.82644633831976
H            3.13177563937153        3.01595773112539        0.46083839420061
H            4.03273868351084        3.24087271251932       -1.04217494981698
H            5.01013965502922        4.15270501945137        1.69935773833101
H            5.94579963090872        4.18128270181433        0.20682911530085
H            4.86564941162110        1.62867006319074        1.48081965992939
H            6.46208432559732        2.27693765898978        1.83537336432816
H            7.25549219234242        1.90550232654481       -0.38728792147656
H            5.62413426463837        1.64579620318600       -1.03142335790286
H            6.77118732415221       -2.27122702037826        0.68319355547766
H            5.01433556620880       -4.00847841646626        0.89775370114058
H            2.57064263541778       -5.37146493292756        1.03302769967729
H            0.16639616980596       -5.97975155854603        0.98858451814539
H           -2.75879477020563       -2.71508152035601        0.54379688964923
H           -3.72483199777234       -4.20438979209559        0.47923206662658
H           -3.00379584637072       -4.55056294554985       -1.89054629135385
H           -2.19645394673729       -2.98375686581834       -1.87630026874296
H           -5.18105256731145       -3.44182757258508       -1.42227503114908
H           -4.43755781740473       -2.89970575787523       -2.92511268919696
H           -4.53991834280854       -1.37877853820661       -0.28737634977778
H           -3.54873825859130       -0.87439345006652       -1.66055990459982
H           -6.56378408034716       -1.30992623912056       -1.76422610827240
H           -5.55381131773217       -0.71567917510023       -3.08277134628377
H           -4.94870926007356        1.28294729792291       -1.66863633219429
H           -6.68215118805801        1.17664390822163       -1.98357033856285
H           -6.04409285742953        0.68885739037206       -0.41601716173566
H           -0.88955663005714       -2.02820590231455       -0.30003023117874
H            2.46881063327227        0.36547348173616       -2.34389208978668
H            1.21791506554695        2.43359921898364       -2.98029903784023
H           -1.85235289039994        3.82836757980235       -1.03790805142450
H           -3.98941393940258        4.75069684880407       -0.18352828500544
H           -0.38255024555572       -0.13809221845040        0.83473725158769
H            3.83714805920483        0.66064138719017       -0.41594164962481

 projected vibrational frequencies (cm⁻¹)
eigval :       -0.00    -0.00    -0.00    -0.00     0.00     0.00
eigval :        7.51    12.35    17.10    28.22    29.39    33.84
eigval :       43.17    49.00    55.35    60.17    67.25    72.34
eigval :       77.23    83.07    83.63    98.02   101.59   107.97
eigval :      112.81   116.51   122.21   129.86   138.96   146.20
eigval :      179.28   193.34   199.07   207.17   213.17   222.63
eigval :      235.94   238.84   241.53   248.21   257.08   258.97
eigval :      271.88   281.48   287.32   297.88   305.80   318.71
eigval :      323.14   337.09   369.48   377.94   384.12   385.32
eigval :      389.60   403.88   405.37   416.20   425.83   427.18
eigval :      432.82   447.39   448.61   489.09   494.79   502.77
eigval :      515.48   533.20   559.29   567.52   582.76   592.73
eigval :      594.61   603.35   605.70   609.93   625.22   635.95
eigval :      646.25   668.59   670.59   698.08   701.37   708.68
eigval :      748.35   757.35   771.72   777.15   796.73   796.98
eigval :      799.45   808.14   817.65   823.33   823.95   831.57
eigval :      837.76   847.80   856.26   866.85   889.81   899.64
eigval :      903.07   905.35   919.23   923.37   930.89   932.47
eigval :      945.07   966.90   976.44   977.74   987.07   989.94
eigval :     1000.41  1006.87  1030.49  1044.97  1051.43  1070.39
eigval :     1073.02  1084.09  1096.61  1106.54  1106.90  1107.24
eigval :     1119.67  1120.38  1123.64  1131.98  1132.65  1144.96
eigval :     1147.61  1153.69  1155.36  1163.02  1172.60  1184.42
eigval :     1191.55  1199.23  1206.56  1215.45  1228.01  1228.58
eigval :     1230.83  1234.65  1245.76  1258.81  1262.61  1267.95
eigval :     1272.93  1274.80  1276.41  1283.17  1285.92  1288.19
eigval :     1289.08  1303.79  1304.59  1319.60  1326.58  1341.82
eigval :     1345.60  1347.55  1349.16  1350.79  1352.96  1361.43
eigval :     1375.67  1376.51  1376.86  1386.03  1397.63  1412.78
eigval :     1413.52  1418.99  1419.10  1441.45  1444.41  1457.42
eigval :     1469.57  1473.60  1478.52  1485.40  1487.06  1487.68
eigval :     1492.78  1493.15  1495.20  1497.14  1497.70  1499.80
eigval :     1501.71  1503.91  1505.99  1506.38  1507.93  1510.19
eigval :     1545.72  1557.50  1577.34  1586.24  2362.13  2925.23
eigval :     2950.15  2953.97  2955.58  2963.23  2968.06  2968.17
eigval :     2969.55  2970.29  2972.10  2974.51  2976.05  2980.81
eigval :     2980.82  2984.35  2987.12  2990.81  2991.58  2995.59
eigval :     2996.39  3023.51  3031.60  3036.83  3037.34  3042.44
eigval :     3042.91  3043.72  3097.48  3100.21  3100.68  3111.62
eigval :     3116.52  3116.86  3121.40  3126.17  3128.85  3130.14

   temp. (K)  partition function   enthalpy   heat capacity  entropy
                                   cal/mol     cal/K/mol   cal/K/mol   J/K/mol
 298.15  VIB  0.435E+20            24416.727    144.854    155.746
         ROT  0.594E+08              888.752      2.981     38.553
         INT  0.258E+28            25305.480    147.834    194.299
         TR   0.136E+29             1481.254      4.968     44.946
         TOT                       26786.7337   152.8026   239.2453  1001.0022

       T/K    H(0)-H(T)+PV         H(T)/Eh          T*S/Eh         G(T)/Eh
   ------------------------------------------------------------------------
    298.15    0.426874E-01    0.681073E+00    0.113673E+00    0.567400E+00
   ------------------------------------------------------------------------

         :::::::::::::::::::::::::::::::::::::::::::::::::::::
         ::                  THERMODYNAMIC                  ::
         :::::::::::::::::::::::::::::::::::::::::::::::::::::
         :: total free energy        -121.710457073974 Eh   ::
         ::.................................................::
         :: total energy             -122.277857016231 Eh   ::
         :: zero point energy           0.638385710544 Eh   ::
         :: G(RRHO) w/o ZPVE           -0.070985768287 Eh   ::
         :: G(RRHO) contrib.            0.567399942257 Eh   ::
         :::::::::::::::::::::::::::::::::::::::::::::::::::::

           -------------------------------------------------
          | TOTAL ENERGY             -122.277857016231 Eh   |
          | TOTAL ENTHALPY           -121.596783928348 Eh   |
          | TOTAL FREE ENERGY        -121.710457073974 Eh   |
          | GRADIENT NORM               0.000097125461 Eh/α |
           -------------------------------------------------

 * finished run on 2025/09/14 at 00:05:56.276
