   * xtb version 6.7.1 (edcfbbe) compiled by 'albert@albert-system' on 2024-07-22

   ID    Z sym.   atoms
    1    6 C      1-6, 8-15, 17-24, 26-28, 30-34, 36, 37, 39, 41-43
    2    8 O      7, 16
    3    7 N      25, 29, 38
    4    9 F      35, 40
    5    1 H      44-80

          program call               : xtb data2507/gas/CBZ/CBZ_gas_S0_crest.xyz --gfn 2 --ohess vtight --parallel 40 --molden --ceasefiles --namespace data2507/gas/CBZ/CBZ_gas_S0_finalOpt
          :  Hamiltonian                  GFN2-xTB          :
 * total energy  :  -122.3660067 Eh     change       -0.3729255E-08 Eh
 * total energy  :  -122.3660087 Eh     change       -0.1910935E-05 Eh
 * total energy  :  -122.3660091 Eh     change       -0.4683849E-06 Eh
 * total energy  :  -122.3660112 Eh     change       -0.2032438E-05 Eh
 * total energy  :  -122.3660123 Eh     change       -0.1112882E-05 Eh
 * total energy  :  -122.3660146 Eh     change       -0.2338345E-05 Eh
 * total energy  :  -122.3660176 Eh     change       -0.2969172E-05 Eh
 * total energy  :  -122.3660193 Eh     change       -0.1762135E-05 Eh
 * total energy  :  -122.3660203 Eh     change       -0.9285146E-06 Eh
 * total energy  :  -122.3660212 Eh     change       -0.9717975E-06 Eh
 * total energy  :  -122.3660431 Eh     change       -0.5566895E-06 Eh
 * total energy  :  -122.3660437 Eh     change       -0.6422521E-06 Eh
 * total energy  :  -122.3660443 Eh     change       -0.6201669E-06 Eh
 * total energy  :  -122.3660448 Eh     change       -0.4442817E-06 Eh
 * total energy  :  -122.3660451 Eh     change       -0.3290397E-06 Eh
 * total energy  :  -122.3660454 Eh     change       -0.2836727E-06 Eh
 * total energy  :  -122.3660457 Eh     change       -0.3458883E-06 Eh
 * total energy  :  -122.3660463 Eh     change       -0.5326130E-06 Eh
 * total energy  :  -122.3660463 Eh     change       -0.1711953E-08 Eh
   *** GEOMETRY OPTIMIZATION CONVERGED AFTER 44 ITERATIONS ***

 final structure:
================
80
 xtb: 6.7.1 (edcfbbe)
C            2.23240073903947        5.08150893889570       -1.21324186630902
C            3.48894817873451        5.02385177956055       -0.35325638087216
C            3.99369020233476        3.59321739761271       -0.17690507501338
C            5.28677731367774        3.54420215994551        0.63788729705452
C            5.73171942986248        2.12534819573527        0.99253187195652
C            6.28152448738283        1.34968822529324       -0.20981250037895
O            6.47077459819209       -0.02114006778134        0.07159549077940
C            5.38282823495803       -0.83809316164867        0.15592660692096
C            5.65735600044902       -2.15921489561822        0.54231855130193
C            4.65406498580682       -3.09078682680430        0.68519377123377
C            3.34184949591592       -2.71384391643212        0.42450382264726
C            2.07165819326988       -3.38069294536678        0.50890890376435
C            1.68033900614838       -4.67598250982533        0.82767053579892
C            0.34441421945429       -4.99967021275371        0.77697813252783
C           -0.62715681258664       -4.05835972683549        0.39807421068214
O           -1.90264781575998       -4.52609981004278        0.38822158420856
C           -2.96265343606944       -3.68350935021509       -0.02245608087073
C           -3.03123855942959       -3.53618625757594       -1.54501259992255
C           -4.28396679259121       -2.80104441394718       -2.01862025046363
C           -4.35302825777278       -1.34636711282219       -1.55456286088772
C           -5.47299144296287       -0.58387459295925       -2.25981649999974
C           -5.60772448724430        0.84350417920829       -1.74330287408635
C           -0.25505234298594       -2.75814574028828        0.07931869577199
C            1.09022206866854       -2.43349678183614        0.15587778264847
N            1.71102567108451       -1.23050477987674       -0.15710411806029
C            1.07408025318420       -0.07753967440170       -0.58933973387329
C            1.54728814834875        0.64954100265500       -1.68289489020324
C            0.85614443965420        1.78876552393494       -2.05678902186530
N           -0.24198796391356        2.21068518444457       -1.46215581607468
C           -0.71579464572630        1.51215164700906       -0.42880432381890
C           -1.95875706679371        2.04226804704533        0.15761739355259
C           -2.25522535152651        3.39842751352716       -0.00057668776771
C           -3.41554042833470        3.95429316592394        0.49938515885373
C           -4.31832028200081        3.14732778306398        1.16625001354144
F           -5.44731418209156        3.67769851136045        1.65112866793185
C           -4.07893965323051        1.78265843585125        1.33705177609688
C           -5.01501019457499        0.94002240558759        1.98331347078138
N           -5.76928799708675        0.24604461327362        2.49266441203122
C           -2.89090536688400        1.25503766151988        0.82535920314275
F           -2.69403578246446       -0.06488334747189        0.97728576089980
C           -0.07336173322901        0.38101137286831        0.06031321904339
C            3.07840106621695       -1.39613618915987        0.00209793798044
C            4.07915946807273       -0.44557374073316       -0.11995610787786
H            1.86535836533169        6.10243827862288       -1.28535323352894
H            1.44652262263818        4.46059328953422       -0.78819373387339
H            2.44209394777288        4.72283271495163       -2.21849848839181
H            4.27310054432072        5.62781227685656       -0.81522707002090
H            3.27750832444112        5.45246016272847        0.62893225975062
H            3.22227271994425        3.00575464900524        0.32911307706083
H            4.15428692850938        3.15466042977530       -1.16428939312003
H            5.12922039430056        4.09591883279183        1.56737803506281
H            6.08381352904381        4.04814419149835        0.08659161304991
H            4.88967926828587        1.57654569948329        1.41999868902657
H            6.51170658408963        2.16586574483334        1.75520254180471
H            7.27777373615871        1.71939849445996       -0.46757536156897
H            5.63665426910204        1.47258558520148       -1.08788042480563
H            6.68593648334675       -2.41632957587868        0.73803823843051
H            4.88132967476090       -4.09592958669998        1.00434133221652
H            2.41464909021892       -5.41644788299190        1.10416373628315
H            0.00417207181831       -5.99362864605483        1.01932028678422
H           -2.89266408090435       -2.70869682399240        0.47101888149061
H           -3.86488068480399       -4.18710795120916        0.33612071535193
H           -3.01800104950385       -4.53966755544502       -1.97681385499108
H           -2.14319617699776       -3.01339170742158       -1.90669127772574
H           -5.17114344008125       -3.33214270290812       -1.66763265675055
H           -4.29735500780730       -2.82179082903577       -3.11123489652304
H           -4.52468807883446       -1.31312297691976       -0.47750896148211
H           -3.39937169479048       -0.85228375453125       -1.76152012695654
H           -6.41676311954342       -1.11117457181713       -2.10704478318381
H           -5.27365808468207       -0.56370998374420       -3.33382652936917
H           -4.66703894748955        1.38242509254804       -1.85135199140039
H           -6.37478039069402        1.37996740464772       -2.29664415923406
H           -5.88841714980335        0.83941517208380       -0.69198110613621
H           -0.98019461822634       -2.02286822368549       -0.22582582912810
H            2.41093336306135        0.31625922853795       -2.23487370405628
H            1.18805197964944        2.38952383465166       -2.89297459996212
H           -1.54479633584499        4.00334724908719       -0.54069579601718
H           -3.63493905093306        5.00255370415752        0.37686927730841
H           -0.41758157680642       -0.12891663245537        0.94402254148891
H            3.83453497245322        0.56500578940628       -0.40055705439007

          :  Hamiltonian                  GFN2-xTB          :
         :: gradient norm              0.000049221767 Eh/a0 ::
         :: HOMO-LUMO gap              1.529207162657 eV    ::
         :: SCC energy              -124.212148710096 Eh    ::
         :: -> dispersion             -0.097286970908 Eh    ::
         :: repulsion energy           1.846102437365 Eh    ::

    * Orbital Energies and Occupations

         #    Occupation            Energy/Eh            Energy/eV
      -------------------------------------------------------------
         1        2.0000           -0.8544823             -23.2516
       ...           ...                  ...                  ...
        99        2.0000           -0.4354795             -11.8500
       100        2.0000           -0.4326644             -11.7734
       101        2.0000           -0.4309995             -11.7281
       102        2.0000           -0.4286646             -11.6646
       103        2.0000           -0.4280428             -11.6476
       104        2.0000           -0.4255296             -11.5792
       105        2.0000           -0.4232164             -11.5163
       106        2.0000           -0.4195853             -11.4175
       107        2.0000           -0.4092326             -11.1358
       108        2.0000           -0.3933165             -10.7027
       109        2.0000           -0.3918562             -10.6630
       110        2.0000           -0.3716773             -10.1139
       111        2.0000           -0.3596283              -9.7860 (HOMO)
       112                         -0.3034309              -8.2568 (LUMO)
       113                         -0.2899454              -7.8898
       114                         -0.2652566              -7.2180
       115                         -0.2418280              -6.5805
       116                         -0.2377899              -6.4706
       117                         -0.2266021              -6.1662
       118                         -0.2253473              -6.1320
       119                         -0.2004714              -5.4551
       120                         -0.1896090              -5.1595
       121                         -0.1802861              -4.9058
       122                         -0.1327993              -3.6137
       ...                                ...                  ...
       209                          1.1592637              31.5452
      -------------------------------------------------------------
                  HL-Gap            0.0561973 Eh            1.5292 eV

     #   Z          covCN         q      C6AA      α(0)
     1   6 C        3.752    -0.102    22.518     6.767
     2   6 C        3.801    -0.055    21.554     6.610
     3   6 C        3.802    -0.055    21.557     6.610
     4   6 C        3.802    -0.062    21.698     6.632
     5   6 C        3.799    -0.068    21.801     6.648
     6   6 C        3.692     0.078    19.449     6.311
     7   8 O        1.705    -0.277    18.594     5.822
     8   6 C        2.866     0.142    24.914     8.182
     9   6 C        2.921    -0.063    29.574     8.918
    10   6 C        2.913    -0.033    28.832     8.805
    11   6 C        3.065    -0.023    28.522     8.757
    12   6 C        3.068    -0.024    28.544     8.760
    13   6 C        2.912    -0.033    28.830     8.805
    14   6 C        2.921    -0.063    29.566     8.917
    15   6 C        2.864     0.145    24.852     8.172
    16   8 O        1.705    -0.273    18.522     5.811
    17   6 C        3.690     0.074    19.528     6.324
    18   6 C        3.800    -0.066    21.761     6.642
    19   6 C        3.802    -0.062    21.697     6.632
    20   6 C        3.802    -0.057    21.603     6.617
    21   6 C        3.801    -0.054    21.545     6.609
    22   6 C        3.752    -0.097    22.416     6.752
    23   6 C        2.909    -0.089    30.244     9.018
    24   6 C        3.069     0.044    26.952     8.513
    25   7 N        2.803    -0.044    22.083     6.979
    26   6 C        2.919     0.084    26.125     8.382
    27   6 C        2.916    -0.056    29.383     8.889
    28   6 C        2.904     0.062    26.603     8.457
    29   7 N        1.846    -0.241    27.157     7.723
    30   6 C        2.962     0.098    25.823     8.335
    31   6 C        2.974    -0.009    28.227     8.715
    32   6 C        2.934    -0.023    28.571     8.766
    33   6 C        2.912    -0.051    29.274     8.872
    34   6 C        2.791     0.179    24.146     8.049
    35   9 F        0.787    -0.195    11.183     3.950
    36   6 C        2.967    -0.011    28.288     8.724
    37   6 C        1.908     0.134    27.826     8.519
    38   7 N        0.911    -0.202    25.395     7.288
    39   6 C        2.795     0.173    24.281     8.072
    40   9 F        0.787    -0.201    11.250     3.962
    41   6 C        2.920    -0.058    29.443     8.898
    42   6 C        3.071     0.043    26.961     8.514
    43   6 C        2.909    -0.091    30.291     9.025
    44   1 H        0.925     0.036     2.505     2.475
    45   1 H        0.925     0.035     2.520     2.483
    46   1 H        0.925     0.033     2.538     2.492
    47   1 H        0.924     0.032     2.565     2.504
    48   1 H        0.924     0.030     2.584     2.514
    49   1 H        0.924     0.026     2.643     2.542
    50   1 H        0.924     0.026     2.648     2.545
    51   1 H        0.924     0.038     2.473     2.459
    52   1 H        0.924     0.033     2.540     2.492
    53   1 H        0.924     0.043     2.414     2.430
    54   1 H        0.924     0.043     2.415     2.430
    55   1 H        0.924     0.049     2.334     2.389
    56   1 H        0.924     0.029     2.596     2.520
    57   1 H        0.926     0.048     2.345     2.395
    58   1 H        0.926     0.040     2.443     2.444
    59   1 H        0.926     0.040     2.450     2.448
    60   1 H        0.926     0.049     2.335     2.389
    61   1 H        0.924     0.040     2.443     2.444
    62   1 H        0.924     0.053     2.284     2.363
    63   1 H        0.924     0.044     2.399     2.422
    64   1 H        0.924     0.037     2.495     2.470
    65   1 H        0.924     0.035     2.515     2.480
    66   1 H        0.924     0.036     2.497     2.471
    67   1 H        0.924     0.035     2.519     2.482
    68   1 H        0.924     0.025     2.660     2.551
    69   1 H        0.924     0.034     2.524     2.485
    70   1 H        0.924     0.030     2.582     2.513
    71   1 H        0.925     0.023     2.688     2.564
    72   1 H        0.925     0.037     2.493     2.469
    73   1 H        0.925     0.030     2.591     2.517
    74   1 H        0.926     0.040     2.453     2.449
    75   1 H        0.926     0.047     2.355     2.400
    76   1 H        0.925     0.045     2.382     2.413
    77   1 H        0.926     0.090     1.883     2.146
    78   1 H        0.926     0.079     1.986     2.204
    79   1 H        0.926     0.060     2.198     2.319
    80   1 H        0.926     0.036     2.509     2.477

molecular dipole:
                 x           y           z       tot (Debye)
 q only:        0.975       1.382      -0.999
   full:        1.343       1.670      -1.203       6.247

 projected vibrational frequencies (cm⁻¹)
eigval :       -0.00    -0.00    -0.00     0.00     0.00     0.00
eigval :        9.62    14.00    17.82    23.01    31.40    33.81
eigval :       41.36    48.90    56.14    61.36    65.02    72.85
eigval :       75.36    82.42    86.16    99.44   105.63   108.59
eigval :      113.57   118.22   122.85   129.81   140.82   167.14
eigval :      183.37   200.07   201.18   212.50   220.42   227.94
eigval :      237.32   243.08   243.84   252.12   257.27   260.01
eigval :      270.61   282.32   294.23   299.48   314.72   319.66
eigval :      330.68   348.55   386.85   391.90   393.04   399.05
eigval :      404.27   405.52   418.22   429.29   431.69   433.89
eigval :      439.10   448.59   454.16   498.69   528.52   537.71
eigval :      545.48   552.16   569.38   593.13   595.01   598.29
eigval :      608.20   609.86   615.99   642.84   661.17   666.83
eigval :      681.21   692.07   699.40   715.45   721.30   753.91
eigval :      759.22   771.67   779.28   796.97   797.97   808.22
eigval :      817.67   826.77   833.46   835.04   845.17   850.83
eigval :      856.22   864.98   904.00   904.76   906.25   911.76
eigval :      917.37   921.28   924.34   930.15   931.22   937.19
eigval :      973.48   976.47   980.22   988.43  1002.92  1005.71
eigval :     1017.55  1019.67  1039.88  1059.55  1062.04  1072.93
eigval :     1075.98  1105.73  1106.60  1110.91  1115.72  1120.69
eigval :     1125.08  1128.75  1132.33  1132.82  1143.52  1148.42
eigval :     1156.76  1161.47  1176.53  1183.57  1196.93  1199.31
eigval :     1207.77  1210.97  1228.84  1230.23  1233.22  1241.03
eigval :     1250.56  1253.08  1263.04  1266.90  1275.39  1275.70
eigval :     1283.42  1284.79  1287.32  1288.15  1288.93  1290.09
eigval :     1296.84  1304.60  1308.70  1312.54  1326.23  1347.66
eigval :     1348.16  1354.61  1356.62  1358.79  1359.04  1364.90
eigval :     1376.81  1377.51  1400.32  1414.18  1415.64  1417.81
eigval :     1429.10  1444.66  1463.69  1469.90  1473.70  1478.05
eigval :     1480.22  1489.25  1489.44  1493.80  1496.03  1497.36
eigval :     1497.39  1498.59  1500.86  1504.57  1505.25  1508.04
eigval :     1508.52  1511.10  1537.53  1556.84  1560.70  1564.54
eigval :     1582.09  1585.96  1606.87  1612.70  2381.57  2910.13
eigval :     2936.25  2950.54  2951.53  2963.60  2964.11  2965.13
eigval :     2967.09  2969.59  2969.83  2973.17  2976.36  2978.04
eigval :     2982.88  2983.16  2988.14  2989.81  2990.56  2995.25
eigval :     2995.59  3013.49  3030.00  3031.12  3034.32  3039.34
eigval :     3040.21  3063.45  3093.42  3096.47  3109.99  3112.80
eigval :     3113.24  3113.88  3120.56  3121.35  3122.50  3127.47

   temp. (K)  partition function   enthalpy   heat capacity  entropy
                                   cal/mol     cal/K/mol   cal/K/mol   J/K/mol
 298.15  VIB  0.188E+20            23982.091    142.215    152.805
         ROT  0.597E+08              888.752      2.981     38.563
         INT  0.112E+28            24870.843    145.196    191.368
         TR   0.136E+29             1481.254      4.968     44.946
         TOT                       26352.0971   150.1645   236.3142   988.7388

       T/K    H(0)-H(T)+PV         H(T)/Eh          T*S/Eh         G(T)/Eh
   ------------------------------------------------------------------------
    298.15    0.419947E-01    0.685604E+00    0.112281E+00    0.573323E+00
   ------------------------------------------------------------------------

         :::::::::::::::::::::::::::::::::::::::::::::::::::::
         ::                  THERMODYNAMIC                  ::
         :::::::::::::::::::::::::::::::::::::::::::::::::::::
         :: total free energy        -121.792723277547 Eh   ::
         ::.................................................::
         :: total energy             -122.366046272730 Eh   ::
         :: zero point energy           0.643608778617 Eh   ::
         :: G(RRHO) w/o ZPVE           -0.070285783434 Eh   ::
         :: G(RRHO) contrib.            0.573322995183 Eh   ::
         :::::::::::::::::::::::::::::::::::::::::::::::::::::

           -------------------------------------------------
          | TOTAL ENERGY             -122.366046272730 Eh   |
          | TOTAL ENTHALPY           -121.680442754382 Eh   |
          | TOTAL FREE ENERGY        -121.792723277547 Eh   |
          | GRADIENT NORM               0.000049198296 Eh/α |
          | HOMO-LUMO GAP               1.529207336308 eV   |
           -------------------------------------------------

 * finished run on 2025/09/13 at 23:25:08.007
