   * xtb version 6.7.1 (edcfbbe) compiled by 'albert@albert-system' on 2024-07-22

   ID    Z sym.   atoms
    1    6 C      1-6, 8-15, 17-24, 26-28, 30-34, 36, 37, 39, 41-43
    2    8 O      7, 16
    3    7 N      25, 29, 38
    4    9 F      35, 40
    5    1 H      44-80

          program call               : xtb data2507/gas/CBZ/CBZ.xyz --gfn 2 --ohess vtight --parallel 40 --molden --ceasefiles --namespace data2507/gas/CBZ/CBZ_gas_S0_preOpt
          :  Hamiltonian                  GFN2-xTB          :
 * total energy  :  -122.3383762 Eh     change       -0.3397204E-08 Eh
 * total energy  :  -122.3483937 Eh     change       -0.1001754E-01 Eh
 * total energy  :  -122.3503251 Eh     change       -0.1931333E-02 Eh
 * total energy  :  -122.3507403 Eh     change       -0.4152319E-03 Eh
 * total energy  :  -122.3509974 Eh     change       -0.2571411E-03 Eh
 * total energy  :  -122.3512748 Eh     change       -0.2773384E-03 Eh
 * total energy  :  -122.3513937 Eh     change       -0.1188912E-03 Eh
 * total energy  :  -122.3515031 Eh     change       -0.1094677E-03 Eh
 * total energy  :  -122.3515694 Eh     change       -0.6625018E-04 Eh
 * total energy  :  -122.3516344 Eh     change       -0.6504947E-04 Eh
 * total energy  :  -122.3522498 Eh     change       -0.3410730E-06 Eh
 * total energy  :  -122.3522501 Eh     change       -0.3360081E-06 Eh
 * total energy  :  -122.3522506 Eh     change       -0.4289025E-06 Eh
 * total energy  :  -122.3522509 Eh     change       -0.2982970E-06 Eh
 * total energy  :  -122.3522511 Eh     change       -0.2387375E-06 Eh
 * total energy  :  -122.3522515 Eh     change       -0.3507478E-06 Eh
 * total energy  :  -122.3522520 Eh     change       -0.5230749E-06 Eh
 * total energy  :  -122.3522525 Eh     change       -0.5318157E-06 Eh
 * total energy  :  -122.3522525 Eh     change       -0.5527085E-08 Eh
   *** GEOMETRY OPTIMIZATION CONVERGED AFTER 94 ITERATIONS ***

 final structure:
================
80
 xtb: 6.7.1 (edcfbbe)
C            9.90035023654805        0.69479018456231        0.30054912852323
C            8.49128578505368        0.51412829273497        0.85258698373480
C            7.65097794995131        1.79073279975558        0.78711272471732
C            7.42158154720160        2.34753520696707       -0.61984588922095
C            6.74626158056893        1.38542224398402       -1.59863409419411
C            5.33145441543671        0.99737175775205       -1.17921576922751
O            4.54657684374178        2.17125466173678       -1.14492705851905
C            3.25896245109732        2.09426528046553       -0.72118169163021
C            2.57626315436623        3.31998238545422       -0.66780606965879
C            1.25951438751325        3.38939168619111       -0.27704138531378
C            0.60542178664195        2.22003582758871        0.09207354726902
C           -0.73411606132005        1.92237596525215        0.51588453060385
C           -1.85729633180213        2.69550659840798        0.76026728402659
C           -3.01906596221493        2.08944600266614        1.19890883108221
C           -3.06885138995037        0.70953258732302        1.41849676730309
O           -4.15123048486310        0.02535338639898        1.88487226558985
C           -5.36730060957133        0.70115507997227        2.12586198270756
C           -6.14911813728058        0.99360863848001        0.84309880196754
C           -7.45425462503488        1.72403186017280        1.14774875704057
C           -8.31593676842504        1.95763136780182       -0.09348790711872
C           -7.71110129673569        2.95928859458011       -1.07541562203318
C           -8.65555930224956        3.24160950434074       -2.23758776754081
C           -1.94580299592402       -0.08298954267453        1.18025778118047
C           -0.79684365185935        0.52488847242676        0.71462649492851
N            0.44586931754488       -0.02781626979275        0.44112089466854
C            0.77846686470737       -1.37371942936981        0.53783398592843
C            1.95841771106601       -1.78382175252698        1.16161158353262
C            2.23556228336521       -3.13850125633119        1.21725328888092
N            1.44275485368935       -4.06965051682981        0.72375172240603
C            0.31316917514626       -3.68936972508209        0.13698802931717
C           -0.54380725726757       -4.76219603845323       -0.40206174887198
C           -1.16796160619075       -4.63301563446415       -1.64091782589806
C           -1.95729240844312       -5.64168489560823       -2.16198337014794
C           -2.13347192453785       -6.80343993924144       -1.43591533870212
F           -2.89548470861373       -7.78286853763150       -1.93950767249581
C           -1.53594191572519       -6.97865075723337       -0.18526342453425
C           -1.73170683735005       -8.16828392250967        0.55733672547250
N           -1.89637732451593       -9.13210811499586        1.15191579979595
C           -0.74010429582493       -5.94247698528382        0.31172941341172
F           -0.19765855198713       -6.09534914088377        1.52062981916461
C           -0.05985511353843       -2.35522028131109        0.01107299390449
C            1.30307730074084        0.99616018456164        0.06480314586129
C            2.62086952670403        0.91365692154512       -0.36090332279710
H           10.39952448026823        1.52356505724600        0.79798960601523
H            9.88000947481605        0.89572520724252       -0.76738745319606
H           10.48770480699658       -0.20611554448275        0.46381685978434
H            7.98945531289688       -0.29149136560086        0.31301212339507
H            8.55990550446992        0.20781288979238        1.89956316255997
H            6.68658009651983        1.60088809988363        1.26298801497277
H            8.14992386927592        2.56520286479283        1.37506586733705
H            8.37805626493412        2.65445170152552       -1.04574781846353
H            6.79701155533379        3.23871668224360       -0.53639994122832
H            7.33460207410448        0.47429992157339       -1.71040478241509
H            6.68725218022646        1.87143039142505       -2.57428393747997
H            5.34228594872803        0.51838933262644       -0.19150257889118
H            4.91341671658504        0.28450770718256       -1.90533732358555
H            3.11909859297944        4.20530948480138       -0.95753137487971
H            0.74091106938069        4.33525488247921       -0.25954254887928
H           -1.82683781798537        3.76433849205368        0.61436698307519
H           -3.88333401323537        2.70599227906536        1.38520325463634
H           -5.19477815677219        1.62420851479909        2.69340361182216
H           -5.93889671577668        0.01571292695448        2.75868723546178
H           -6.36198254784831        0.04680425770111        0.34254493669449
H           -5.52912334786527        1.59111094442114        0.17357064907162
H           -7.23101533665035        2.68562030164918        1.61679864331088
H           -8.02594110565702        1.13252139171833        1.86712007033012
H           -8.47974465897364        1.00552339654519       -0.60312152159549
H           -9.29137801555945        2.33138207673799        0.22713245517601
H           -6.76989284827799        2.57168285095760       -1.46860715055210
H           -7.49524496520369        3.89252517965073       -0.54988091032091
H           -9.59462890575808        3.65467905921820       -1.87561478288800
H           -8.21108700405252        3.95415630426592       -2.92849704341117
H           -8.87338831060833        2.32554396675753       -2.78238962591188
H           -2.00772905620301       -1.13849847159054        1.38990075712483
H            2.61974935356343       -1.06272235035856        1.61394676863809
H            3.13755746448094       -3.50276446827883        1.69022871936465
H           -1.01486068912918       -3.73140780476935       -2.21323421116758
H           -2.43390580553471       -5.54220138571730       -3.12384952986334
H           -0.97872474835842       -2.08019018299805       -0.48121933040443
H            3.11875067405426       -0.03995834242795       -0.42748617873216

          :  Hamiltonian                  GFN2-xTB          :
         :: gradient norm              0.000138234601 Eh/a0 ::
         :: HOMO-LUMO gap              1.794852705969 eV    ::
         :: SCC energy              -124.199213984981 Eh    ::
         :: -> dispersion             -0.087556229061 Eh    ::
         :: repulsion energy           1.846961463982 Eh    ::

    * Orbital Energies and Occupations

         #    Occupation            Energy/Eh            Energy/eV
      -------------------------------------------------------------
         1        2.0000           -0.8453023             -23.0018
       ...           ...                  ...                  ...
        99        2.0000           -0.4323127             -11.7638
       100        2.0000           -0.4309424             -11.7265
       101        2.0000           -0.4278373             -11.6420
       102        2.0000           -0.4266221             -11.6090
       103        2.0000           -0.4262121             -11.5978
       104        2.0000           -0.4240587             -11.5392
       105        2.0000           -0.4231097             -11.5134
       106        2.0000           -0.4223998             -11.4941
       107        2.0000           -0.4137448             -11.2586
       108        2.0000           -0.3972000             -10.8084
       109        2.0000           -0.3845501             -10.4641
       110        2.0000           -0.3748500             -10.2002
       111        2.0000           -0.3639063              -9.9024 (HOMO)
       112                         -0.2979467              -8.1075 (LUMO)
       113                         -0.2818250              -7.6688
       114                         -0.2623744              -7.1396
       115                         -0.2432486              -6.6191
       116                         -0.2413652              -6.5679
       117                         -0.2295427              -6.2462
       118                         -0.2194492              -5.9715
       119                         -0.2003611              -5.4521
       120                         -0.1898592              -5.1663
       121                         -0.1843276              -5.0158
       122                         -0.1289158              -3.5080
       ...                                ...                  ...
       209                          1.1666822              31.7470
      -------------------------------------------------------------
                  HL-Gap            0.0659596 Eh            1.7949 eV

     #   Z          covCN         q      C6AA      α(0)
     1   6 C        3.751    -0.103    22.521     6.768
     2   6 C        3.799    -0.052    21.517     6.605
     3   6 C        3.800    -0.058    21.616     6.620
     4   6 C        3.801    -0.059    21.639     6.623
     5   6 C        3.800    -0.062    21.689     6.631
     6   6 C        3.692     0.086    19.317     6.289
     7   8 O        1.706    -0.270    18.470     5.802
     8   6 C        2.867     0.141    24.920     8.183
     9   6 C        2.921    -0.063    29.574     8.918
    10   6 C        2.912    -0.033    28.831     8.805
    11   6 C        3.065    -0.024    28.545     8.761
    12   6 C        3.066    -0.023    28.522     8.757
    13   6 C        2.914    -0.036    28.886     8.813
    14   6 C        2.917    -0.074    29.858     8.960
    15   6 C        2.862     0.142    24.901     8.179
    16   8 O        1.706    -0.278    18.610     5.824
    17   6 C        3.690     0.078    19.461     6.313
    18   6 C        3.800    -0.068    21.805     6.648
    19   6 C        3.802    -0.060    21.660     6.626
    20   6 C        3.803    -0.060    21.648     6.624
    21   6 C        3.800    -0.054    21.537     6.608
    22   6 C        3.752    -0.103    22.535     6.770
    23   6 C        2.912    -0.079    29.965     8.976
    24   6 C        3.065     0.046    26.904     8.505
    25   7 N        2.802    -0.043    22.063     6.976
    26   6 C        2.919     0.084    26.123     8.381
    27   6 C        2.917    -0.055    29.378     8.888
    28   6 C        2.908     0.062    26.620     8.460
    29   7 N        1.843    -0.223    26.707     7.659
    30   6 C        2.967     0.102    25.745     8.323
    31   6 C        2.974    -0.007    28.197     8.710
    32   6 C        2.930    -0.028    28.702     8.786
    33   6 C        2.913    -0.053    29.323     8.880
    34   6 C        2.791     0.178    24.165     8.052
    35   9 F        0.787    -0.196    11.193     3.952
    36   6 C        2.966    -0.012    28.302     8.726
    37   6 C        1.907     0.135    27.811     8.517
    38   7 N        0.911    -0.198    25.301     7.275
    39   6 C        2.794     0.183    24.073     8.037
    40   9 F        0.787    -0.180    11.027     3.923
    41   6 C        2.921    -0.062    29.539     8.913
    42   6 C        3.069     0.045    26.920     8.507
    43   6 C        2.909    -0.091    30.275     9.022
    44   1 H        0.925     0.035     2.521     2.483
    45   1 H        0.925     0.035     2.513     2.479
    46   1 H        0.925     0.032     2.564     2.504
    47   1 H        0.924     0.027     2.627     2.534
    48   1 H        0.924     0.028     2.612     2.528
    49   1 H        0.924     0.028     2.612     2.527
    50   1 H        0.924     0.033     2.547     2.496
    51   1 H        0.924     0.038     2.480     2.462
    52   1 H        0.924     0.046     2.369     2.407
    53   1 H        0.924     0.042     2.427     2.436
    54   1 H        0.924     0.047     2.362     2.403
    55   1 H        0.924     0.029     2.595     2.519
    56   1 H        0.923     0.022     2.710     2.574
    57   1 H        0.926     0.048     2.343     2.394
    58   1 H        0.926     0.040     2.449     2.447
    59   1 H        0.926     0.037     2.483     2.464
    60   1 H        0.926     0.038     2.482     2.464
    61   1 H        0.924     0.029     2.598     2.521
    62   1 H        0.924     0.049     2.334     2.389
    63   1 H        0.924     0.043     2.407     2.426
    64   1 H        0.924     0.043     2.405     2.425
    65   1 H        0.924     0.031     2.571     2.507
    66   1 H        0.924     0.032     2.564     2.504
    67   1 H        0.924     0.034     2.531     2.488
    68   1 H        0.924     0.035     2.522     2.484
    69   1 H        0.924     0.031     2.576     2.510
    70   1 H        0.924     0.030     2.585     2.515
    71   1 H        0.925     0.034     2.529     2.487
    72   1 H        0.925     0.034     2.524     2.485
    73   1 H        0.925     0.034     2.529     2.487
    74   1 H        0.926     0.043     2.409     2.427
    75   1 H        0.926     0.048     2.346     2.395
    76   1 H        0.925     0.049     2.326     2.385
    77   1 H        0.926     0.067     2.124     2.279
    78   1 H        0.926     0.077     2.009     2.216
    79   1 H        0.926     0.048     2.347     2.396
    80   1 H        0.926     0.029     2.600     2.521

molecular dipole:
                 x           y           z       tot (Debye)
 q only:        0.257       2.145      -0.908
   full:        0.157       2.786      -1.123       7.644

 projected vibrational frequencies (cm⁻¹)
eigval :       -0.00    -0.00    -0.00    -0.00     0.00     0.00
eigval :        8.77    10.24    12.46    14.16    16.07    19.13
eigval :       25.37    29.05    34.80    44.32    49.39    59.52
eigval :       63.49    69.50    78.84    83.36    86.97    97.41
eigval :      106.93   122.63   124.75   142.09   148.98   163.77
eigval :      171.66   182.83   201.09   213.45   216.85   221.31
eigval :      226.23   233.52   239.32   258.41   266.12   270.97
eigval :      274.19   284.27   286.47   299.80   305.41   327.10
eigval :      337.61   360.16   370.86   386.55   396.27   399.90
eigval :      405.04   420.35   428.14   428.44   433.62   441.18
eigval :      442.68   450.02   489.68   505.14   520.09   528.58
eigval :      547.32   557.45   572.07   576.65   594.20   595.94
eigval :      602.70   609.69   627.37   643.61   665.26   668.03
eigval :      681.11   689.76   699.31   717.72   724.00   746.38
eigval :      753.80   769.60   772.64   788.69   795.76   804.67
eigval :      812.57   830.73   841.35   850.25   850.72   857.48
eigval :      862.75   869.22   889.56   890.99   896.41   897.39
eigval :      904.17   913.74   922.19   925.00   929.07   941.20
eigval :      970.25   977.06   992.79  1000.74  1004.88  1014.70
eigval :     1021.28  1028.93  1034.20  1044.76  1052.28  1052.96
eigval :     1079.41  1086.49  1086.65  1105.67  1118.11  1120.34
eigval :     1127.33  1132.93  1136.34  1145.38  1150.54  1158.01
eigval :     1161.91  1170.04  1177.61  1186.23  1187.31  1194.59
eigval :     1200.11  1200.76  1212.15  1229.39  1236.12  1239.64
eigval :     1241.43  1249.74  1258.62  1261.54  1262.71  1271.15
eigval :     1275.88  1283.18  1289.93  1290.54  1291.64  1297.24
eigval :     1311.57  1311.74  1317.65  1334.16  1341.26  1345.48
eigval :     1347.99  1352.39  1360.14  1364.66  1366.12  1367.02
eigval :     1374.46  1378.33  1391.76  1416.36  1417.15  1422.41
eigval :     1426.29  1442.07  1464.36  1466.60  1467.73  1473.29
eigval :     1478.58  1481.18  1483.14  1488.12  1490.85  1492.07
eigval :     1495.93  1501.33  1502.66  1504.27  1504.65  1507.31
eigval :     1509.92  1514.31  1540.55  1557.41  1565.92  1567.78
eigval :     1576.38  1589.68  1607.33  1617.72  2382.17  2864.84
eigval :     2902.59  2902.91  2959.14  2960.06  2960.24  2961.58
eigval :     2965.22  2971.12  2978.39  2979.93  2981.07  2983.80
eigval :     2985.80  2986.14  2988.90  2990.26  2999.59  3003.05
eigval :     3003.88  3031.09  3032.24  3033.75  3034.63  3039.16
eigval :     3045.18  3066.22  3090.78  3095.11  3102.47  3106.19
eigval :     3107.19  3109.87  3110.54  3111.72  3112.76  3118.93

   temp. (K)  partition function   enthalpy   heat capacity  entropy
                                   cal/mol     cal/K/mol   cal/K/mol   J/K/mol
 298.15  VIB  0.329E+22            24277.035    139.853    156.844
         ROT  0.110E+09              888.752      2.981     39.772
         INT  0.361E+30            25165.787    142.833    196.616
         TR   0.136E+29             1481.254      4.968     44.946
         TOT                       26647.0413   147.8016   241.5619  1010.6950

       T/K    H(0)-H(T)+PV         H(T)/Eh          T*S/Eh         G(T)/Eh
   ------------------------------------------------------------------------
    298.15    0.424648E-01    0.685209E+00    0.114774E+00    0.570435E+00
   ------------------------------------------------------------------------

         :::::::::::::::::::::::::::::::::::::::::::::::::::::
         ::                  THERMODYNAMIC                  ::
         :::::::::::::::::::::::::::::::::::::::::::::::::::::
         :: total free energy        -121.781817852112 Eh   ::
         ::.................................................::
         :: total energy             -122.352252521000 Eh   ::
         :: zero point energy           0.642743761155 Eh   ::
         :: G(RRHO) w/o ZPVE           -0.072309092267 Eh   ::
         :: G(RRHO) contrib.            0.570434668888 Eh   ::
         :::::::::::::::::::::::::::::::::::::::::::::::::::::

           -------------------------------------------------
          | TOTAL ENERGY             -122.352252521000 Eh   |
          | TOTAL ENTHALPY           -121.667043996560 Eh   |
          | TOTAL FREE ENERGY        -121.781817852112 Eh   |
          | GRADIENT NORM               0.000138170114 Eh/α |
          | HOMO-LUMO GAP               1.794852755905 eV   |
           -------------------------------------------------

 * finished run on 2025/09/13 at 22:58:59.874
