   * xtb version 6.7.1 (edcfbbe) compiled by 'albert@albert-system' on 2024-07-22

   ID    Z sym.   atoms
    1    6 C      1, 2, 4-9, 11-18, 20-30, 32-38, 40-56
    2    7 N      3, 19, 31, 39
    3   14 Si     10
    4    1 H      57-92

          program call               : xtb data2507/toluene/SiCz1Py3/SiCz1Py3.xyz --gfn 2 --gbsa toluene --ohess vtight --parallel 40 --molden --ceasefiles --namespace data2507/toluene/SiCz1Py3/SiCz1Py3_toluene_S0_preOpt
      * Solvation model:               GBSA
        Solvent                        toluene
        Solvent mass                       9.2140E+01 g/mol
          :  Hamiltonian                  GFN2-xTB          :
 * total energy  :  -140.9902906 Eh     change       -0.2429886E-08 Eh
 * total energy  :  -141.0080431 Eh     change       -0.1775245E-01 Eh
 * total energy  :  -141.0111891 Eh     change       -0.3146027E-02 Eh
 * total energy  :  -141.0116607 Eh     change       -0.4716243E-03 Eh
 * total energy  :  -141.0120881 Eh     change       -0.4273580E-03 Eh
 * total energy  :  -141.0122925 Eh     change       -0.2044439E-03 Eh
 * total energy  :  -141.0124807 Eh     change       -0.1881697E-03 Eh
 * total energy  :  -141.0126344 Eh     change       -0.1536916E-03 Eh
 * total energy  :  -141.0127565 Eh     change       -0.1220910E-03 Eh
 * total energy  :  -141.0128552 Eh     change       -0.9870913E-04 Eh
 * total energy  :  -141.0131309 Eh     change       -0.2980979E-06 Eh
 * total energy  :  -141.0131311 Eh     change       -0.2197291E-06 Eh
 * total energy  :  -141.0131313 Eh     change       -0.1918964E-06 Eh
 * total energy  :  -141.0131316 Eh     change       -0.2688641E-06 Eh
 * total energy  :  -141.0131321 Eh     change       -0.5280801E-06 Eh
 * total energy  :  -141.0131330 Eh     change       -0.8453405E-06 Eh
 * total energy  :  -141.0131337 Eh     change       -0.7479451E-06 Eh
 * total energy  :  -141.0131343 Eh     change       -0.5615506E-06 Eh
 * total energy  :  -141.0131343 Eh     change       -0.6781335E-08 Eh
   *** GEOMETRY OPTIMIZATION CONVERGED AFTER 68 ITERATIONS ***

 final structure:
================
92
 xtb: 6.7.1 (edcfbbe)
C           -4.41184971597947       -7.66951462139677       -0.20873680578133
C           -3.39013269936014       -8.60721817517410       -0.23580790964594
N           -2.10812251632366       -8.27773765537957       -0.23942413938385
C           -1.79186284013558       -6.99654051660975       -0.20998907300627
C           -2.72853865999787       -5.96155205786531       -0.17283512410257
C           -2.31057977009670       -4.55481850307876       -0.13862458153475
C           -2.97615041327166       -3.59614805062733       -0.90003254720403
C           -2.57737602254961       -2.27385645829491       -0.86854468330783
C           -1.51089104369883       -1.85989394599083       -0.07617589320248
Si          -0.97350393225513       -0.04362464233110        0.00407629879463
C           -1.67171753716070        0.77193031648029        1.56677997915683
C           -1.73471031568170        2.15966641984447        1.67154069067591
C           -2.23005670788604        2.77228366223670        2.80558299352358
C           -2.69028220852644        2.00948136483715        3.87774965975335
C           -3.23126393720235        2.65604125349865        5.07941670521232
C           -2.64462653802232        3.79534816803710        5.62988401684137
C           -3.19997041033957        4.36423804322579        6.76268106282515
C           -4.32654275740670        3.77246406694978        7.31455235085567
N           -4.89948485730627        2.69445834063290        6.80279951425761
C           -4.36805638074330        2.15845412714972        5.71998532917969
C           -2.63470715525467        0.62059049481038        3.77883324106968
C           -2.13052936590371        0.01764504291631        2.64268934203845
C           -1.63380222714066        0.89713616734917       -1.50399518673361
C           -0.82773497879199        1.18092231813448       -2.60239153298696
C           -1.32521496110963        1.85123764782289       -3.70316906408017
C           -2.65785543351680        2.25666965319685       -3.74291546941267
C           -3.19367142124133        2.96175916157218       -4.91354159715569
C           -2.46085009662167        3.94353631888369       -5.58010608796717
C           -3.01703687407547        4.57743365336066       -6.67734712045336
C           -4.29466776927873        4.21155679295616       -7.07438959898816
N           -5.00179747850308        3.27739775788282       -6.45837300616002
C           -4.46496855915814        2.67360640375578       -5.41460642635013
C           -3.47178261589869        1.97733342585663       -2.64622213777691
C           -2.96284630800417        1.31296546055749       -1.54785923802653
C            0.92125855293517        0.01298821632452        0.02866508769821
C            1.65916945694401       -0.81458457318153       -0.81476165079901
C            3.03963624168692       -0.77917396805135       -0.83116762346164
C            3.72197224536677        0.08745589945533        0.01856725208676
N            5.12452316981813        0.12431487432729        0.01373578922490
C            5.90249545821899        1.25901197767657       -0.10192258856244
C            5.51748535855774        2.58008917206467       -0.28469119289011
C            6.51211369931082        3.53262869635229       -0.39896990158005
C            7.86105766931738        3.18672838896247       -0.34418559528538
C            8.25056002767191        1.87132922925458       -0.18703196523981
C            7.26896431655987        0.89537585698196       -0.06883586669813
C            7.30710956748839       -0.53288881941195        0.08022878174232
C            8.33966013512579       -1.45589383363313        0.18965068451857
C            8.02130062177856       -2.79020089647185        0.34737112496186
C            6.69290588158117       -3.20691168285749        0.41113694895925
C            5.64869205688336       -2.30789346612539        0.30619211433203
C            5.96203721621497       -0.96805985329463        0.12309445440432
C            2.99983468774103        0.91407518019940        0.87458728211799
C            1.61869689919398        0.87538196182619        0.86916377714739
C           -0.84922214562113       -2.82465294123257        0.68050242127768
C           -1.23603427030650       -4.14988515494027        0.65152485621018
C           -4.07423739600361       -6.32787433657327       -0.17633522422264
H           -5.44458172170891       -7.98292814009354       -0.20724513532819
H           -3.59877819398201       -9.66909985538252       -0.25503953260139
H           -0.73089448224813       -6.78094557723082       -0.23345005180042
H           -3.79693235564969       -3.89566021017948       -1.53627015596024
H           -3.10026370766734       -1.54771616500968       -1.47397672894195
H           -1.39494233250630        2.76811538825544        0.84525416647564
H           -2.28436987738897        3.85068408910453        2.85500214284648
H           -1.75416472048113        4.21570529393696        5.18438950889816
H           -2.76603173960054        5.24393616868437        7.21287872179227
H           -4.79578717301824        4.17207483756064        8.20427492709342
H           -4.88617136538870        1.29104358641364        5.33036151954646
H           -2.97258989680250        0.01363356265611        4.60672798715020
H           -2.09570475368756       -1.06065395017443        2.58621113266432
H            0.20788683345511        0.87353281533278       -2.59243937641243
H           -0.68276976763854        2.04493180943968       -4.55054852131084
H           -1.47606655804605        4.21699635671520       -5.22886703512588
H           -2.47518983612320        5.34373168379013       -7.21023692945802
H           -4.77906475163384        4.68151299882344       -7.92053711017311
H           -5.07659642847893        1.90422918451527       -4.96007080396577
H           -4.50242015910480        2.30281374121254       -2.65070716526479
H           -3.60642894173293        1.11596865624163       -0.70198542630907
H            1.14051488823035       -1.49689402441585       -1.47295737437685
H            3.59721993189207       -1.41123313133934       -1.50700993100661
H            4.47553519078523        2.85629961882272       -0.34536334136794
H            6.23804723190852        4.56848087712880       -0.53798115725798
H            8.60892041241477        3.96095528876857       -0.43525656658953
H            9.29598010970783        1.60179268562991       -0.16076128467363
H            9.36920775267984       -1.13161273169718        0.15602919298016
H            8.80964208743540       -3.52398148190278        0.43135909627745
H            6.47466693286923       -4.25597036074428        0.54967648680468
H            4.62341418960713       -2.63924331812348        0.37379588160777
H            3.52774687549837        1.57196438217322        1.54959193726798
H            1.06953083462626        1.51844247832858        1.54113301021456
H           -0.01500081697848       -2.52886241819720        1.30099169505491
H           -0.71789811031873       -4.87783874699884        1.25963760720676
H           -4.84246052294690       -5.56882075490593       -0.13461731282342

          :  Hamiltonian                  GFN2-xTB          :
         :: gradient norm              0.000058082361 Eh/a0 ::
         :: HOMO-LUMO gap              2.655673784196 eV    ::
         :: SCC energy              -143.640149892441 Eh    ::
         :: -> dispersion             -0.125284056319 Eh    ::
         :: -> Gsolv                  -0.063953669921 Eh    ::
         :: repulsion energy           2.627015599116 Eh    ::

    * Orbital Energies and Occupations

         #    Occupation            Energy/Eh            Energy/eV
      -------------------------------------------------------------
         1        2.0000           -0.7596388             -20.6708
       ...           ...                  ...                  ...
       120        2.0000           -0.4082601             -11.1093
       121        2.0000           -0.4056370             -11.0379
       122        2.0000           -0.4017783             -10.9329
       123        2.0000           -0.4005564             -10.8997
       124        2.0000           -0.3975917             -10.8190
       125        2.0000           -0.3919460             -10.6654
       126        2.0000           -0.3895546             -10.6003
       127        2.0000           -0.3889508             -10.5839
       128        2.0000           -0.3788013             -10.3077
       129        2.0000           -0.3712418             -10.1020
       130        2.0000           -0.3711393             -10.0992
       131        2.0000           -0.3707757             -10.0893
       132        2.0000           -0.3623633              -9.8604 (HOMO)
       133                         -0.2647691              -7.2047 (LUMO)
       134                         -0.2632612              -7.1637
       135                         -0.2615213              -7.1164
       136                         -0.2494810              -6.7887
       137                         -0.2489308              -6.7738
       138                         -0.2484896              -6.7617
       139                         -0.2481111              -6.7514
       140                         -0.2416432              -6.5754
       141                         -0.2301261              -6.2621
       142                         -0.2272784              -6.1846
       143                         -0.2261087              -6.1527
       ...                                ...                  ...
       265                          0.7440720              20.2472
      -------------------------------------------------------------
                  HL-Gap            0.0975942 Eh            2.6557 eV

     #   Z          covCN         q      C6AA      α(0)
     1   6 C        2.911    -0.040    28.992     8.829
     2   6 C        2.913     0.058    26.708     8.474
     3   7 N        1.835    -0.241    27.145     7.721
     4   6 C        2.917     0.056    26.737     8.479
     5   6 C        2.972     0.001    28.005     8.680
     6   6 C        2.976     0.008    27.840     8.655
     7   6 C        2.922    -0.034    28.840     8.807
     8   6 C        2.933    -0.032    28.808     8.802
     9   6 C        2.862    -0.092    30.305     9.023
    10  14 Si       3.610     0.492    98.154    19.020
    11   6 C        2.862    -0.092    30.301     9.023
    12   6 C        2.936    -0.032    28.790     8.800
    13   6 C        2.921    -0.034    28.851     8.808
    14   6 C        2.976     0.008    27.841     8.655
    15   6 C        2.972     0.001    28.004     8.680
    16   6 C        2.933    -0.017    28.430     8.745
    17   6 C        2.911    -0.040    28.994     8.830
    18   6 C        2.912     0.058    26.709     8.475
    19   7 N        1.835    -0.241    27.144     7.721
    20   6 C        2.917     0.056    26.736     8.479
    21   6 C        2.922    -0.034    28.858     8.809
    22   6 C        2.933    -0.032    28.795     8.800
    23   6 C        2.862    -0.092    30.298     9.022
    24   6 C        2.933    -0.033    28.814     8.803
    25   6 C        2.922    -0.034    28.842     8.807
    26   6 C        2.976     0.008    27.842     8.655
    27   6 C        2.972     0.001    28.004     8.680
    28   6 C        2.933    -0.017    28.431     8.745
    29   6 C        2.911    -0.040    28.994     8.829
    30   6 C        2.913     0.058    26.709     8.475
    31   7 N        1.835    -0.241    27.144     7.721
    32   6 C        2.917     0.056    26.736     8.479
    33   6 C        2.921    -0.035    28.866     8.811
    34   6 C        2.936    -0.031    28.773     8.797
    35   6 C        2.862    -0.095    30.379     9.034
    36   6 C        2.938    -0.031    28.766     8.796
    37   6 C        2.919    -0.044    29.081     8.843
    38   6 C        2.913     0.064    26.560     8.451
    39   7 N        2.802    -0.047    22.149     6.990
    40   6 C        3.075     0.047    26.858     8.497
    41   6 C        2.909    -0.052    29.300     8.876
    42   6 C        2.924    -0.035    28.882     8.813
    43   6 C        2.919    -0.043    29.068     8.841
    44   6 C        2.912    -0.035    28.873     8.811
    45   6 C        3.067    -0.019    28.411     8.740
    46   6 C        3.067    -0.019    28.413     8.740
    47   6 C        2.912    -0.035    28.873     8.811
    48   6 C        2.919    -0.043    29.063     8.841
    49   6 C        2.924    -0.035    28.876     8.812
    50   6 C        2.909    -0.052    29.295     8.875
    51   6 C        3.075     0.047    26.859     8.497
    52   6 C        2.919    -0.043    29.076     8.842
    53   6 C        2.935    -0.032    28.790     8.800
    54   6 C        2.936    -0.031    28.776     8.798
    55   6 C        2.921    -0.035    28.866     8.811
    56   6 C        2.933    -0.017    28.429     8.744
    57   1 H        0.926     0.042     2.426     2.436
    58   1 H        0.925     0.036     2.502     2.473
    59   1 H        0.925     0.037     2.493     2.469
    60   1 H        0.926     0.033     2.549     2.497
    61   1 H        0.926     0.028     2.609     2.526
    62   1 H        0.926     0.028     2.620     2.531
    63   1 H        0.926     0.033     2.547     2.496
    64   1 H        0.926     0.043     2.407     2.426
    65   1 H        0.926     0.042     2.427     2.436
    66   1 H        0.925     0.036     2.502     2.473
    67   1 H        0.925     0.037     2.494     2.469
    68   1 H        0.926     0.031     2.573     2.508
    69   1 H        0.926     0.028     2.611     2.527
    70   1 H        0.926     0.029     2.600     2.522
    71   1 H        0.926     0.033     2.548     2.496
    72   1 H        0.926     0.043     2.409     2.427
    73   1 H        0.926     0.042     2.428     2.437
    74   1 H        0.925     0.036     2.502     2.474
    75   1 H        0.925     0.037     2.492     2.469
    76   1 H        0.926     0.031     2.572     2.508
    77   1 H        0.926     0.027     2.629     2.536
    78   1 H        0.926     0.031     2.568     2.506
    79   1 H        0.926     0.039     2.461     2.453
    80   1 H        0.926     0.030     2.583     2.513
    81   1 H        0.926     0.030     2.592     2.517
    82   1 H        0.926     0.027     2.626     2.534
    83   1 H        0.926     0.030     2.593     2.518
    84   1 H        0.926     0.030     2.592     2.518
    85   1 H        0.926     0.027     2.623     2.533
    86   1 H        0.926     0.030     2.587     2.515
    87   1 H        0.926     0.030     2.583     2.514
    88   1 H        0.926     0.039     2.463     2.454
    89   1 H        0.926     0.033     2.549     2.497
    90   1 H        0.926     0.027     2.629     2.535
    91   1 H        0.926     0.031     2.571     2.507
    92   1 H        0.926     0.043     2.407     2.426

molecular dipole:
                 x           y           z       tot (Debye)
 q only:        0.080       0.716      -0.052
   full:        0.370       1.180      -0.075       3.150

 projected vibrational frequencies (cm⁻¹)
eigval :       -0.00    -0.00    -0.00    -0.00     0.00     0.00
eigval :       -0.15     6.28     9.08    10.63    12.82    14.06
eigval :       16.13    22.80    27.00    39.22    43.70    52.14
eigval :       59.31    62.45    67.43    70.74    73.42    77.68
eigval :       80.52    83.80    84.68   101.89   119.57   135.58
eigval :      146.12   151.36   157.58   166.09   168.12   178.59
eigval :      193.08   201.28   220.33   252.03   266.99   270.43
eigval :      275.98   280.36   291.64   309.52   318.44   331.96
eigval :      358.03   359.05   362.07   362.60   366.77   369.28
eigval :      371.44   372.82   374.71   377.35   386.10   391.96
eigval :      401.43   422.22   435.75   473.74   474.77   476.19
eigval :      483.12   509.17   511.99   517.92   518.87   534.05
eigval :      536.12   537.80   538.46   541.09   581.10   594.69
eigval :      595.13   595.89   596.91   605.17   606.48   607.32
eigval :      613.27   638.21   663.09   665.35   666.84   672.70
eigval :      678.82   680.05   680.82   682.44   691.30   692.34
eigval :      692.52   706.53   742.28   758.16   769.15   775.30
eigval :      775.97   776.55   777.84   780.35   783.14   783.60
eigval :      811.38   813.34   814.31   816.56   867.90   873.42
eigval :      875.67   877.07   880.61   885.77   897.50   899.46
eigval :      900.58   902.08   903.09   904.31   911.23   912.96
eigval :      913.24   920.17   921.46   921.83   923.30   925.35
eigval :      927.22   927.93   928.64   930.64   931.71   932.68
eigval :      933.79   937.44   939.54   976.68   977.40   977.51
eigval :     1007.93  1008.68  1008.74  1011.11  1014.51  1069.02
eigval :     1072.07  1081.99  1082.44  1082.56  1094.22  1094.77
eigval :     1094.83  1116.74  1135.63  1135.87  1136.43  1137.94
eigval :     1143.68  1144.97  1145.47  1146.62  1150.31  1150.69
eigval :     1151.90  1152.47  1174.51  1179.48  1184.34  1193.62
eigval :     1194.67  1194.97  1207.06  1207.85  1208.74  1211.63
eigval :     1235.34  1243.85  1264.61  1264.92  1265.87  1273.04
eigval :     1273.99  1274.49  1275.15  1279.51  1280.13  1281.21
eigval :     1295.23  1295.34  1295.79  1298.71  1300.86  1307.10
eigval :     1307.16  1308.24  1309.00  1354.82  1359.96  1361.55
eigval :     1379.45  1379.82  1381.00  1393.22  1402.93  1403.18
eigval :     1403.70  1426.69  1427.01  1440.77  1440.91  1441.34
eigval :     1473.78  1485.12  1486.45  1487.37  1487.51  1487.74
eigval :     1549.02  1549.41  1550.01  1554.55  1561.91  1561.92
eigval :     1562.05  1569.99  1570.02  1570.12  1572.82  1585.10
eigval :     1587.78  1591.56  1591.80  1593.04  1596.67  1612.66
eigval :     3048.64  3048.80  3049.08  3053.97  3054.95  3055.39
eigval :     3062.82  3063.62  3063.91  3067.16  3067.40  3068.60
eigval :     3069.63  3069.78  3070.44  3070.65  3071.27  3072.03
eigval :     3074.30  3075.52  3075.72  3076.02  3076.51  3076.66
eigval :     3079.98  3080.46  3081.07  3083.68  3084.32  3084.74
eigval :     3086.83  3089.44  3090.44  3090.61  3090.78  3092.79

   temp. (K)  partition function   enthalpy   heat capacity  entropy
                                   cal/mol     cal/K/mol   cal/K/mol   J/K/mol
 298.15  VIB  0.278E+24            27109.493    165.856    173.664
         ROT  0.197E+09              888.752      2.981     40.938
         INT  0.549E+32            27998.245    168.837    214.602
         TR   0.192E+29             1481.254      4.968     45.635
         TOT                       29479.4990   173.8052   260.2366  1088.8300

       T/K    H(0)-H(T)+PV         H(T)/Eh          T*S/Eh         G(T)/Eh
   ------------------------------------------------------------------------
    298.15    0.469786E-01    0.750134E+00    0.123647E+00    0.626487E+00
   ------------------------------------------------------------------------

         :::::::::::::::::::::::::::::::::::::::::::::::::::::
         ::                  THERMODYNAMIC                  ::
         :::::::::::::::::::::::::::::::::::::::::::::::::::::
         :: total free energy        -140.386647144361 Eh   ::
         ::.................................................::
         :: total energy             -141.013134294171 Eh   ::
         :: zero point energy           0.703155392677 Eh   ::
         :: G(RRHO) w/o ZPVE           -0.076668242867 Eh   ::
         :: G(RRHO) contrib.            0.626487149810 Eh   ::
         :::::::::::::::::::::::::::::::::::::::::::::::::::::

           -------------------------------------------------
          | TOTAL ENERGY             -141.013134294171 Eh   |
          | TOTAL ENTHALPY           -140.263000329452 Eh   |
          | TOTAL FREE ENERGY        -140.386647144361 Eh   |
          | GRADIENT NORM               0.000058081555 Eh/α |
          | HOMO-LUMO GAP               2.655673358217 eV   |
           -------------------------------------------------

 * finished run on 2025/08/30 at 09:07:18.918
