   * xtb version 6.7.1 (edcfbbe) compiled by 'albert@albert-system' on 2024-07-22

   ID    Z sym.   atoms
    1    6 C      1, 2, 4-9, 11-18, 20-30, 32-38, 40-56
    2    7 N      3, 19, 31, 39
    3   14 Si     10
    4    1 H      57-92

          program call               : xtb data2507/toluene/SiCz1Py3/SiCz1Py3_toluene_T1_crest.xyz --gfn 2 --uhf 2 --gbsa toluene --ohess vtight --parallel 40 --molden --ceasefiles --namespace data2507/toluene/SiCz1Py3/SiCz1Py3_toluene_T1_finalOpt
      * Solvation model:               GBSA
        Solvent                        toluene
        Solvent mass                       9.2140E+01 g/mol
          :  Hamiltonian                  GFN2-xTB          :
 * total energy  :  -140.9089300 Eh     change       -0.2264309E-07 Eh
 * total energy  :  -140.9089904 Eh     change       -0.6037929E-04 Eh
 * total energy  :  -140.9090171 Eh     change       -0.2672876E-04 Eh
 * total energy  :  -140.9090233 Eh     change       -0.6159007E-05 Eh
 * total energy  :  -140.9090263 Eh     change       -0.3030788E-05 Eh
 * total energy  :  -140.9090294 Eh     change       -0.3111830E-05 Eh
 * total energy  :  -140.9090329 Eh     change       -0.3500796E-05 Eh
 * total energy  :  -140.9090359 Eh     change       -0.2945050E-05 Eh
 * total energy  :  -140.9090381 Eh     change       -0.2261524E-05 Eh
 * total energy  :  -140.9090396 Eh     change       -0.1519520E-05 Eh
 * total energy  :  -140.9090700 Eh     change       -0.6538381E-06 Eh
 * total energy  :  -140.9090706 Eh     change       -0.5655001E-06 Eh
 * total energy  :  -140.9090712 Eh     change       -0.6104286E-06 Eh
 * total energy  :  -140.9090716 Eh     change       -0.4716092E-06 Eh
 * total energy  :  -140.9090717 Eh     change       -0.3236065E-07 Eh
 * total energy  :  -140.9090720 Eh     change       -0.3148585E-06 Eh
 * total energy  :  -140.9090723 Eh     change       -0.2903957E-06 Eh
 * total energy  :  -140.9090725 Eh     change       -0.2387026E-06 Eh
 * total energy  :  -140.9090725 Eh     change       -0.7794739E-08 Eh
   *** GEOMETRY OPTIMIZATION CONVERGED AFTER 44 ITERATIONS ***

 final structure:
================
92
 xtb: 6.7.1 (edcfbbe)
C           -4.02025756960381       -7.72864641760704       -1.59291498853073
C           -3.49172946073618       -8.62646895765144       -0.65076739367565
N           -2.71458070637008       -8.17550441190302        0.32901472300857
C           -2.36032139714572       -6.93330162378586        0.41018575096938
C           -2.74652428422456       -5.93145245175765       -0.54110607076602
C           -2.36439644641535       -4.57985944617576       -0.39947372623878
C           -3.04203380565804       -3.52295955612604       -1.08764578624041
C           -2.62033007718007       -2.22987997485033       -1.00443936200540
C           -1.51534233340792       -1.84838063359807       -0.21376609987954
Si          -0.97572524781860       -0.06702031416432       -0.01539489911539
C           -1.60026359593738        0.70062030127556        1.60734914792196
C           -1.80858667329548        2.07424177138539        1.71877393230115
C           -2.27703374404377        2.63770766387585        2.88838567147032
C           -2.55338927996382        1.84002955805203        3.99925851669912
C           -3.04648114049575        2.43166165346506        5.24593814857384
C           -2.63022864804424        1.97096208018905        6.49725974541208
C           -3.12731351626433        2.56661290334412        7.64221070282644
C           -4.02822345059421        3.61297825638471        7.50641220759394
N           -4.43799800743215        4.05749995585059        6.32833468839906
C           -3.96453163986361        3.48568026527799        5.23875566617909
C           -2.35099354733581        0.46354157637908        3.89305834178272
C           -1.88918284446949       -0.09073415793064        2.71619309949592
C           -1.63025114677158        0.98814300559231       -1.44647398269197
C           -0.80516061494124        1.42637217254557       -2.47781064386502
C           -1.30109733802466        2.18313588371233       -3.52089773955086
C           -2.65006649155803        2.53476292100770       -3.56386872254077
C           -3.18219932571243        3.34071537468077       -4.66662441233581
C           -4.13434096009091        4.34077624764718       -4.45818372177026
C           -4.60180444305485        5.07061693881786       -5.53628137408708
C           -4.09993192963778        4.78325740694701       -6.79735510100026
N           -3.20132007596201        3.83493325865156       -7.01262672350733
C           -2.76057683568759        3.13833899004688       -5.98356251617373
C           -3.48201252124742        2.10152747140277       -2.53135824618161
C           -2.97643093347671        1.34172283753252       -1.49589515483145
C            0.92440047121545        0.00093091643460       -0.00161614847041
C            1.66209090298848       -0.79998664281426       -0.87027852325857
C            3.04221498222134       -0.76376077209318       -0.88719510955046
C            3.72382369550805        0.08248662496991       -0.01541452399385
N            5.12566013754620        0.12223210857840       -0.02089412907895
C            5.90014043825434        1.26102100226134       -0.10496864286538
C            5.51005019844911        2.58621394411836       -0.24921682655533
C            6.50293698484044        3.54448768991077       -0.33683894604235
C            7.85176846697161        3.19941447002581       -0.29384737406002
C            8.24636253610355        1.87852502524187       -0.17604790171798
C            7.26809915446577        0.89941501503390       -0.08344742243647
C            7.30828894200470       -0.53490035242705        0.02698650160298
C            8.33987398519632       -1.45833200293156        0.11229222637169
C            8.01989936556303       -2.79908561929976        0.23235435516590
C            6.69259185727445       -3.21845414567521        0.28414881158865
C            5.64760737595939       -2.31664017147943        0.20380391107592
C            5.96265265662567       -0.97178653944217        0.05774847762414
C            3.00224544697195        0.88558183518102        0.86425554819220
C            1.62157358633600        0.83873902654713        0.86341723794122
C           -0.83511259804076       -2.88693219390935        0.46403625510385
C           -1.24520597260128       -4.18396762889576        0.39769568933042
C           -3.63544979443197       -6.41897241768168       -1.55679030646497
H           -4.66862205011432       -8.10112094917629       -2.37175786392925
H           -3.66902914005625       -9.68894967334846       -0.69093280820668
H           -1.82009270889530       -6.65614406003901        1.30441282701555
H           -3.90674682963007       -3.75857592718697       -1.68953375411382
H           -3.14988169891949       -1.46452990853895       -1.55484810202747
H           -1.59489795828174        2.71119426728494        0.87170363851018
H           -2.40973853557590        3.70844223791005        2.95486166526932
H           -1.90975841399277        1.16849458745253        6.56596729746077
H           -2.81855373307701        2.23341349739246        8.62121705199302
H           -4.44254828442090        4.11946140034390        8.36812769216353
H           -4.35094916761785        3.87568159953594        4.30552621857710
H           -2.58181624993516       -0.17665861511880        4.73284888576661
H           -1.75174811745914       -1.16042758643707        2.65119643182423
H            0.24509353580600        1.17353712437691       -2.45905314985831
H           -0.63617480899044        2.52692625168179       -4.30062017863761
H           -4.48621020733627        4.55277852843154       -3.45860338174990
H           -5.33459375679881        5.85168228245759       -5.40326566043056
H           -4.42457683297724        5.32820016037468       -7.67395151380624
H           -2.04346347357818        2.36260989551993       -6.22094842409938
H           -4.53464796105042        2.34660914558371       -2.55439539940992
H           -3.63696126590174        1.01841410994372       -0.70343620236011
H            1.14069887800057       -1.45934109693169       -1.54908025913984
H            3.59922150577229       -1.37271992773772       -1.58426929846140
H            4.46757024611864        2.86048479716813       -0.30202017777689
H            6.22614849295653        4.58282568824797       -0.44506161045834
H            8.59816718806085        3.97670700759661       -0.36398950238199
H            9.29236495028521        1.61234617742321       -0.15987728856039
H            9.36943270835015       -1.13477463891399        0.08876336696185
H            8.80877529564292       -3.53371809003370        0.29706205868295
H            6.47433169221904       -4.27050991806656        0.39353606391100
H            4.62234307025540       -2.64845898043684        0.26310980948572
H            3.52932524526717        1.52498074795266        1.55737430868557
H            1.07162955368529        1.45875446431447        1.55612418665653
H            0.02695414290742       -2.63130207534124        1.06533782334192
H           -0.69672281518938       -4.93812614462913        0.94286039237879
H           -3.96097941598027       -5.74853190981282       -2.33704093040292

          :  Hamiltonian                  GFN2-xTB          :
         :: gradient norm              0.000072229623 Eh/a0 ::
         :: HOMO-LUMO gap              0.196633942066 eV    ::
         :: SCC energy              -143.524217996560 Eh    ::
         :: -> dispersion             -0.125274421364 Eh    ::
         :: -> Gsolv                  -0.063321994204 Eh    ::
         :: repulsion energy           2.615145468479 Eh    ::

    * Orbital Energies and Occupations

         #    Occupation            Energy/Eh            Energy/eV
      -------------------------------------------------------------
         1        2.0000           -0.7515903             -20.4518
       ...           ...                  ...                  ...
       121        2.0000           -0.3990775             -10.8595
       122        2.0000           -0.3982669             -10.8374
       123        2.0000           -0.3959300             -10.7738
       124        2.0000           -0.3902943             -10.6204
       125        2.0000           -0.3877326             -10.5507
       126        2.0000           -0.3869230             -10.5287
       127        2.0000           -0.3849159             -10.4741
       128        1.9999           -0.3775450             -10.2735
       129        1.9718           -0.3717420             -10.1156
       130        1.9668           -0.3715835             -10.1113
       131        1.8507           -0.3700334             -10.0691
       132        1.2108           -0.3671265              -9.9900
       133        0.9708           -0.2688906              -7.3169 (HOMO)
       134        0.0163           -0.2616645              -7.1203 (LUMO)
       135        0.0130           -0.2614475              -7.1143
       136        0.0000           -0.2540702              -6.9136
       137                         -0.2480029              -6.7485
       138                         -0.2477597              -6.7419
       139                         -0.2450543              -6.6683
       140                         -0.2379335              -6.4745
       141                         -0.2318043              -6.3077
       142                         -0.2305852              -6.2745
       143                         -0.2238522              -6.0913
       144                         -0.2219573              -6.0398
       ...                                ...                  ...
       265                          0.7362311              20.0339
      -------------------------------------------------------------
                  HL-Gap            0.0072261 Eh            0.1966 eV

     #   Z          covCN         q      C6AA      α(0)
     1   6 C        2.906    -0.038    28.941     8.821
     2   6 C        2.892     0.022    27.516     8.600
     3   7 N        1.836    -0.180    25.711     7.514
     4   6 C        2.894     0.049    26.904     8.504
     5   6 C        2.964    -0.014    28.363     8.736
     6   6 C        2.966    -0.003    28.105     8.696
     7   6 C        2.914    -0.042    29.042     8.837
     8   6 C        2.923    -0.035    28.881     8.813
     9   6 C        2.861    -0.104    30.621     9.070
    10  14 Si       3.608     0.480    98.476    19.053
    11   6 C        2.861    -0.092    30.305     9.023
    12   6 C        2.934    -0.032    28.799     8.801
    13   6 C        2.921    -0.036    28.900     8.816
    14   6 C        2.976     0.004    27.920     8.667
    15   6 C        2.971     0.000    28.020     8.683
    16   6 C        2.933    -0.018    28.466     8.750
    17   6 C        2.911    -0.040    28.987     8.828
    18   6 C        2.910     0.055    26.773     8.485
    19   7 N        1.835    -0.235    26.987     7.698
    20   6 C        2.915     0.055    26.755     8.482
    21   6 C        2.922    -0.035    28.874     8.812
    22   6 C        2.933    -0.033    28.827     8.805
    23   6 C        2.862    -0.093    30.335     9.028
    24   6 C        2.933    -0.033    28.824     8.805
    25   6 C        2.922    -0.036    28.901     8.816
    26   6 C        2.976     0.005    27.915     8.667
    27   6 C        2.971     0.001    28.013     8.682
    28   6 C        2.933    -0.018    28.460     8.749
    29   6 C        2.911    -0.040    28.984     8.828
    30   6 C        2.910     0.055    26.766     8.483
    31   7 N        1.835    -0.234    26.973     7.696
    32   6 C        2.915     0.056    26.752     8.482
    33   6 C        2.921    -0.035    28.877     8.812
    34   6 C        2.937    -0.033    28.810     8.803
    35   6 C        2.861    -0.092    30.304     9.023
    36   6 C        2.937    -0.029    28.729     8.791
    37   6 C        2.919    -0.042    29.037     8.836
    38   6 C        2.914     0.062    26.614     8.460
    39   7 N        2.802    -0.027    21.762     6.928
    40   6 C        3.074     0.048    26.855     8.497
    41   6 C        2.909    -0.046    29.148     8.853
    42   6 C        2.923    -0.032    28.805     8.801
    43   6 C        2.920    -0.037    28.909     8.817
    44   6 C        2.912    -0.031    28.775     8.796
    45   6 C        3.066    -0.014    28.297     8.723
    46   6 C        3.066    -0.014    28.297     8.723
    47   6 C        2.912    -0.031    28.775     8.796
    48   6 C        2.920    -0.036    28.907     8.817
    49   6 C        2.923    -0.032    28.803     8.801
    50   6 C        2.909    -0.046    29.145     8.852
    51   6 C        3.074     0.048    26.855     8.497
    52   6 C        2.919    -0.042    29.034     8.836
    53   6 C        2.934    -0.030    28.756     8.795
    54   6 C        2.927    -0.035    28.873     8.812
    55   6 C        2.914    -0.043    29.073     8.842
    56   6 C        2.924    -0.034    28.850     8.808
    57   1 H        0.926     0.037     2.492     2.469
    58   1 H        0.926     0.035     2.519     2.482
    59   1 H        0.926     0.044     2.396     2.421
    60   1 H        0.926     0.022     2.706     2.572
    61   1 H        0.925     0.018     2.759     2.598
    62   1 H        0.926     0.025     2.662     2.551
    63   1 H        0.926     0.028     2.608     2.526
    64   1 H        0.926     0.043     2.413     2.429
    65   1 H        0.926     0.042     2.429     2.437
    66   1 H        0.925     0.036     2.497     2.471
    67   1 H        0.925     0.037     2.488     2.467
    68   1 H        0.926     0.030     2.588     2.515
    69   1 H        0.926     0.026     2.646     2.544
    70   1 H        0.926     0.026     2.647     2.544
    71   1 H        0.926     0.029     2.598     2.520
    72   1 H        0.926     0.043     2.415     2.430
    73   1 H        0.926     0.042     2.424     2.435
    74   1 H        0.925     0.037     2.489     2.467
    75   1 H        0.925     0.038     2.479     2.462
    76   1 H        0.926     0.029     2.594     2.519
    77   1 H        0.926     0.022     2.696     2.568
    78   1 H        0.926     0.035     2.523     2.484
    79   1 H        0.926     0.043     2.415     2.430
    80   1 H        0.926     0.038     2.476     2.461
    81   1 H        0.926     0.037     2.487     2.466
    82   1 H        0.926     0.036     2.503     2.474
    83   1 H        0.926     0.038     2.471     2.458
    84   1 H        0.926     0.038     2.470     2.458
    85   1 H        0.926     0.036     2.502     2.474
    86   1 H        0.926     0.037     2.487     2.466
    87   1 H        0.926     0.038     2.479     2.462
    88   1 H        0.926     0.042     2.422     2.433
    89   1 H        0.926     0.034     2.525     2.485
    90   1 H        0.925     0.014     2.821     2.626
    91   1 H        0.926     0.022     2.697     2.568
    92   1 H        0.926     0.038     2.471     2.458

molecular dipole:
                 x           y           z       tot (Debye)
 q only:        2.005       0.633       0.336
   full:        1.930       0.647       0.521       5.341

 projected vibrational frequencies (cm⁻¹)
eigval :       -0.00    -0.00    -0.00     0.00     0.00     0.00
eigval :       -5.74     7.60     8.98    11.37    12.83    13.20
eigval :       16.72    23.43    27.35    39.31    43.35    51.40
eigval :       56.93    59.91    64.21    65.34    72.71    77.18
eigval :       79.93    86.20    93.06    97.57   117.42   130.09
eigval :      136.91   144.05   154.34   158.85   170.41   183.02
eigval :      191.24   192.91   214.60   236.41   254.75   265.86
eigval :      270.42   280.25   288.68   305.54   318.57   329.74
eigval :      342.38   356.43   357.49   360.01   364.33   366.07
eigval :      368.06   372.71   374.60   382.74   385.74   395.45
eigval :      403.05   418.67   420.68   434.46   446.42   470.19
eigval :      471.29   478.65   497.76   502.74   511.80   515.85
eigval :      531.31   533.09   537.71   539.49   564.09   579.62
eigval :      580.17   580.49   587.90   592.56   600.81   603.91
eigval :      606.90   612.63   621.29   632.45   655.09   657.89
eigval :      661.19   672.12   672.59   674.07   679.30   685.78
eigval :      686.90   688.25   709.18   725.04   738.49   757.05
eigval :      767.03   768.99   771.54   772.58   774.15   777.34
eigval :      779.23   782.91   792.52   800.93   808.99   809.99
eigval :      810.98   867.77   871.02   872.39   873.19   879.21
eigval :      882.71   896.01   897.07   899.78   901.19   902.92
eigval :      903.57   904.01   904.59   909.11   916.93   919.13
eigval :      920.58   920.88   921.77   923.58   926.08   928.91
eigval :      930.29   931.38   931.99   936.39   956.35   961.11
eigval :      966.92   994.51   998.01  1003.74  1010.43  1012.58
eigval :     1064.43  1067.50  1070.34  1078.19  1078.54  1091.25
eigval :     1093.16  1095.22  1114.74  1121.67  1133.41  1135.06
eigval :     1136.35  1136.94  1139.94  1142.86  1144.28  1144.59
eigval :     1146.28  1146.77  1158.96  1173.23  1177.13  1182.35
eigval :     1189.14  1191.15  1200.15  1205.25  1206.10  1211.42
eigval :     1223.24  1230.73  1238.78  1244.42  1262.91  1263.54
eigval :     1264.12  1269.95  1274.88  1276.03  1276.57  1279.55
eigval :     1284.94  1287.84  1289.11  1292.28  1306.01  1307.59
eigval :     1309.02  1311.09  1313.34  1320.71  1343.48  1351.26
eigval :     1358.62  1369.90  1373.39  1379.50  1379.97  1391.50
eigval :     1401.21  1401.77  1405.79  1413.67  1420.32  1435.76
eigval :     1437.40  1459.74  1462.40  1464.80  1476.14  1479.43
eigval :     1481.08  1483.94  1504.99  1508.16  1523.37  1524.90
eigval :     1529.22  1542.14  1545.94  1548.74  1566.00  1570.93
eigval :     1575.11  1579.74  1581.21  1582.78  1585.76  1603.01
eigval :     3049.98  3050.10  3050.93  3056.22  3056.57  3056.76
eigval :     3058.70  3060.00  3061.04  3065.22  3066.35  3070.38
eigval :     3072.16  3072.43  3072.68  3072.89  3073.17  3073.59
eigval :     3074.79  3076.85  3077.20  3078.02  3078.59  3080.36
eigval :     3082.78  3083.55  3084.78  3086.21  3086.65  3089.35
eigval :     3089.66  3090.64  3091.68  3093.82  3096.31  3097.35

   temp. (K)  partition function   enthalpy   heat capacity  entropy
                                   cal/mol     cal/K/mol   cal/K/mol   J/K/mol
 298.15  VIB  0.162E+26            28164.049    169.760    181.882
         ROT  0.197E+09              888.752      2.981     40.939
         INT  0.319E+34            29052.802    172.741    222.821
         TR   0.192E+29             1481.254      4.968     45.635
         TOT                       30534.0556   177.7094   268.4562  1123.2206

       T/K    H(0)-H(T)+PV         H(T)/Eh          T*S/Eh         G(T)/Eh
   ------------------------------------------------------------------------
    298.15    0.486591E-01    0.745643E+00    0.127552E+00    0.618090E+00
   ------------------------------------------------------------------------

         :::::::::::::::::::::::::::::::::::::::::::::::::::::
         ::                  THERMODYNAMIC                  ::
         :::::::::::::::::::::::::::::::::::::::::::::::::::::
         :: total free energy        -140.290982068451 Eh   ::
         ::.................................................::
         :: total energy             -140.909072529261 Eh   ::
         :: zero point energy           0.696983534286 Eh   ::
         :: G(RRHO) w/o ZPVE           -0.078893073476 Eh   ::
         :: G(RRHO) contrib.            0.618090460810 Eh   ::
         :::::::::::::::::::::::::::::::::::::::::::::::::::::

           -------------------------------------------------
          | TOTAL ENERGY             -140.909072529261 Eh   |
          | TOTAL ENTHALPY           -140.163429880124 Eh   |
          | TOTAL FREE ENERGY        -140.290982068451 Eh   |
          | GRADIENT NORM               0.000071615222 Eh/α |
          | HOMO-LUMO GAP               0.196632595459 eV   |
           -------------------------------------------------

 * finished run on 2025/08/30 at 09:34:40.550
