   * xtb version 6.7.1 (edcfbbe) compiled by 'albert@albert-system' on 2024-07-22

   ID    Z sym.   atoms
    1    6 C      1, 2, 4-9, 11-18, 20-30, 32-38, 40-56
    2    7 N      3, 19, 31, 39
    3   14 Si     10
    4    1 H      57-92

          program call               : xtb data2507/toluene/SiCz1Py3/SiCz1Py3_toluene_S0_finalOpt.xtbopt.xyz --gfn 2 --uhf 2 --gbsa toluene --ohess vtight --parallel 40 --molden --ceasefiles --namespace data2507/toluene/SiCz1Py3/SiCz1Py3_toluene_T1_preOpt
      * Solvation model:               GBSA
        Solvent                        toluene
        Solvent mass                       9.2140E+01 g/mol
          :  Hamiltonian                  GFN2-xTB          :
 * total energy  :  -140.9049591 Eh     change       -0.1069429E-07 Eh
 * total energy  :  -140.9066573 Eh     change       -0.1698158E-02 Eh
 * total energy  :  -140.9073584 Eh     change       -0.7010856E-03 Eh
 * total energy  :  -140.9075806 Eh     change       -0.2221738E-03 Eh
 * total energy  :  -140.9078765 Eh     change       -0.2959081E-03 Eh
 * total energy  :  -140.9080987 Eh     change       -0.2222128E-03 Eh
 * total energy  :  -140.9083205 Eh     change       -0.2218244E-03 Eh
 * total energy  :  -140.9084616 Eh     change       -0.1411111E-03 Eh
 * total energy  :  -140.9085049 Eh     change       -0.4328742E-04 Eh
 * total energy  :  -140.9085171 Eh     change       -0.1221244E-04 Eh
 * total energy  :  -140.9089945 Eh     change       -0.4378212E-06 Eh
 * total energy  :  -140.9089948 Eh     change       -0.3369868E-06 Eh
 * total energy  :  -140.9089949 Eh     change       -0.3546037E-07 Eh
 * total energy  :  -140.9089950 Eh     change       -0.1628273E-06 Eh
 * total energy  :  -140.9089950 Eh     change        0.1436638E-07 Eh
 * total energy  :  -140.9089952 Eh     change       -0.1806382E-06 Eh
 * total energy  :  -140.9089954 Eh     change       -0.2253702E-06 Eh
 * total energy  :  -140.9089958 Eh     change       -0.3436384E-06 Eh
 * total energy  :  -140.9089958 Eh     change       -0.9166322E-07 Eh
   *** GEOMETRY OPTIMIZATION CONVERGED AFTER 68 ITERATIONS ***

 final structure:
================
92
 xtb: 6.7.1 (edcfbbe)
C           -3.73787799688632       -7.90998088240312       -1.36179839422047
C           -2.78844739377392       -8.82214358744869       -0.87208085510349
N           -1.63681402572496       -8.37779208742037       -0.37822409946467
C           -1.37940884077728       -7.11467416570327       -0.26178363275797
C           -2.29951717264790       -6.07829727187162       -0.63155565183667
C           -1.96791859951729       -4.71027788156746       -0.52376360596937
C           -2.67281915300778       -3.69953919254954       -1.25273420302066
C           -2.40112282087542       -2.37510316275333       -1.08255389453946
C           -1.39730804066329       -1.92060271385290       -0.20077105516945
Si          -0.97350048264491       -0.10884626026614        0.00579855751191
C           -1.69476322038072        0.59860236538141        1.61691104956587
C           -1.95453040602646        1.96234728238336        1.73882312842752
C           -2.50149884009091        2.48891327158482        2.89137651414115
C           -2.80836192535164        1.66239684058930        3.97271417851084
C           -3.39036999517590        2.21455809865921        5.19905222540340
C           -3.02453105461072        1.75034989303858        6.46472097264662
C           -3.60557478256156        2.30851521620129        7.58887445866461
C           -4.53772138844867        3.32189914343313        7.41825442692963
N           -4.90066254698028        3.76868604155627        6.22572524933229
C           -4.34752876086736        3.23228133811550        5.15586601756164
C           -2.55315428927099        0.29571952211983        3.85570232280337
C           -2.01152613325108       -0.22192226203711        2.69607175377394
C           -1.65958856740713        0.91077475021235       -1.43462553967482
C           -0.84200078515862        1.41625520863377       -2.44130019119059
C           -1.36497584914154        2.13197495568283       -3.49991211660139
C           -2.73626080634130        2.37348440942150       -3.58508884239209
C           -3.29785868062589        3.13123692969434       -4.70690869853212
C           -4.33932905158509        4.04564756472261       -4.53440551225960
C           -4.82994974293574        4.73348044764697       -5.62963707575854
C           -4.26225114272107        4.49098238259711       -6.87204132210777
N           -3.27912088458670        3.62291682730854       -7.05347464581215
C           -2.81594225279015        2.96612480269827       -6.00844171430801
C           -3.56110436444804        1.87586771765685       -2.57599132937581
C           -3.02763632732159        1.15917653958588       -1.52407231996359
C            0.91751289656925        0.08322660013079        0.06051564085434
C            1.71923815146364       -0.67719904989402       -0.78767706932680
C            3.09483647456964       -0.56073452580635       -0.77613798079064
C            3.70719574329605        0.32805139263723        0.10453501113947
N            5.10454286972823        0.44751536648753        0.12850383396747
C            5.81551551715240        1.62688476276204        0.04666616072474
C            5.35453366185238        2.92648254620875       -0.11971955809883
C            6.29368764528591        3.93810347637645       -0.19943775656131
C            7.65862526565184        3.66987413116839       -0.12656482088022
C            8.12432934210241        2.37456080043641        0.01399163396413
C            7.20098287757478        1.34286404323202        0.09767245933254
C            7.31917738822050       -0.08605290030382        0.22203070088904
C            8.39891842490387       -0.94986986235491        0.33196356895490
C            8.15195914242973       -2.30544177351683        0.45853269663114
C            6.84930349820756       -2.79764531900979        0.49198248202701
C            5.75723752636882       -1.95627982698738        0.38584797620166
C            5.99954978442294       -0.59714410879197        0.23293050279306
C            2.92155379326941        1.09250826364184        0.96340311155887
C            1.54611594326659        0.96555158934842        0.93378736980501
C           -0.68213087519737       -2.91387240836124        0.50827838148554
C           -0.93686741968393       -4.24248347850287        0.34930933667961
C           -3.51261473006045       -6.57078381734783       -1.21914877470252
H           -4.66119929186426       -8.28201204630964       -1.77979860633661
H           -2.95467932002913       -9.88701502226116       -0.85457610757861
H           -0.37428719589255       -6.86610480239191        0.04817603170073
H           -3.43773350964559       -3.99655903409900       -1.95444198657118
H           -2.95960812102356       -1.64317079669534       -1.64969600398441
H           -1.72149813351281        2.62047502713767        0.91334057781390
H           -2.67431761028584        3.55320292306925        2.96803230364469
H           -2.27867626409482        0.97440081085104        6.56132641352845
H           -3.33794215445553        1.97162730521744        8.57865614812023
H           -5.01750683517652        3.79878980435400        8.26275472020535
H           -4.69828155262988        3.62150083306423        4.20830477821547
H           -2.80570372692240       -0.36643685796690        4.67191797933805
H           -1.83522600058993       -1.28511346077441        2.62100034147887
H            0.22403128421437        1.24698575196163       -2.39133977164999
H           -0.70642040169151        2.52909768464560       -4.25950030408558
H           -4.74263148916906        4.22661633121788       -3.54828249382038
H           -5.63105217596084        5.44890915404119       -5.52374323660009
H           -4.60135786534673        5.00681740633294       -7.76066403167467
H           -2.02781050873284        2.25439148227282       -6.21959378802289
H           -4.62885657674631        2.03589633550171       -2.63091923643302
H           -3.68366294472531        0.78484113328157       -0.75042083280260
H            1.25162591397194       -1.36938482430046       -1.47289347162948
H            3.70113592381351       -1.14010439870742       -1.45709681667659
H            4.29947903654116        3.14069692994261       -0.19511134197158
H            5.96154114313948        4.95802434071133       -0.32521988940974
H            8.36160985837546        4.48710271385523       -0.19087306171590
H            9.18308502119764        2.16800917203677        0.05351505247518
H            9.40916182147119       -0.56971429526528        0.32224746802533
H            8.97897611769324       -2.99475575618234        0.54230835467068
H            6.68806326247343       -3.85928159657283        0.60736460122774
H            4.75111199955178       -2.34430755370000        0.43002765343535
H            3.39588022145554        1.76515861555119        1.66311739245036
H            0.94651124031310        1.55633037976187        1.61065777822032
H            0.10056139189908       -2.59978561180956        1.18575189958300
H           -0.36388913065016       -4.96143531652565        0.91635862862180
H           -4.28197477836274       -5.86901814856512       -1.50187076094071

          :  Hamiltonian                  GFN2-xTB          :
         :: gradient norm              0.000095917121 Eh/a0 ::
         :: HOMO-LUMO gap              0.190285309428 eV    ::
         :: SCC energy              -143.523959244692 Eh    ::
         :: -> dispersion             -0.125289599362 Eh    ::
         :: -> Gsolv                  -0.063374022420 Eh    ::
         :: repulsion energy           2.614963394216 Eh    ::

    * Orbital Energies and Occupations

         #    Occupation            Energy/Eh            Energy/eV
      -------------------------------------------------------------
         1        2.0000           -0.7512490             -20.4425
       ...           ...                  ...                  ...
       121        2.0000           -0.3991180             -10.8606
       122        2.0000           -0.3980753             -10.8322
       123        2.0000           -0.3955397             -10.7632
       124        2.0000           -0.3904845             -10.6256
       125        2.0000           -0.3874571             -10.5432
       126        2.0000           -0.3869852             -10.5304
       127        2.0000           -0.3846844             -10.4678
       128        1.9999           -0.3776674             -10.2769
       129        1.9689           -0.3717423             -10.1156
       130        1.9664           -0.3716648             -10.1135
       131        1.8201           -0.3699157             -10.0659
       132        1.2446           -0.3674030              -9.9975
       133        0.9687           -0.2687423              -7.3129 (HOMO)
       134        0.0193           -0.2617487              -7.1225 (LUMO)
       135        0.0120           -0.2612891              -7.1100
       136        0.0000           -0.2540790              -6.9138
       137                         -0.2479288              -6.7465
       138                         -0.2478120              -6.7433
       139                         -0.2448987              -6.6640
       140                         -0.2381095              -6.4793
       141                         -0.2316316              -6.3030
       142                         -0.2306814              -6.2772
       143                         -0.2235589              -6.0833
       144                         -0.2218567              -6.0370
       ...                                ...                  ...
       265                          0.7361710              20.0322
      -------------------------------------------------------------
                  HL-Gap            0.0069936 Eh            0.1903 eV

     #   Z          covCN         q      C6AA      α(0)
     1   6 C        2.906    -0.038    28.939     8.821
     2   6 C        2.892     0.022    27.514     8.600
     3   7 N        1.836    -0.180    25.706     7.513
     4   6 C        2.894     0.049    26.900     8.504
     5   6 C        2.964    -0.014    28.364     8.736
     6   6 C        2.966    -0.003    28.100     8.695
     7   6 C        2.914    -0.042    29.042     8.837
     8   6 C        2.923    -0.035    28.881     8.813
     9   6 C        2.861    -0.105    30.632     9.072
    10  14 Si       3.608     0.480    98.482    19.054
    11   6 C        2.861    -0.091    30.282     9.020
    12   6 C        2.934    -0.032    28.800     8.801
    13   6 C        2.921    -0.036    28.897     8.815
    14   6 C        2.976     0.005    27.918     8.667
    15   6 C        2.971     0.000    28.020     8.683
    16   6 C        2.933    -0.018    28.466     8.750
    17   6 C        2.911    -0.040    28.986     8.828
    18   6 C        2.910     0.055    26.774     8.485
    19   7 N        1.835    -0.234    26.985     7.698
    20   6 C        2.915     0.056    26.755     8.482
    21   6 C        2.922    -0.035    28.874     8.812
    22   6 C        2.932    -0.033    28.826     8.805
    23   6 C        2.862    -0.094    30.367     9.033
    24   6 C        2.933    -0.033    28.826     8.805
    25   6 C        2.921    -0.037    28.908     8.817
    26   6 C        2.976     0.004    27.923     8.668
    27   6 C        2.971     0.001    28.013     8.682
    28   6 C        2.933    -0.018    28.462     8.749
    29   6 C        2.911    -0.040    28.983     8.828
    30   6 C        2.910     0.055    26.770     8.484
    31   7 N        1.835    -0.233    26.956     7.694
    32   6 C        2.915     0.056    26.753     8.482
    33   6 C        2.921    -0.035    28.881     8.813
    34   6 C        2.937    -0.033    28.816     8.804
    35   6 C        2.861    -0.092    30.303     9.023
    36   6 C        2.938    -0.029    28.732     8.791
    37   6 C        2.919    -0.042    29.033     8.836
    38   6 C        2.914     0.062    26.620     8.461
    39   7 N        2.802    -0.026    21.753     6.927
    40   6 C        3.074     0.048    26.854     8.496
    41   6 C        2.909    -0.046    29.143     8.852
    42   6 C        2.923    -0.032    28.803     8.801
    43   6 C        2.920    -0.036    28.905     8.816
    44   6 C        2.912    -0.031    28.772     8.796
    45   6 C        3.066    -0.014    28.295     8.723
    46   6 C        3.066    -0.014    28.295     8.723
    47   6 C        2.912    -0.031    28.772     8.796
    48   6 C        2.920    -0.036    28.903     8.816
    49   6 C        2.923    -0.032    28.801     8.801
    50   6 C        2.909    -0.046    29.140     8.852
    51   6 C        3.074     0.048    26.854     8.496
    52   6 C        2.919    -0.042    29.034     8.836
    53   6 C        2.934    -0.030    28.756     8.794
    54   6 C        2.927    -0.035    28.875     8.812
    55   6 C        2.914    -0.043    29.072     8.842
    56   6 C        2.924    -0.034    28.847     8.808
    57   1 H        0.926     0.037     2.491     2.468
    58   1 H        0.926     0.035     2.516     2.480
    59   1 H        0.926     0.044     2.391     2.418
    60   1 H        0.926     0.022     2.709     2.574
    61   1 H        0.925     0.017     2.773     2.604
    62   1 H        0.926     0.025     2.658     2.549
    63   1 H        0.926     0.029     2.603     2.523
    64   1 H        0.926     0.043     2.412     2.429
    65   1 H        0.926     0.042     2.428     2.437
    66   1 H        0.925     0.036     2.496     2.471
    67   1 H        0.925     0.037     2.488     2.466
    68   1 H        0.926     0.030     2.584     2.514
    69   1 H        0.926     0.027     2.627     2.535
    70   1 H        0.926     0.025     2.659     2.550
    71   1 H        0.926     0.028     2.608     2.525
    72   1 H        0.926     0.043     2.416     2.430
    73   1 H        0.926     0.042     2.424     2.434
    74   1 H        0.925     0.037     2.488     2.467
    75   1 H        0.925     0.038     2.478     2.461
    76   1 H        0.926     0.029     2.603     2.523
    77   1 H        0.925     0.021     2.711     2.575
    78   1 H        0.926     0.034     2.536     2.490
    79   1 H        0.926     0.042     2.417     2.431
    80   1 H        0.926     0.038     2.474     2.459
    81   1 H        0.926     0.037     2.484     2.465
    82   1 H        0.926     0.036     2.501     2.473
    83   1 H        0.926     0.039     2.468     2.457
    84   1 H        0.926     0.039     2.467     2.456
    85   1 H        0.926     0.036     2.499     2.472
    86   1 H        0.926     0.037     2.484     2.465
    87   1 H        0.926     0.038     2.477     2.461
    88   1 H        0.926     0.042     2.421     2.433
    89   1 H        0.926     0.035     2.523     2.484
    90   1 H        0.925     0.014     2.821     2.626
    91   1 H        0.926     0.022     2.704     2.571
    92   1 H        0.926     0.038     2.472     2.459

molecular dipole:
                 x           y           z       tot (Debye)
 q only:        1.879       0.747       0.548
   full:        1.704       0.751       0.812       5.164

 projected vibrational frequencies (cm⁻¹)
eigval :       -0.00     0.00     0.00     0.00     0.00     0.00
eigval :       -4.74     7.86     9.50    12.24    13.06    14.45
eigval :       16.68    26.55    33.20    40.34    42.91    50.48
eigval :       56.70    58.57    60.79    72.48    74.25    77.93
eigval :       79.61    86.11    91.45    96.87   119.60   130.22
eigval :      139.15   142.17   153.22   161.03   168.11   181.01
eigval :      185.90   202.34   216.96   233.20   253.31   266.22
eigval :      270.26   280.31   288.98   306.66   316.84   330.60
eigval :      346.04   356.25   357.46   359.32   364.78   365.31
eigval :      368.74   371.60   374.24   383.70   385.46   395.06
eigval :      402.95   419.34   420.49   433.97   444.97   469.68
eigval :      471.88   479.30   496.24   504.04   511.64   515.84
eigval :      531.09   533.73   537.47   540.21   565.15   578.50
eigval :      579.60   580.36   589.05   592.80   601.09   604.36
eigval :      606.83   613.08   621.83   632.63   654.83   657.75
eigval :      661.79   671.10   673.32   675.43   679.12   685.54
eigval :      686.88   687.75   710.53   725.72   738.68   757.11
eigval :      766.95   767.59   771.59   773.06   773.56   777.34
eigval :      777.95   786.98   792.98   807.78   809.79   810.16
eigval :      812.75   866.01   869.53   871.23   875.25   879.82
eigval :      882.75   894.82   896.77   897.13   901.80   902.21
eigval :      902.87   903.69   904.99   912.77   916.41   919.11
eigval :      919.49   920.53   922.68   922.86   924.46   927.61
eigval :      930.16   930.49   932.52   935.79   956.41   960.85
eigval :      967.65   993.89   998.47  1003.83  1010.32  1011.95
eigval :     1064.31  1067.12  1070.19  1078.23  1079.03  1089.60
eigval :     1092.97  1095.04  1115.42  1121.29  1132.21  1135.02
eigval :     1135.91  1136.41  1140.02  1142.48  1144.98  1145.99
eigval :     1146.84  1147.11  1157.21  1176.13  1180.42  1182.14
eigval :     1188.01  1190.61  1199.72  1205.14  1206.36  1211.05
eigval :     1223.55  1231.06  1239.07  1244.45  1263.08  1264.03
eigval :     1264.19  1269.46  1274.93  1276.29  1276.97  1279.62
eigval :     1285.15  1287.72  1289.47  1293.63  1305.76  1307.34
eigval :     1309.05  1311.23  1313.80  1319.81  1343.29  1351.71
eigval :     1359.37  1369.17  1373.81  1378.98  1380.42  1391.10
eigval :     1401.26  1401.92  1406.30  1413.35  1420.31  1435.02
eigval :     1437.29  1459.31  1463.22  1464.52  1475.82  1478.84
eigval :     1481.87  1484.42  1504.09  1507.24  1522.86  1523.77
eigval :     1528.28  1542.02  1545.35  1548.44  1565.96  1571.04
eigval :     1575.13  1578.72  1580.99  1582.99  1586.41  1603.13
eigval :     3049.30  3050.12  3050.16  3057.09  3057.35  3057.88
eigval :     3058.15  3059.32  3060.51  3065.74  3066.04  3070.50
eigval :     3072.37  3072.43  3072.59  3072.96  3073.25  3073.88
eigval :     3074.93  3077.90  3078.09  3078.39  3079.17  3079.50
eigval :     3083.41  3084.16  3085.16  3086.63  3086.94  3089.13
eigval :     3089.67  3090.94  3091.83  3094.33  3096.63  3097.75

   temp. (K)  partition function   enthalpy   heat capacity  entropy
                                   cal/mol     cal/K/mol   cal/K/mol   J/K/mol
 298.15  VIB  0.108E+26            28141.153    169.854    181.569
         ROT  0.197E+09              888.752      2.981     40.938
         INT  0.213E+34            29029.905    172.835    222.508
         TR   0.192E+29             1481.254      4.968     45.635
         TOT                       30511.1588   177.8027   268.1423  1121.9076

       T/K    H(0)-H(T)+PV         H(T)/Eh          T*S/Eh         G(T)/Eh
   ------------------------------------------------------------------------
    298.15    0.486226E-01    0.745671E+00    0.127403E+00    0.618267E+00
   ------------------------------------------------------------------------

         :::::::::::::::::::::::::::::::::::::::::::::::::::::
         ::                  THERMODYNAMIC                  ::
         :::::::::::::::::::::::::::::::::::::::::::::::::::::
         :: total free energy        -140.290728370753 Eh   ::
         ::.................................................::
         :: total energy             -140.908995849334 Eh   ::
         :: zero point energy           0.697047931085 Eh   ::
         :: G(RRHO) w/o ZPVE           -0.078780452504 Eh   ::
         :: G(RRHO) contrib.            0.618267478581 Eh   ::
         :::::::::::::::::::::::::::::::::::::::::::::::::::::

           -------------------------------------------------
          | TOTAL ENERGY             -140.908995849334 Eh   |
          | TOTAL ENTHALPY           -140.163325291739 Eh   |
          | TOTAL FREE ENERGY        -140.290728370753 Eh   |
          | GRADIENT NORM               0.000096580309 Eh/α |
          | HOMO-LUMO GAP               0.190305942965 eV   |
           -------------------------------------------------

 * finished run on 2025/08/30 at 09:16:13.979
