   * xtb version 6.7.1 (edcfbbe) compiled by 'albert@albert-system' on 2024-07-22

   ID    Z sym.   atoms
    1    6 C      1, 2, 4-9, 11-18, 20-30, 32-38, 40-56
    2    7 N      3, 19, 31, 39
    3   14 Si     10
    4    1 H      57-92

          program call               : xtb data2507/toluene/SiCz1Py3/SiCz1Py3_toluene_S0_crest.xyz --gfn 2 --gbsa toluene --ohess vtight --parallel 40 --molden --ceasefiles --namespace data2507/toluene/SiCz1Py3/SiCz1Py3_toluene_S0_finalOpt
      * Solvation model:               GBSA
        Solvent                        toluene
        Solvent mass                       9.2140E+01 g/mol
          :  Hamiltonian                  GFN2-xTB          :
 * total energy  :  -141.0129963 Eh     change       -0.2414538E-08 Eh
 * total energy  :  -141.0130440 Eh     change       -0.4762477E-04 Eh
 * total energy  :  -141.0130710 Eh     change       -0.2701733E-04 Eh
 * total energy  :  -141.0130813 Eh     change       -0.1036426E-04 Eh
 * total energy  :  -141.0130789 Eh     change        0.2392990E-05 Eh
 * total energy  :  -141.0130863 Eh     change       -0.7389860E-05 Eh
 * total energy  :  -141.0130922 Eh     change       -0.5825030E-05 Eh
 * total energy  :  -141.0130954 Eh     change       -0.3282040E-05 Eh
 * total energy  :  -141.0131002 Eh     change       -0.4763671E-05 Eh
 * total energy  :  -141.0131011 Eh     change       -0.8661935E-06 Eh
 * total energy  :  -141.0131130 Eh     change       -0.3059830E-06 Eh
 * total energy  :  -141.0131135 Eh     change       -0.4581936E-06 Eh
 * total energy  :  -141.0131137 Eh     change       -0.1775837E-06 Eh
 * total energy  :  -141.0131139 Eh     change       -0.1986745E-06 Eh
 * total energy  :  -141.0131140 Eh     change       -0.1709749E-06 Eh
 * total energy  :  -141.0131142 Eh     change       -0.1426785E-06 Eh
 * total energy  :  -141.0131143 Eh     change       -0.1478427E-06 Eh
 * total energy  :  -141.0131144 Eh     change       -0.1314823E-06 Eh
 * total energy  :  -141.0131145 Eh     change       -0.9955951E-07 Eh
   *** GEOMETRY OPTIMIZATION CONVERGED AFTER 30 ITERATIONS ***

 final structure:
================
92
 xtb: 6.7.1 (edcfbbe)
C           -3.84514576178675       -7.88019210452305       -0.89800706291456
C           -2.75711745643077       -8.73952444633047       -0.93874892933407
N           -1.50402467501131       -8.32214500711072       -0.85138232518056
C           -1.28434808057459       -7.02772599161997       -0.71518185127807
C           -2.29533676522301       -6.06647409832286       -0.65348514003905
C           -1.98319202254547       -4.64041999381938       -0.49914325507351
C           -2.67845281852586       -3.67703666592511       -1.22716756597817
C           -2.37581241511197       -2.33646135991811       -1.08602770519934
C           -1.37885230881235       -1.90896368161283       -0.21435946994962
Si          -0.95789100354039       -0.07253788650192       -0.00098446851270
C           -1.72492923550969        0.59315030016114        1.60023016200403
C           -1.87448136528684        1.96501092728875        1.79239689896731
C           -2.42239181270735        2.47227204483780        2.95393853388808
C           -2.83772334210240        1.61543530046478        3.97204090674203
C           -3.42125828416493        2.14772392155073        5.20929344448015
C           -3.10727593176565        1.61309899231241        6.45867879388997
C           -3.68520732294138        2.15548426480422        7.59305968212224
C           -4.55954667533823        3.22186537714267        7.44360753532890
N           -4.87417186354249        3.73742651026699        6.26578015811581
C           -4.32268558846345        3.21400733704532        5.18676750324025
C           -2.69246029373018        0.24195445192047        3.78701740306339
C           -2.14776668374966       -0.25548518869995        2.61894193444787
C           -1.65436691024865        0.92687550964201       -1.45369983572913
C           -0.85107011530304        1.33640273429722       -2.51395639930800
C           -1.37446063688249        2.04348142521894       -3.57923664137791
C           -2.72824978402397        2.37197854110178       -3.61332395380217
C           -3.29062174877710        3.12391542921086       -4.74175740218198
C           -4.21958900924106        4.14676692180487       -4.55233226124403
C           -4.71580000114232        4.82430584319314       -5.65228494393640
C           -4.26485340968877        4.45847152727718       -6.91193356168302
N           -3.38881466080888        3.48621977033138       -7.11074278983051
C           -2.92043279290855        2.84180287319528       -6.05827300077555
C           -3.53829814486704        1.97154265464550       -2.55203322266656
C           -3.00636522146144        1.26017772002192       -1.49481971610456
C            0.92949717805105        0.09539523539383        0.05824484735285
C            1.72902969427701       -0.67303784398657       -0.78486280877847
C            3.10509297073233       -0.55722560370294       -0.77524069178905
C            3.72029523015868        0.33578422862220        0.09798694339041
N            5.11840195752273        0.45393065699562        0.11976257075514
C            5.83174213579473        1.63167887795524        0.02056610384459
C            5.37410889747025        2.92876346653109       -0.16605507007963
C            6.31396529423627        3.93733077029753       -0.26100224741636
C            7.67944523716740        3.66953617325745       -0.18252448057327
C            8.14152690167164        2.37844724070959       -0.02055457899103
C            7.21603807179081        1.34705365099292        0.07776098133914
C            7.33352284621970       -0.07717176706561        0.22413472970205
C            8.41501619117182       -0.94018401368674        0.34944920605305
C            8.17059552072434       -2.29096697937064        0.49887635552136
C            6.86726348778748       -2.78301342653561        0.53820328143175
C            5.77538575009138       -1.94491767452278        0.41572842427100
C            6.01502121748908       -0.58881349977854        0.24164807784654
C            2.93619229323462        1.10681613126175        0.95131446821878
C            1.56013776923047        0.98541253282727        0.92245800626297
C           -0.68942936171559       -2.87834153486958        0.51117638249995
C           -0.98008545511323       -4.22112514297474        0.37319462580712
C           -3.60897107963687       -6.52446122847453       -0.75203661129902
H           -4.85089055591124       -8.26437530507414       -0.97291399764404
H           -2.88630032799985       -9.80888319224212       -1.04489431155210
H           -0.24220758191129       -6.73723814595794       -0.66860130588387
H           -3.44467861907578       -3.98515946552327       -1.92446903095465
H           -2.91872904838641       -1.60615576944521       -1.66839841582281
H           -1.55851470370969        2.64497630384963        1.01381829257666
H           -2.51379180527682        3.54102460649982        3.08668898670799
H           -2.40444835256325        0.79581947462578        6.53714041683424
H           -3.45829287760920        1.76528482859769        8.57333332454900
H           -5.03246794289976        3.68818316507669        8.29824298562595
H           -4.62864962981125        3.65911574671263        4.24821829986971
H           -3.02979214828230       -0.43861667530049        4.55597412582248
H           -2.05345850930959       -1.32405590395711        2.49085301888177
H            0.20305028040892        1.10000541999567       -2.50131978167246
H           -0.72823498540598        2.36438086630923       -4.38400291236154
H           -4.53151930186114        4.41718163483767       -3.55347237558443
H           -5.43198876434316        5.62326829421963       -5.53647049526687
H           -4.61504267892933        4.96045217431011       -7.80459447306862
H           -2.22171049196333        2.04376982314990       -6.27646249819312
H           -4.59390009171573        2.20348290786335       -2.56897489049779
H           -3.65020569334603        0.95763364685668       -0.68088663989472
H            1.26269089919902       -1.37239452585054       -1.46388837260631
H            3.71061385525098       -1.14631173911453       -1.44864527187960
H            4.31908865296208        3.14409104672376       -0.24460263285532
H            5.98316316419062        4.95600203611106       -0.40329722450343
H            8.38286845925762        4.48585198290641       -0.25883653242063
H            9.20014624996982        2.16978520970431        0.02438267972996
H            9.42481770556503       -0.55768154868160        0.33407002691099
H            8.99771028122549       -2.97906376938966        0.59549207494126
H            6.70696652695596       -3.84321317336562        0.67103408225075
H            4.76948099311800       -2.33416075777003        0.46309149768603
H            3.41265429413795        1.78669390261343        1.64264456786774
H            0.96311792868110        1.58476428607610        1.59398026408246
H            0.09190382949461       -2.57195508135717        1.19241591926549
H           -0.44197638869134       -4.95426875872710        0.95735409383379
H           -4.43159562514908       -5.82572883021542       -0.69629525862946

          :  Hamiltonian                  GFN2-xTB          :
         :: gradient norm              0.000067010715 Eh/a0 ::
         :: HOMO-LUMO gap              2.641316550232 eV    ::
         :: SCC energy              -143.640211802010 Eh    ::
         :: -> dispersion             -0.125264661283 Eh    ::
         :: -> Gsolv                  -0.063916880142 Eh    ::
         :: repulsion energy           2.627097256663 Eh    ::

    * Orbital Energies and Occupations

         #    Occupation            Energy/Eh            Energy/eV
      -------------------------------------------------------------
         1        2.0000           -0.7596713             -20.6717
       ...           ...                  ...                  ...
       120        2.0000           -0.4084077             -11.1133
       121        2.0000           -0.4052249             -11.0267
       122        2.0000           -0.4016667             -10.9299
       123        2.0000           -0.4007407             -10.9047
       124        2.0000           -0.3982188             -10.8361
       125        2.0000           -0.3919397             -10.6652
       126        2.0000           -0.3897436             -10.6055
       127        2.0000           -0.3888256             -10.5805
       128        2.0000           -0.3783484             -10.2954
       129        2.0000           -0.3714632             -10.1080
       130        2.0000           -0.3711536             -10.0996
       131        2.0000           -0.3709236             -10.0933
       132        2.0000           -0.3619791              -9.8500 (HOMO)
       133                         -0.2649124              -7.2086 (LUMO)
       134                         -0.2627812              -7.1506
       135                         -0.2618522              -7.1254
       136                         -0.2495114              -6.7895
       137                         -0.2489177              -6.7734
       138                         -0.2486608              -6.7664
       139                         -0.2479979              -6.7484
       140                         -0.2413870              -6.5685
       141                         -0.2299036              -6.2560
       142                         -0.2273176              -6.1856
       143                         -0.2262343              -6.1561
       ...                                ...                  ...
       265                          0.7445710              20.2608
      -------------------------------------------------------------
                  HL-Gap            0.0970666 Eh            2.6413 eV

     #   Z          covCN         q      C6AA      α(0)
     1   6 C        2.911    -0.040    28.993     8.829
     2   6 C        2.913     0.058    26.708     8.474
     3   7 N        1.835    -0.241    27.143     7.721
     4   6 C        2.917     0.056    26.736     8.479
     5   6 C        2.972     0.001    28.005     8.680
     6   6 C        2.976     0.008    27.842     8.655
     7   6 C        2.922    -0.034    28.841     8.807
     8   6 C        2.933    -0.032    28.807     8.802
     9   6 C        2.862    -0.092    30.305     9.023
    10  14 Si       3.610     0.492    98.154    19.020
    11   6 C        2.862    -0.092    30.295     9.022
    12   6 C        2.936    -0.031    28.776     8.798
    13   6 C        2.921    -0.035    28.866     8.811
    14   6 C        2.976     0.008    27.841     8.655
    15   6 C        2.972     0.001    28.004     8.680
    16   6 C        2.933    -0.017    28.430     8.744
    17   6 C        2.911    -0.040    28.993     8.829
    18   6 C        2.912     0.058    26.709     8.474
    19   7 N        1.835    -0.241    27.145     7.721
    20   6 C        2.917     0.056    26.738     8.479
    21   6 C        2.922    -0.034    28.841     8.807
    22   6 C        2.933    -0.032    28.809     8.803
    23   6 C        2.862    -0.092    30.303     9.023
    24   6 C        2.933    -0.032    28.795     8.800
    25   6 C        2.922    -0.034    28.857     8.809
    26   6 C        2.976     0.008    27.841     8.655
    27   6 C        2.972     0.001    28.004     8.680
    28   6 C        2.933    -0.017    28.430     8.744
    29   6 C        2.911    -0.040    28.993     8.829
    30   6 C        2.912     0.058    26.709     8.475
    31   7 N        1.835    -0.241    27.143     7.721
    32   6 C        2.917     0.056    26.736     8.479
    33   6 C        2.921    -0.034    28.850     8.808
    34   6 C        2.936    -0.032    28.787     8.799
    35   6 C        2.862    -0.095    30.379     9.034
    36   6 C        2.938    -0.031    28.766     8.796
    37   6 C        2.919    -0.043    29.076     8.843
    38   6 C        2.913     0.064    26.558     8.451
    39   7 N        2.802    -0.047    22.154     6.991
    40   6 C        3.076     0.047    26.857     8.497
    41   6 C        2.909    -0.052    29.297     8.875
    42   6 C        2.924    -0.035    28.880     8.813
    43   6 C        2.919    -0.043    29.067     8.841
    44   6 C        2.912    -0.035    28.874     8.811
    45   6 C        3.067    -0.019    28.412     8.740
    46   6 C        3.067    -0.019    28.413     8.740
    47   6 C        2.912    -0.035    28.873     8.811
    48   6 C        2.919    -0.043    29.065     8.841
    49   6 C        2.924    -0.035    28.878     8.813
    50   6 C        2.909    -0.052    29.296     8.875
    51   6 C        3.076     0.047    26.857     8.497
    52   6 C        2.919    -0.043    29.072     8.842
    53   6 C        2.935    -0.032    28.791     8.800
    54   6 C        2.936    -0.031    28.777     8.798
    55   6 C        2.921    -0.035    28.868     8.811
    56   6 C        2.933    -0.017    28.430     8.744
    57   1 H        0.926     0.042     2.428     2.436
    58   1 H        0.925     0.036     2.502     2.473
    59   1 H        0.925     0.037     2.491     2.468
    60   1 H        0.926     0.032     2.553     2.499
    61   1 H        0.926     0.028     2.611     2.527
    62   1 H        0.926     0.027     2.622     2.532
    63   1 H        0.926     0.031     2.568     2.506
    64   1 H        0.926     0.043     2.407     2.426
    65   1 H        0.926     0.042     2.428     2.436
    66   1 H        0.925     0.036     2.502     2.474
    67   1 H        0.925     0.037     2.491     2.468
    68   1 H        0.926     0.033     2.550     2.497
    69   1 H        0.926     0.029     2.602     2.522
    70   1 H        0.926     0.028     2.612     2.527
    71   1 H        0.926     0.031     2.573     2.508
    72   1 H        0.926     0.043     2.407     2.426
    73   1 H        0.926     0.042     2.426     2.436
    74   1 H        0.925     0.036     2.502     2.473
    75   1 H        0.925     0.037     2.492     2.469
    76   1 H        0.926     0.033     2.548     2.496
    77   1 H        0.926     0.027     2.625     2.534
    78   1 H        0.926     0.031     2.570     2.507
    79   1 H        0.926     0.039     2.461     2.453
    80   1 H        0.926     0.030     2.587     2.515
    81   1 H        0.926     0.030     2.592     2.518
    82   1 H        0.926     0.027     2.625     2.534
    83   1 H        0.926     0.030     2.592     2.518
    84   1 H        0.926     0.030     2.592     2.518
    85   1 H        0.926     0.027     2.623     2.533
    86   1 H        0.926     0.030     2.588     2.516
    87   1 H        0.926     0.030     2.587     2.515
    88   1 H        0.926     0.039     2.464     2.455
    89   1 H        0.926     0.033     2.548     2.496
    90   1 H        0.926     0.027     2.624     2.533
    91   1 H        0.926     0.031     2.570     2.507
    92   1 H        0.926     0.043     2.409     2.427

molecular dipole:
                 x           y           z       tot (Debye)
 q only:       -0.725       0.023       0.560
   full:       -0.934       0.059       0.917       3.329

 projected vibrational frequencies (cm⁻¹)
eigval :       -0.00    -0.00     0.00     0.00     0.00     0.00
eigval :       -2.57     8.20     8.89     9.91    12.82    13.74
eigval :       15.94    16.89    32.16    39.15    42.25    52.67
eigval :       57.60    61.30    66.43    69.45    75.23    77.52
eigval :       78.79    80.81    86.35    99.65   118.71   134.54
eigval :      144.19   151.10   155.90   166.46   169.20   181.39
eigval :      186.31   208.75   216.79   252.36   266.13   269.64
eigval :      272.36   281.26   293.79   310.19   317.15   329.72
eigval :      356.35   359.86   363.48   364.10   365.94   367.80
eigval :      370.33   372.90   374.86   378.14   385.96   391.72
eigval :      400.32   422.28   435.81   474.19   475.09   477.70
eigval :      482.76   508.93   512.95   517.35   518.80   533.69
eigval :      536.25   538.49   539.11   540.90   581.09   594.76
eigval :      595.49   595.59   596.11   605.44   606.14   607.25
eigval :      613.36   638.24   663.07   665.32   667.01   672.17
eigval :      677.68   680.24   681.22   682.57   692.09   692.77
eigval :      693.30   707.94   742.48   758.39   767.70   775.74
eigval :      777.51   777.65   778.22   779.30   783.01   783.50
eigval :      810.81   812.72   814.29   816.40   867.11   872.19
eigval :      873.97   876.85   879.35   884.73   897.57   899.80
eigval :      900.97   901.06   901.55   903.01   911.90   912.29
eigval :      914.64   919.26   919.84   920.30   922.22   924.81
eigval :      928.06   929.09   929.81   930.78   932.08   933.81
eigval :      934.44   935.35   937.14   976.52   977.23   977.40
eigval :     1007.91  1008.64  1008.79  1011.04  1014.14  1068.82
eigval :     1072.31  1081.99  1082.44  1082.91  1094.62  1095.73
eigval :     1095.85  1117.79  1135.43  1136.32  1137.37  1137.76
eigval :     1143.09  1144.44  1145.13  1145.93  1150.13  1151.84
eigval :     1152.10  1152.22  1177.60  1182.82  1184.87  1194.01
eigval :     1194.19  1194.34  1206.49  1207.34  1208.14  1211.18
eigval :     1235.88  1244.21  1264.99  1265.38  1265.55  1272.46
eigval :     1274.21  1274.46  1275.30  1279.56  1279.78  1281.40
eigval :     1294.98  1295.64  1296.41  1300.41  1301.53  1306.85
eigval :     1307.16  1308.16  1308.90  1355.40  1360.24  1362.05
eigval :     1379.18  1379.67  1380.87  1392.94  1402.73  1403.22
eigval :     1403.71  1426.81  1427.32  1440.70  1441.09  1441.15
eigval :     1474.55  1485.07  1487.29  1487.41  1487.49  1487.88
eigval :     1548.76  1549.50  1549.90  1554.51  1561.46  1561.92
eigval :     1562.29  1570.13  1570.17  1570.34  1573.03  1585.12
eigval :     1588.07  1591.52  1591.68  1592.95  1596.74  1612.83
eigval :     3048.74  3048.92  3049.31  3053.84  3055.14  3055.42
eigval :     3062.36  3063.15  3063.64  3066.68  3067.36  3067.83
eigval :     3070.09  3070.94  3071.00  3071.28  3071.62  3072.10
eigval :     3074.56  3074.90  3075.43  3076.06  3076.31  3076.93
eigval :     3079.35  3079.76  3080.33  3083.99  3084.68  3084.96
eigval :     3086.91  3089.49  3090.82  3090.89  3091.13  3093.08

   temp. (K)  partition function   enthalpy   heat capacity  entropy
                                   cal/mol     cal/K/mol   cal/K/mol   J/K/mol
 298.15  VIB  0.258E+26            27720.193    166.811    180.408
         ROT  0.197E+09              888.752      2.981     40.937
         INT  0.509E+34            28608.945    169.792    221.344
         TR   0.192E+29             1481.254      4.968     45.635
         TOT                       30090.1992   174.7602   266.9791  1117.0407

       T/K    H(0)-H(T)+PV         H(T)/Eh          T*S/Eh         G(T)/Eh
   ------------------------------------------------------------------------
    298.15    0.479518E-01    0.751080E+00    0.126850E+00    0.624230E+00
   ------------------------------------------------------------------------

         :::::::::::::::::::::::::::::::::::::::::::::::::::::
         ::                  THERMODYNAMIC                  ::
         :::::::::::::::::::::::::::::::::::::::::::::::::::::
         :: total free energy        -140.388884857811 Eh   ::
         ::.................................................::
         :: total energy             -141.013114546645 Eh   ::
         :: zero point energy           0.703128302170 Eh   ::
         :: G(RRHO) w/o ZPVE           -0.078898613336 Eh   ::
         :: G(RRHO) contrib.            0.624229688834 Eh   ::
         :::::::::::::::::::::::::::::::::::::::::::::::::::::

           -------------------------------------------------
          | TOTAL ENERGY             -141.013114546645 Eh   |
          | TOTAL ENTHALPY           -140.262034459727 Eh   |
          | TOTAL FREE ENERGY        -140.388884857811 Eh   |
          | GRADIENT NORM               0.000067025180 Eh/α |
          | HOMO-LUMO GAP               2.641317334742 eV   |
           -------------------------------------------------

 * finished run on 2025/08/30 at 09:15:57.491
