   * xtb version 6.7.1 (edcfbbe) compiled by 'albert@albert-system' on 2024-07-22

   ID    Z sym.   atoms
    1    6 C      1-57
    2    1 H      58-91

          program call               : xtb data2507/gas/SBTF/SBTF_gas_S0_crest.xyz --gfn 2 --ohess vtight --parallel 40 --molden --ceasefiles --namespace data2507/gas/SBTF/SBTF_gas_S0_finalOpt
          :  Hamiltonian                  GFN2-xTB          :
 * total energy  :  -139.4573781 Eh     change       -0.1602615E-08 Eh
 * total energy  :  -139.4573792 Eh     change       -0.1037858E-05 Eh
 * total energy  :  -139.4573807 Eh     change       -0.1556760E-05 Eh
 * total energy  :  -139.4573829 Eh     change       -0.2158675E-05 Eh
 * total energy  :  -139.4573850 Eh     change       -0.2076035E-05 Eh
 * total energy  :  -139.4573865 Eh     change       -0.1487053E-05 Eh
 * total energy  :  -139.4573875 Eh     change       -0.1063719E-05 Eh
 * total energy  :  -139.4573883 Eh     change       -0.8209351E-06 Eh
 * total energy  :  -139.4573890 Eh     change       -0.6713539E-06 Eh
 * total energy  :  -139.4573897 Eh     change       -0.6790691E-06 Eh
 * total energy  :  -139.4573918 Eh     change       -0.2917580E-06 Eh
 * total energy  :  -139.4573921 Eh     change       -0.2853610E-06 Eh
 * total energy  :  -139.4573925 Eh     change       -0.3980035E-06 Eh
 * total energy  :  -139.4573930 Eh     change       -0.4974994E-06 Eh
 * total energy  :  -139.4573935 Eh     change       -0.5198757E-06 Eh
 * total energy  :  -139.4573940 Eh     change       -0.5100926E-06 Eh
 * total energy  :  -139.4573944 Eh     change       -0.4332858E-06 Eh
 * total energy  :  -139.4573948 Eh     change       -0.3975468E-06 Eh
 * total energy  :  -139.4573948 Eh     change       -0.3556892E-08 Eh
   *** GEOMETRY OPTIMIZATION CONVERGED AFTER 22 ITERATIONS ***

 final structure:
================
91
 xtb: 6.7.1 (edcfbbe)
C            1.02664331973758       -3.57683800695065        3.60769817394450
C            0.55335751403245       -2.28903566564903        3.80592065583130
C            0.32544416472015       -1.44086969198916        2.72989355739543
C            0.59277075327100       -1.90573620031355        1.46232659963117
C            1.07604672199190       -3.20737828696279        1.25499910313387
C            1.29384339598592       -4.04920771708622        2.33215606793897
C            1.30415956025905       -3.39489295244287       -0.17170065303336
C            1.81126940316614       -4.46971776089828       -0.88099323052709
C            1.97094972475717       -4.34245810162360       -2.25242707899101
C            1.63291858293454       -3.16605438676219       -2.90254820680728
C            1.11491611892822       -2.08630872833019       -2.19824894096851
C            0.95809502306562       -2.20668799427383       -0.83652350012441
C            0.36818765642764       -1.20345026871145        0.13460373797757
C            1.01065807819345        0.15966106537160        0.03714697915747
C            0.23133109018371        1.30213232536235       -0.05444312548980
C            0.84921446677704        2.54478451068973       -0.33382266714457
C            2.19646286074573        2.65465670059214       -0.46593708536442
C            3.02660281411528        1.53308180183390       -0.26443407144337
C            4.42463031357932        1.65805651776788       -0.33716101052963
C            5.25675661364621        0.58511886223889       -0.12642498886261
C            6.71652236901461        0.71713144409623       -0.21390224745457
C            7.47845942281607       -0.29975824901749       -0.83108372684547
C            8.83511002319598       -0.19667424066611       -0.92977447222761
C            9.51772493827196        0.92389444698859       -0.41091402374614
C           10.91834297119155        1.05834072249369       -0.49253210130785
C           11.54533538450339        2.15852600403913        0.02227227575968
C           10.79961378433802        3.17368486359677        0.64219270312791
C            9.44029021083423        3.07245238085509        0.73688339975190
C            8.76241698659356        1.95044403625523        0.21437500498820
C            7.36314380512603        1.81885031045903        0.29451952964629
C            4.66801927856867       -0.65381823774024        0.19525713983897
C            3.31268461224307       -0.80262508898283        0.26401815839111
C            2.43056376432836        0.27153919868925        0.00873729189489
C           -1.22085410543350        1.24786036586317        0.09190265645491
C           -1.98415249547825        2.37561669326910        0.31355118051926
C           -3.37767322483152        2.31476277616280        0.34937151297883
C           -4.04355705538984        1.13322585598884        0.13649026089454
C           -5.52024218928955        1.12040976740682        0.11924429230682
C           -6.20587448827655        1.39124540775408        1.25950363026011
C           -7.62608695167957        1.37941851790496        1.30279736568967
C           -8.30176882080626        1.64706618846435        2.50458333605881
C           -9.67081938675049        1.62383047732747        2.56278214671281
C          -10.40374911774159        1.32733460989361        1.41304764016118
C           -9.76340988395688        1.06437613277800        0.22698729010139
C           -8.36283344586461        1.08496433063105        0.13194454670719
C           -7.64767124939759        0.82955509312316       -1.09558117162351
C           -8.30203575547589        0.56444758433376       -2.30979068745562
C           -7.60257871686991        0.34432797848150       -3.47006770291880
C           -6.20886007250813        0.38795931496792       -3.46925379547211
C           -5.53828425083170        0.64111527522639       -2.30086864947246
C           -6.23222844918923        0.85422787174636       -1.09793082166769
C           -3.29843720540725       -0.06542080940090       -0.01654654026406
C           -3.93545397277852       -1.31482068581039       -0.14452555953717
C           -3.19531899298972       -2.45859858730695       -0.24859833501755
C           -1.80061398148322       -2.40554694429075       -0.19121189778159
C           -1.13981745160957       -1.20607328246487       -0.06033968674587
C           -1.87862743362699       -0.00787864640621        0.00041135694431
H            1.19184295075137       -4.22016949124729        4.45965860334063
H            0.35676096722791       -1.94152014054687        4.80944536753888
H           -0.04955197466544       -0.43928609614708        2.88299382987092
H            1.66556610428711       -5.05228525705408        2.18329257176419
H            2.07902055155203       -5.38731207368716       -0.37809447519395
H            2.36748499293683       -5.17055830998285       -2.82172299058648
H            1.77182406443740       -3.08816022952960       -3.97078109036618
H            0.84774614682495       -1.17098046052905       -2.70602221865926
H            0.23395776018096        3.41644774519792       -0.48856467619213
H            2.65080120302767        3.60323770694421       -0.71401096958363
H            4.83895576809021        2.62670663634501       -0.57956220487978
H            6.96615798325255       -1.15546170540746       -1.24664441208914
H            9.40939259958534       -0.97585283367892       -1.41131256386543
H           11.48801518348408        0.27370175029454       -0.97050231391152
H           12.61929852346371        2.25540330254236       -0.04335936273387
H           11.31176818280976        4.03594667957371        1.04401745769768
H            8.86223359888925        3.85171844926982        1.21351143107564
H            6.79848559974881        2.59738466556078        0.78820146276820
H            5.30682263255543       -1.49559968141041        0.42023729440522
H            2.92423713043222       -1.76114513660394        0.55332013674603
H           -1.51860778328217        3.33594543056793        0.46976419735260
H           -3.94303987695373        3.22158580619668        0.51152584335808
H           -5.66809262816482        1.60200378771649        2.17387714528798
H           -7.71876394376841        1.87106317267454        3.38684291763872
H          -10.18408157175243        1.83069779241317        3.49036186096573
H          -11.48289921223902        1.30492138150288        1.45811516330341
H          -10.36180030762834        0.83774696898844       -0.64126828891723
H           -9.37952778337286        0.53554942019306       -2.34456728183266
H           -8.13305961890164        0.14313333555355       -4.38941222525896
H           -5.66288151298539        0.22538030543992       -4.38680168878236
H           -4.45920616968889        0.68281927431221       -2.29517761122226
H           -5.01416264518280       -1.35639512266219       -0.14757778011779
H           -3.68258415640209       -3.41689056555455       -0.35142934372510
H           -1.24601705362669       -3.33074164481915       -0.23325404326850

          :  Hamiltonian                  GFN2-xTB          :
         :: gradient norm              0.000039967724 Eh/a0 ::
         :: HOMO-LUMO gap              2.284095640851 eV    ::
         :: SCC energy              -142.209339303587 Eh    ::
         :: -> dispersion             -0.141488802950 Eh    ::
         :: repulsion energy           2.751944476440 Eh    ::

    * Orbital Energies and Occupations

         #    Occupation            Energy/Eh            Energy/eV
      -------------------------------------------------------------
         1        2.0000           -0.6621071             -18.0169
       ...           ...                  ...                  ...
       119        2.0000           -0.4048929             -11.0177
       120        2.0000           -0.4041576             -10.9977
       121        2.0000           -0.4018189             -10.9340
       122        2.0000           -0.4001418             -10.8884
       123        2.0000           -0.3983439             -10.8395
       124        2.0000           -0.3905086             -10.6263
       125        2.0000           -0.3895162             -10.5993
       126        2.0000           -0.3845295             -10.4636
       127        2.0000           -0.3827167             -10.4143
       128        2.0000           -0.3785729             -10.3015
       129        2.0000           -0.3748690             -10.2007
       130        2.0000           -0.3727735             -10.1437
       131        2.0000           -0.3575359              -9.7290 (HOMO)
       132                         -0.2735970              -7.4450 (LUMO)
       133                         -0.2601387              -7.0787
       134                         -0.2562792              -6.9737
       135                         -0.2532093              -6.8902
       136                         -0.2499020              -6.8002
       137                         -0.2473794              -6.7315
       138                         -0.2353240              -6.4035
       139                         -0.2274342              -6.1888
       140                         -0.2241781              -6.1002
       141                         -0.2228610              -6.0644
       142                         -0.2141742              -5.8280
       ...                                ...                  ...
       262                          0.7285779              19.8256
      -------------------------------------------------------------
                  HL-Gap            0.0839390 Eh            2.2841 eV

     #   Z          covCN         q      C6AA      α(0)
     1   6 C        2.921    -0.033    28.810     8.802
     2   6 C        2.923    -0.031    28.768     8.796
     3   6 C        2.913    -0.033    28.814     8.802
     4   6 C        3.064     0.007    27.799     8.646
     5   6 C        3.033     0.001    27.983     8.677
     6   6 C        2.915    -0.034    28.850     8.808
     7   6 C        3.033     0.001    27.971     8.675
     8   6 C        2.914    -0.035    28.863     8.810
     9   6 C        2.921    -0.033    28.811     8.802
    10   6 C        2.923    -0.031    28.772     8.796
    11   6 C        2.914    -0.032    28.790     8.799
    12   6 C        3.058     0.007    27.817     8.649
    13   6 C        3.947     0.013    20.286     6.400
    14   6 C        2.972     0.003    27.943     8.671
    15   6 C        2.975     0.002    27.975     8.676
    16   6 C        2.921    -0.039    28.961     8.825
    17   6 C        2.917    -0.039    28.980     8.828
    18   6 C        2.989     0.010    27.784     8.646
    19   6 C        2.929    -0.042    29.033     8.836
    20   6 C        2.973     0.009    27.814     8.651
    21   6 C        2.973     0.009    27.814     8.651
    22   6 C        2.920    -0.034    28.848     8.808
    23   6 C        2.916    -0.036    28.901     8.816
    24   6 C        2.987     0.011    27.755     8.642
    25   6 C        2.918    -0.035    28.869     8.811
    26   6 C        2.916    -0.031    28.764     8.795
    27   6 C        2.916    -0.030    28.754     8.793
    28   6 C        2.918    -0.035    28.879     8.812
    29   6 C        2.986     0.012    27.730     8.638
    30   6 C        2.924    -0.041    29.023     8.835
    31   6 C        2.922    -0.035    28.876     8.812
    32   6 C        2.917    -0.039    28.974     8.827
    33   6 C        2.981     0.005    27.909     8.666
    34   6 C        2.977     0.003    27.951     8.672
    35   6 C        2.921    -0.040    28.986     8.829
    36   6 C        2.920    -0.037    28.915     8.818
    37   6 C        2.978     0.004    27.937     8.670
    38   6 C        2.972     0.005    27.903     8.665
    39   6 C        2.923    -0.043    29.063     8.841
    40   6 C        2.986     0.011    27.760     8.643
    41   6 C        2.923    -0.036    28.885     8.814
    42   6 C        2.916    -0.031    28.763     8.795
    43   6 C        2.918    -0.032    28.793     8.799
    44   6 C        2.920    -0.035    28.861     8.810
    45   6 C        2.980     0.005    27.911     8.666
    46   6 C        2.979     0.006    27.888     8.663
    47   6 C        2.921    -0.035    28.870     8.811
    48   6 C        2.917    -0.031    28.772     8.796
    49   6 C        2.916    -0.031    28.767     8.795
    50   6 C        2.921    -0.033    28.817     8.803
    51   6 C        2.988     0.009    27.814     8.651
    52   6 C        2.989     0.008    27.835     8.654
    53   6 C        2.919    -0.037    28.927     8.820
    54   6 C        2.915    -0.031    28.782     8.797
    55   6 C        2.922    -0.039    28.979     8.828
    56   6 C        2.991     0.011    27.750     8.641
    57   6 C        2.995     0.002    27.977     8.677
    58   1 H        0.926     0.031     2.577     2.511
    59   1 H        0.926     0.031     2.572     2.508
    60   1 H        0.926     0.028     2.618     2.530
    61   1 H        0.926     0.031     2.572     2.508
    62   1 H        0.926     0.030     2.582     2.513
    63   1 H        0.926     0.030     2.585     2.514
    64   1 H        0.926     0.031     2.577     2.510
    65   1 H        0.926     0.027     2.629     2.535
    66   1 H        0.926     0.034     2.529     2.487
    67   1 H        0.926     0.030     2.584     2.514
    68   1 H        0.926     0.032     2.558     2.501
    69   1 H        0.926     0.032     2.564     2.504
    70   1 H        0.926     0.030     2.583     2.513
    71   1 H        0.926     0.030     2.591     2.517
    72   1 H        0.926     0.029     2.605     2.524
    73   1 H        0.926     0.029     2.604     2.523
    74   1 H        0.926     0.030     2.590     2.517
    75   1 H        0.926     0.032     2.563     2.504
    76   1 H        0.926     0.030     2.592     2.518
    77   1 H        0.926     0.038     2.472     2.458
    78   1 H        0.926     0.032     2.554     2.499
    79   1 H        0.926     0.028     2.612     2.527
    80   1 H        0.925     0.029     2.604     2.523
    81   1 H        0.926     0.030     2.588     2.516
    82   1 H        0.926     0.029     2.604     2.523
    83   1 H        0.926     0.028     2.609     2.526
    84   1 H        0.926     0.031     2.566     2.505
    85   1 H        0.926     0.032     2.555     2.500
    86   1 H        0.926     0.029     2.603     2.523
    87   1 H        0.926     0.029     2.606     2.525
    88   1 H        0.926     0.032     2.563     2.504
    89   1 H        0.926     0.032     2.562     2.503
    90   1 H        0.926     0.029     2.600     2.522
    91   1 H        0.926     0.029     2.602     2.523

molecular dipole:
                 x           y           z       tot (Debye)
 q only:        0.040      -0.053      -0.017
   full:        0.028      -0.067       0.005       0.184

 projected vibrational frequencies (cm⁻¹)
eigval :       -0.00    -0.00    -0.00     0.00     0.00     0.00
eigval :        8.57    10.92    18.90    19.58    23.24    31.59
eigval :       33.90    45.28    56.23    57.46    71.59    73.90
eigval :       82.74    90.38   103.36   110.93   115.24   130.78
eigval :      139.50   145.39   158.40   165.11   171.00   180.80
eigval :      194.77   217.11   219.21   231.67   252.95   257.23
eigval :      265.97   274.57   286.24   299.33   302.34   314.87
eigval :      350.91   354.73   367.81   374.96   387.85   390.32
eigval :      396.69   403.44   411.78   413.56   417.74   433.67
eigval :      440.79   447.64   449.24   458.81   461.38   471.76
eigval :      480.28   489.81   497.08   500.80   503.62   507.70
eigval :      510.56   523.80   527.23   535.41   537.50   549.33
eigval :      556.50   565.24   577.79   586.69   587.64   591.24
eigval :      599.83   615.51   621.15   625.55   632.16   645.93
eigval :      656.28   666.10   671.22   683.40   687.56   709.96
eigval :      719.48   722.84   724.10   734.10   739.46   740.16
eigval :      751.62   753.44   756.85   760.87   769.21   782.87
eigval :      783.40   785.42   795.80   798.68   801.50   817.11
eigval :      823.51   828.46   835.09   838.03   855.60   864.64
eigval :      865.58   868.89   870.24   876.83   878.13   879.16
eigval :      879.47   885.19   887.33   889.64   894.71   899.06
eigval :      908.88   909.33   909.78   909.92   911.78   913.93
eigval :      915.35   916.64   924.57   925.79   926.49   926.75
eigval :      927.63   927.86   928.62   958.71   964.14   994.66
eigval :     1003.98  1021.48  1063.01  1073.84  1078.66  1078.86
eigval :     1087.44  1090.62  1104.34  1108.31  1120.61  1129.77
eigval :     1140.99  1144.01  1144.98  1163.29  1172.34  1174.18
eigval :     1176.01  1177.59  1179.74  1182.32  1185.19  1188.85
eigval :     1189.44  1195.83  1199.35  1203.86  1205.05  1210.25
eigval :     1216.33  1223.83  1227.42  1230.73  1239.07  1251.73
eigval :     1252.79  1258.31  1259.78  1261.92  1262.41  1275.74
eigval :     1277.03  1282.03  1285.33  1304.92  1320.89  1327.81
eigval :     1328.39  1331.66  1347.95  1356.23  1362.92  1365.36
eigval :     1366.16  1374.19  1377.87  1392.20  1398.73  1401.52
eigval :     1402.27  1409.80  1413.69  1427.31  1427.87  1429.20
eigval :     1430.92  1443.70  1449.53  1460.06  1462.30  1469.39
eigval :     1477.25  1482.56  1494.12  1505.42  1509.62  1529.42
eigval :     1547.85  1558.90  1560.99  1562.66  1579.46  1584.97
eigval :     1591.74  1595.75  1596.63  1599.24  1601.81  1604.13
eigval :     1604.77  1605.64  1606.76  1609.97  1613.15  3065.75
eigval :     3066.29  3066.89  3069.16  3069.66  3070.43  3072.61
eigval :     3073.28  3074.07  3074.17  3074.79  3075.63  3076.04
eigval :     3077.18  3078.18  3078.89  3078.89  3079.15  3082.40
eigval :     3083.91  3084.11  3085.78  3087.51  3089.06  3092.14
eigval :     3092.25  3093.37  3093.83  3096.08  3096.56  3098.50
eigval :     3106.76  3108.18  3174.39

   temp. (K)  partition function   enthalpy   heat capacity  entropy
                                   cal/mol     cal/K/mol   cal/K/mol   J/K/mol
 298.15  VIB  0.648E+19            24795.608    162.756    152.068
         ROT  0.139E+09              888.752      2.981     40.235
         INT  0.897E+27            25684.361    165.737    192.303
         TR   0.186E+29             1481.254      4.968     45.577
         TOT                       27165.6146   170.7047   237.8799   995.2896

       T/K    H(0)-H(T)+PV         H(T)/Eh          T*S/Eh         G(T)/Eh
   ------------------------------------------------------------------------
    298.15    0.432912E-01    0.744020E+00    0.113024E+00    0.630996E+00
   ------------------------------------------------------------------------

         :::::::::::::::::::::::::::::::::::::::::::::::::::::
         ::                  THERMODYNAMIC                  ::
         :::::::::::::::::::::::::::::::::::::::::::::::::::::
         :: total free energy        -138.826399113958 Eh   ::
         ::.................................................::
         :: total energy             -139.457394827150 Eh   ::
         :: zero point energy           0.700728983773 Eh   ::
         :: G(RRHO) w/o ZPVE           -0.069733270581 Eh   ::
         :: G(RRHO) contrib.            0.630995713192 Eh   ::
         :::::::::::::::::::::::::::::::::::::::::::::::::::::

           -------------------------------------------------
          | TOTAL ENERGY             -139.457394827150 Eh   |
          | TOTAL ENTHALPY           -138.713374680978 Eh   |
          | TOTAL FREE ENERGY        -138.826399113958 Eh   |
          | GRADIENT NORM               0.000039967072 Eh/α |
          | HOMO-LUMO GAP               2.284095669024 eV   |
           -------------------------------------------------

 * finished run on 2025/09/14 at 06:58:56.567
