   * xtb version 6.7.1 (edcfbbe) compiled by 'albert@albert-system' on 2024-07-22

   ID    Z sym.   atoms
    1    6 C      1-57
    2    1 H      58-91

          program call               : xtb data2507/gas/SBTF/SBTF_gas_S0_finalOpt.xtbopt.xyz --gfn 2 --spinpol --tblite --uhf 2 --ohess vtight --parallel 40 --molden --ceasefiles --namespace data2507/gas/SBTF/SBTF_gas_T1_preOpt
 * total energy  :  -139.3760817 Eh     change       -0.2876104E-07 Eh
 * total energy  :  -139.3823084 Eh     change       -0.6226679E-02 Eh
 * total energy  :  -139.3841694 Eh     change       -0.1861005E-02 Eh
 * total energy  :  -139.3842873 Eh     change       -0.1178418E-03 Eh
 * total energy  :  -139.3844050 Eh     change       -0.1177436E-03 Eh
 * total energy  :  -139.3844976 Eh     change       -0.9254653E-04 Eh
 * total energy  :  -139.3846389 Eh     change       -0.1413347E-03 Eh
 * total energy  :  -139.3847954 Eh     change       -0.1565077E-03 Eh
 * total energy  :  -139.3849237 Eh     change       -0.1283319E-03 Eh
 * total energy  :  -139.3850223 Eh     change       -0.9855875E-04 Eh
 * total energy  :  -139.3859786 Eh     change       -0.1137475E-05 Eh
 * total energy  :  -139.3859796 Eh     change       -0.1058305E-05 Eh
 * total energy  :  -139.3859809 Eh     change       -0.1286944E-05 Eh
 * total energy  :  -139.3859822 Eh     change       -0.1253237E-05 Eh
 * total energy  :  -139.3859835 Eh     change       -0.1291251E-05 Eh
 * total energy  :  -139.3859847 Eh     change       -0.1282208E-05 Eh
 * total energy  :  -139.3859861 Eh     change       -0.1367838E-05 Eh
 * total energy  :  -139.3859875 Eh     change       -0.1384521E-05 Eh
 * total energy  :  -139.3859875 Eh     change       -0.4061036E-08 Eh
   *** GEOMETRY OPTIMIZATION CONVERGED AFTER 94 ITERATIONS ***

 final structure:
================
91
 xtb: 6.7.1 (edcfbbe)
C            1.23312143888951       -3.88158624169147        3.35655998842251
C            0.77889830659899       -2.61583475389157        3.69312082614609
C            0.48504402810109       -1.67992971662128        2.70968501180312
C            0.66992477018410       -2.03551693430588        1.39332960014396
C            1.13235122600753       -3.31408738616912        1.04515758322846
C            1.41550757018692       -4.24386168594415        2.03114981389315
C            1.26461787404036       -3.38068375584430       -0.40407058755278
C            1.71975790055485       -4.39144577914925       -1.23298148383341
C            1.78610514934577       -4.15054594194877       -2.59671366562525
C            1.40761446669944       -2.92535552645855       -3.12261636457721
C            0.94159755841940       -1.90907516374160       -2.29774078389588
C            0.87852549944796       -2.14261149630974       -0.94335392942374
C            0.36339231882665       -1.21643586762823        0.14587997444060
C            1.01149433809877        0.14217941823119        0.13152462752874
C            0.19985125939128        1.31445966327920        0.16643263116507
C            0.84163689836721        2.58093089716482        0.03337230477468
C            2.18178528950960        2.69538061934795       -0.08613125371427
C            3.02103850355732        1.54748922146746       -0.03259190507430
C            4.40207190538920        1.68233982824601       -0.11590398279610
C            5.25419306794727        0.58350281890277       -0.06862625726362
C            6.70211256660870        0.73578722978201       -0.17614892735225
C            7.47070823678703       -0.24613321222747       -0.84545912768106
C            8.82240466868277       -0.12083291282255       -0.96595973642457
C            9.50300683595710        0.98840755279836       -0.41748739745367
C           10.89827555113897        1.14436938667534       -0.52111349004649
C           11.52233283571013        2.23288917945590        0.02459653273136
C           10.77624626130417        3.21250829438285        0.69774211503337
C            9.42008696940099        3.08990511379263        0.81409972429542
C            8.74545363690402        1.97981616273130        0.26083058266771
C            7.35136226340584        1.82815584210783        0.36149467036241
C            4.66533610020693       -0.68104862603403        0.09954953147656
C            3.30985008983658       -0.83840909371164        0.18683262589604
C            2.41574778918620        0.25992024473480        0.09548629361217
C           -1.20215600597700        1.23971862126785        0.30109628937030
C           -2.00777637907580        2.38380755114004        0.60055811909896
C           -3.36473382894053        2.32322450392163        0.59933918902279
C           -4.05792882295961        1.13850386363728        0.24993619896316
C           -5.50048822637601        1.18547926833895        0.11959383522560
C           -6.24188709682358        1.78783257561859        1.10881055223520
C           -7.65328431919605        1.77417657332957        1.10961486467482
C           -8.36986653732888        2.33925344386272        2.18239904483871
C           -9.73787481185738        2.28659895782613        2.22053794070515
C          -10.43325037020790        1.65820035613081        1.18631533712840
C           -9.75460570260913        1.10520410500638        0.12502871854737
C           -8.35685936417673        1.15243500080591        0.04763154697330
C           -7.60093236037997        0.62251932444083       -1.06436814425601
C           -8.22498978303296        0.10811610020150       -2.21153629502202
C           -7.49906500685265       -0.33183958326914       -3.29150986123293
C           -6.10891249300737       -0.25076079275274       -3.27602038388750
C           -5.46852949373771        0.23777398793170       -2.16525880057927
C           -6.18611240943762        0.65025999951256       -1.03088672317461
C           -3.30166173462921       -0.06661874846217        0.11112645261369
C           -3.93395869139120       -1.31200379327270        0.01843122561868
C           -3.19363997057159       -2.47593876112495       -0.09028561405030
C           -1.81616210925042       -2.42400885709362       -0.08430316083988
C           -1.14911553206604       -1.20204451800563        0.04873013228520
C           -1.87929526322893       -0.01887873970335        0.15590532520793
H            1.44973642731393       -4.59463354367687        4.13856669223027
H            0.64890944895159       -2.35448188403444        4.73290538422706
H            0.12440302477450       -0.69577156393793        2.97086952162506
H            1.77144859394584       -5.23053931029954        1.77377059360806
H            2.01841810351604       -5.34665905375767       -0.82689751741328
H            2.14070344104243       -4.92745667436644       -3.25826352000903
H            1.47377999569479       -2.75860589856062       -4.18760605718680
H            0.64314083387058       -0.95559654975124       -2.70838214654819
H            0.23410439425605        3.46994096842489       -0.01951925573763
H            2.64354929127281        3.66369973082858       -0.21723565331185
H            4.81322381850863        2.67310996639362       -0.24894335622355
H            6.96482741964420       -1.09061580181601       -1.29020360274358
H            9.39650093867910       -0.87203914601367       -1.49043141870223
H           11.46863783673005        0.38675563105863       -1.04019958355207
H           12.59350478213717        2.34608737837922       -0.05801984689101
H           11.28510518840194        4.06516869788869        1.12366463182004
H            8.84208487340483        3.84265842821191        1.33166849062554
H            6.79133614290554        2.57940363859886        0.90015359146967
H            5.30030656338866       -1.54958296985981        0.19813036843418
H            2.93007354999372       -1.82768741216731        0.35756221012165
H           -1.52972405075532        3.31555835550014        0.85594653286332
H           -3.94259491397673        3.21253315834291        0.80577538979217
H           -5.74001306651204        2.21590371468626        1.96543674476258
H           -7.81587235041913        2.81244761856213        2.98084322906282
H          -10.28030506102613        2.72096538234528        3.04749368698390
H          -11.51157045147391        1.60551610210090        1.22105498793754
H          -10.32518110411767        0.62310178611439       -0.65313115230455
H           -9.30132627918242        0.06743661513850       -2.26379111648293
H           -8.00740454522748       -0.72214925290953       -4.16106575054762
H           -5.53831069171186       -0.56409212629245       -4.13773845968789
H           -4.39200990407207        0.31750180606355       -2.16144050641701
H           -5.01143981377361       -1.36299923398832        0.03790289175318
H           -3.69719599251140       -3.42761411395899       -0.17091549706942
H           -1.25158946102139       -3.33966370222967       -0.16567432142430

 projected vibrational frequencies (cm⁻¹)
eigval :       -0.00    -0.00     0.00     0.00     0.00     0.00
eigval :        8.08    10.90    20.03    20.62    25.80    33.29
eigval :       35.01    47.79    54.79    57.46    69.99    75.52
eigval :       82.67    94.98   104.03   109.19   116.85   134.10
eigval :      138.72   146.15   160.54   165.86   172.54   187.92
eigval :      193.61   214.19   218.74   229.23   250.35   256.72
eigval :      265.27   268.13   279.05   288.93   297.53   311.34
eigval :      320.45   352.64   362.77   372.88   380.95   387.20
eigval :      391.57   403.01   409.02   410.60   412.09   425.16
eigval :      441.75   444.71   447.98   454.71   457.68   462.83
eigval :      472.62   482.84   491.64   498.10   498.76   501.59
eigval :      507.30   517.72   522.76   527.59   535.08   543.38
eigval :      549.74   560.04   574.32   577.17   584.11   587.65
eigval :      591.55   596.78   609.47   619.79   622.79   639.00
eigval :      646.45   652.66   666.08   681.23   681.76   703.52
eigval :      710.80   717.32   721.56   722.01   727.56   735.35
eigval :      747.28   752.14   754.67   756.83   765.98   777.12
eigval :      779.48   780.38   785.08   788.54   791.03   796.79
eigval :      813.03   817.26   817.70   834.09   847.49   854.23
eigval :      856.83   861.07   863.76   872.08   873.07   875.53
eigval :      877.46   878.09   879.57   886.28   887.02   892.73
eigval :      901.30   905.57   908.16   909.14   909.72   910.47
eigval :      912.75   913.46   914.89   923.03   924.04   926.42
eigval :      926.90   927.32   927.38   952.68   959.87   991.45
eigval :      999.03  1011.69  1054.78  1073.57  1078.54  1078.60
eigval :     1086.71  1087.40  1103.41  1104.98  1109.43  1129.71
eigval :     1137.93  1140.57  1144.27  1157.21  1163.82  1167.63
eigval :     1171.72  1172.87  1176.55  1179.72  1180.70  1181.94
eigval :     1188.23  1191.66  1195.79  1198.15  1202.53  1207.76
eigval :     1208.25  1214.29  1223.41  1232.09  1232.76  1245.70
eigval :     1248.85  1254.65  1256.25  1260.84  1263.66  1264.97
eigval :     1281.39  1282.63  1288.28  1295.00  1317.51  1327.14
eigval :     1328.53  1333.38  1339.19  1341.25  1345.57  1359.77
eigval :     1361.42  1363.64  1365.65  1371.44  1375.01  1384.50
eigval :     1397.57  1400.00  1413.44  1417.79  1421.08  1424.84
eigval :     1426.36  1429.41  1430.38  1434.52  1440.16  1457.75
eigval :     1458.53  1467.08  1468.63  1471.40  1489.40  1500.48
eigval :     1502.14  1518.55  1527.36  1538.74  1540.71  1551.65
eigval :     1556.46  1569.25  1583.79  1589.78  1590.99  1595.92
eigval :     1597.78  1599.51  1600.01  1601.70  1606.12  3064.83
eigval :     3066.42  3066.97  3068.66  3069.07  3070.75  3072.17
eigval :     3073.95  3074.70  3074.88  3075.88  3076.39  3076.93
eigval :     3078.01  3078.19  3078.63  3079.30  3082.19  3083.77
eigval :     3084.62  3085.33  3086.51  3087.09  3088.51  3092.62
eigval :     3094.08  3095.10  3096.72  3098.49  3099.80  3104.22
eigval :     3106.88  3110.02  3181.68

   temp. (K)  partition function   enthalpy   heat capacity  entropy
                                   cal/mol     cal/K/mol   cal/K/mol   J/K/mol
 298.15  VIB  0.595E+19            25002.521    164.379    153.022
         ROT  0.139E+09              888.752      2.981     40.242
         INT  0.827E+27            25891.273    167.360    193.264
         TR   0.186E+29             1481.254      4.968     45.577
         TOT                       27372.5269   172.3285   238.8409   999.3104

       T/K    H(0)-H(T)+PV         H(T)/Eh          T*S/Eh         G(T)/Eh
   ------------------------------------------------------------------------
    298.15    0.436209E-01    0.740867E+00    0.113481E+00    0.627386E+00
   ------------------------------------------------------------------------

         :::::::::::::::::::::::::::::::::::::::::::::::::::::
         ::                  THERMODYNAMIC                  ::
         :::::::::::::::::::::::::::::::::::::::::::::::::::::
         :: total free energy        -138.758601244364 Eh   ::
         ::.................................................::
         :: total energy             -139.385987495807 Eh   ::
         :: zero point energy           0.697246382161 Eh   ::
         :: G(RRHO) w/o ZPVE           -0.069860130718 Eh   ::
         :: G(RRHO) contrib.            0.627386251443 Eh   ::
         :::::::::::::::::::::::::::::::::::::::::::::::::::::

           -------------------------------------------------
          | TOTAL ENERGY             -139.385987495807 Eh   |
          | TOTAL ENTHALPY           -138.645120215464 Eh   |
          | TOTAL FREE ENERGY        -138.758601244364 Eh   |
          | GRADIENT NORM               0.000060295692 Eh/α |
           -------------------------------------------------

 * finished run on 2025/09/14 at 06:59:14.087
