   * xtb version 6.7.1 (edcfbbe) compiled by 'albert@albert-system' on 2024-07-22

   ID    Z sym.   atoms
    1    6 C      1-57
    2    1 H      58-91

          program call               : xtb data2507/gas/SBTF/SBTF_gas_T1_crest.xyz --gfn 2 --spinpol --tblite --uhf 2 --ohess vtight --parallel 40 --molden --ceasefiles --namespace data2507/gas/SBTF/SBTF_gas_T1_finalOpt
 * total energy  :  -139.3865775 Eh     change        0.3184795E-08 Eh
 * total energy  :  -139.3866029 Eh     change       -0.2534968E-04 Eh
 * total energy  :  -139.3866131 Eh     change       -0.1020468E-04 Eh
 * total energy  :  -139.3866150 Eh     change       -0.1930107E-05 Eh
 * total energy  :  -139.3866170 Eh     change       -0.1970098E-05 Eh
 * total energy  :  -139.3866185 Eh     change       -0.1542022E-05 Eh
 * total energy  :  -139.3866200 Eh     change       -0.1435087E-05 Eh
 * total energy  :  -139.3866211 Eh     change       -0.1104395E-05 Eh
 * total energy  :  -139.3866221 Eh     change       -0.9747408E-06 Eh
 * total energy  :  -139.3866231 Eh     change       -0.1055549E-05 Eh
 * total energy  :  -139.3866286 Eh     change       -0.1396113E-05 Eh
 * total energy  :  -139.3866298 Eh     change       -0.1264061E-05 Eh
 * total energy  :  -139.3866308 Eh     change       -0.9856940E-06 Eh
 * total energy  :  -139.3866316 Eh     change       -0.7476380E-06 Eh
 * total energy  :  -139.3866324 Eh     change       -0.8171463E-06 Eh
 * total energy  :  -139.3866329 Eh     change       -0.5432082E-06 Eh
 * total energy  :  -139.3866334 Eh     change       -0.4207911E-06 Eh
 * total energy  :  -139.3866337 Eh     change       -0.3654971E-06 Eh
 * total energy  :  -139.3866337 Eh     change       -0.5951875E-08 Eh
   *** GEOMETRY OPTIMIZATION CONVERGED AFTER 22 ITERATIONS ***

 final structure:
================
91
 xtb: 6.7.1 (edcfbbe)
C            1.05835429466554       -4.27709997660443        2.70391689587373
C            0.55183012441440       -3.05945310212494        3.13116386391448
C            0.32172871659488       -2.02797862825867        2.22960304167434
C            0.62437638374937       -2.23924283136236        0.90393759736663
C            1.14082883671148       -3.46841700873164        0.46458226562791
C            1.35868822932523       -4.49442962391830        1.36828331019523
C            1.39851286258063       -3.37858059629075       -0.96623311303320
C            1.94795232037605       -4.28824306982541       -1.85317959315748
C            2.12252653851173       -3.90339883573887       -3.17355282459397
C            1.75829537637333       -2.63585674576642       -3.59999134784609
C            1.19909865681503       -1.72039048862478       -2.71722918732511
C            1.02739181635612       -2.09733902733077       -1.40516585961439
C            0.40263503767133       -1.29849266136540       -0.27400705164661
C            1.01903008607051        0.06520409928267       -0.11099988339383
C            0.18543250380954        1.21843841700864       -0.06502918255000
C            0.81099685150503        2.49969643290373       -0.09268532792953
C            2.15419055022952        2.64067277732694       -0.10250474448003
C            3.00838304222722        1.50540266967444       -0.03913986285454
C            4.39003764886580        1.66402179850029       -0.00768934327085
C            5.25412507593474        0.57679131341336        0.04532282263594
C            6.70382836792483        0.75510088818216        0.05957019404163
C            7.53818592868331       -0.16826201858706       -0.61367607384743
C            8.89265799800163       -0.01641029935316       -0.62225746868104
C            9.50890104428435        1.06155597961776        0.05026538379654
C           10.90501984977105        1.24330688740643        0.06428696848093
C           11.46569835836062        2.29916345669906        0.72949060275552
C           10.65290636419694        3.21919849672235        1.40957875595692
C            9.29437786107267        3.07086973308059        1.41286140220941
C            8.68422823380245        1.99330786717573        0.73472300491795
C            7.28941907448091        1.81635909874083        0.71770311699351
C            4.67821319283544       -0.70407426238759        0.09689818902521
C            3.32326262079879       -0.88507354769663        0.07003888408212
C            2.42018771348254        0.20442096232861       -0.02867658272576
C           -1.22178737961792        1.11169651909585       -0.00644629554816
C           -2.06442906768984        2.23326566401080        0.27098357370241
C           -3.41890300811270        2.14305425775835        0.23149128738089
C           -4.08026107814821        0.92370585056725       -0.06216101101480
C           -5.51885850922934        0.85731016523006        0.06412911441870
C           -6.09944567606581       -0.13017972012628        0.83049523784465
C           -7.48013076941547       -0.15018382141071        1.11587932908236
C           -8.02108363668684       -1.16033309738949        1.93619279077012
C           -9.35220836897680       -1.16908280107376        2.25697299581339
C          -10.18572891767633       -0.16006275125822        1.77142519725226
C           -9.68006494945129        0.83556057981520        0.96747043395023
C           -8.32625233813829        0.86986090184628        0.61079718954487
C           -7.75433319604435        1.87735903607359       -0.25351325605097
C           -8.53762455441366        2.86934570074518       -0.86242645574248
C           -7.99576044857066        3.78364497781884       -1.73409431675662
C           -6.64336561045292        3.72111768268818       -2.05643153170386
C           -5.84832748453431        2.76684381494167       -1.47067192349917
C           -6.36690200582841        1.85695570397268       -0.53557500614768
C           -3.28224285404369       -0.22822001566185       -0.34254431139478
C           -3.86462694733423       -1.42573937684899       -0.77252206696667
C           -3.08854082698969       -2.54679232390640       -1.01488654430468
C           -1.72251994054601       -2.49220514462197       -0.84255355485397
C           -1.09786168098518       -1.29373739995798       -0.48260699077641
C           -1.86233004925690       -0.14821767357683       -0.25810033782980
H            1.22341304892804       -5.06658215081709        3.42253360541902
H            0.33055709765839       -2.91121255117044        4.17780990007263
H           -0.07973837915764       -1.08136223158310        2.56076254795261
H            1.75514419727296       -5.44398554403394        1.04020569169676
H            2.23585869715640       -5.27594469479079       -1.52438147249267
H            2.55108104225194       -4.59996940288696       -3.87933325052050
H            1.90902100164999       -2.35647238135403       -4.63227034855219
H            0.91173271266173       -0.73392353783504       -3.05057035027267
H            0.19336496029174        3.38152936732657       -0.14646848910624
H            2.60555253447955        3.62157281531365       -0.14950058824624
H            4.79235430837226        2.66620083442431       -0.05485808747365
H            7.08255233198280       -0.98733717298057       -1.15077864532949
H            9.51860988981453       -0.72193607382420       -1.15083166877794
H           11.52685617519143        0.53155340601723       -0.46057128684756
H           12.53775006373063        2.43227154089659        0.73692723780526
H           11.11230025359112        4.04647613440643        1.93107035126443
H            8.66502483434528        3.77779768214968        1.93514597244658
H            6.67581239187923        2.52133183772032        1.26060303109918
H            5.32060795022090       -1.56714198540848        0.19565064310276
H            2.94812070487072       -1.88709988444534        0.15854805633426
H           -1.62005139251747        3.16774408569313        0.57276540069193
H           -4.02165427915898        2.99857604150530        0.50093725467940
H           -5.47223517875548       -0.87400473818104        1.30195804675889
H           -7.35997784976595       -1.92998482952935        2.30886831745805
H           -9.75954962419618       -1.94705607704132        2.88592938292966
H          -11.23441575459865       -0.16123179055863        2.03014008931552
H          -10.35382928154316        1.60068688180244        0.61529752725912
H           -9.59546841578445        2.91829483800015       -0.65905739460454
H           -8.62443920261370        4.53680527681408       -2.18616172715743
H           -6.22398263501542        4.41386673362651       -2.77111782754866
H           -4.80664705777666        2.69740910192678       -1.74650133256219
H           -4.93065663293161       -1.46744110837327       -0.93532588287719
H           -3.55631540421820       -3.46640853654470       -1.33351576224601
H           -1.13173222779078       -3.38040881360238       -1.00331493683395

 projected vibrational frequencies (cm⁻¹)
eigval :       -0.00    -0.00     0.00     0.00     0.00     0.00
eigval :        7.65    11.17    18.30    21.09    26.50    33.83
eigval :       35.22    46.50    54.07    59.94    68.34    79.90
eigval :       83.75    93.48   103.15   113.92   116.13   132.84
eigval :      138.53   145.66   163.84   165.17   173.59   179.80
eigval :      194.58   218.71   226.03   232.45   246.88   257.16
eigval :      265.70   273.59   289.47   293.11   296.23   312.93
eigval :      329.55   352.67   362.74   365.09   387.48   388.81
eigval :      392.01   399.66   406.57   411.24   416.56   426.64
eigval :      440.53   446.21   449.63   455.54   456.65   463.96
eigval :      473.85   481.53   494.85   497.74   498.82   504.35
eigval :      508.01   518.29   526.37   527.78   534.16   538.53
eigval :      552.59   559.29   571.05   579.01   585.08   587.93
eigval :      592.04   597.96   612.75   619.40   622.23   638.86
eigval :      647.53   653.62   666.69   680.38   682.68   707.56
eigval :      709.43   716.43   721.92   722.35   727.64   735.57
eigval :      751.61   752.27   754.84   758.81   765.01   778.70
eigval :      779.36   781.71   785.38   792.10   793.02   797.79
eigval :      813.78   815.81   817.88   834.32   851.17   856.27
eigval :      858.58   861.93   863.80   872.46   873.81   877.38
eigval :      877.57   879.66   881.69   886.05   888.03   893.18
eigval :      903.53   906.81   908.55   909.07   909.68   910.00
eigval :      913.53   915.13   919.61   922.81   924.05   926.26
eigval :      926.87   927.15   934.91   954.17   960.46   989.53
eigval :      998.94  1016.96  1056.69  1073.43  1078.44  1078.59
eigval :     1087.13  1087.45  1104.85  1107.11  1110.83  1128.63
eigval :     1137.43  1140.44  1144.24  1158.89  1163.71  1168.82
eigval :     1171.60  1173.70  1176.66  1179.47  1180.02  1182.02
eigval :     1187.35  1190.88  1195.11  1199.08  1204.73  1205.17
eigval :     1208.21  1214.59  1225.27  1232.17  1232.51  1245.25
eigval :     1249.28  1253.16  1256.22  1261.25  1262.68  1270.46
eigval :     1281.54  1284.25  1288.03  1298.96  1308.78  1327.11
eigval :     1327.94  1334.16  1338.06  1338.95  1347.39  1359.49
eigval :     1360.10  1362.34  1365.54  1370.89  1377.42  1383.93
eigval :     1397.92  1399.71  1413.02  1414.37  1421.24  1423.84
eigval :     1426.38  1428.23  1430.62  1434.45  1439.79  1457.76
eigval :     1459.72  1468.09  1468.80  1470.42  1490.74  1499.13
eigval :     1502.53  1517.06  1527.66  1537.66  1541.43  1550.14
eigval :     1557.50  1568.86  1583.71  1587.87  1591.60  1594.88
eigval :     1595.77  1599.22  1600.85  1601.83  1606.67  3064.63
eigval :     3066.22  3067.61  3068.36  3068.84  3071.69  3071.84
eigval :     3073.72  3073.88  3074.62  3074.80  3075.91  3076.96
eigval :     3077.72  3078.00  3078.36  3079.09  3080.20  3081.89
eigval :     3084.42  3084.80  3086.29  3087.02  3088.32  3091.69
eigval :     3092.42  3093.73  3094.44  3096.04  3098.94  3103.02
eigval :     3107.30  3110.96  3177.85

   temp. (K)  partition function   enthalpy   heat capacity  entropy
                                   cal/mol     cal/K/mol   cal/K/mol   J/K/mol
 298.15  VIB  0.557E+19            24949.561    164.212    152.684
         ROT  0.143E+09              888.752      2.981     40.297
         INT  0.796E+27            25838.313    167.193    192.981
         TR   0.186E+29             1481.254      4.968     45.577
         TOT                       27319.5668   172.1609   238.5584   998.1282

       T/K    H(0)-H(T)+PV         H(T)/Eh          T*S/Eh         G(T)/Eh
   ------------------------------------------------------------------------
    298.15    0.435365E-01    0.740989E+00    0.113347E+00    0.627643E+00
   ------------------------------------------------------------------------

         :::::::::::::::::::::::::::::::::::::::::::::::::::::
         ::                  THERMODYNAMIC                  ::
         :::::::::::::::::::::::::::::::::::::::::::::::::::::
         :: total free energy        -138.758990963920 Eh   ::
         ::.................................................::
         :: total energy             -139.386633656119 Eh   ::
         :: zero point energy           0.697452969817 Eh   ::
         :: G(RRHO) w/o ZPVE           -0.069810277619 Eh   ::
         :: G(RRHO) contrib.            0.627642692199 Eh   ::
         :::::::::::::::::::::::::::::::::::::::::::::::::::::

           -------------------------------------------------
          | TOTAL ENERGY             -139.386633656119 Eh   |
          | TOTAL ENTHALPY           -138.645644185328 Eh   |
          | TOTAL FREE ENERGY        -138.758990963920 Eh   |
          | GRADIENT NORM               0.000054334225 Eh/α |
           -------------------------------------------------

 * finished run on 2025/09/14 at 07:05:43.321
