   * xtb version 6.7.1 (edcfbbe) compiled by 'albert@albert-system' on 2024-07-22

   ID    Z sym.   atoms
    1    6 C      1-57
    2    1 H      58-91

          program call               : xtb data2507/gas/SBTF/SBTF.xyz --gfn 2 --ohess vtight --parallel 40 --molden --ceasefiles --namespace data2507/gas/SBTF/SBTF_gas_S0_preOpt
          :  Hamiltonian                  GFN2-xTB          :
 * total energy  :  -139.4255273 Eh     change       -0.2669623E-08 Eh
 * total energy  :  -139.4452766 Eh     change       -0.1974923E-01 Eh
 * total energy  :  -139.4513331 Eh     change       -0.6056550E-02 Eh
 * total energy  :  -139.4532215 Eh     change       -0.1888357E-02 Eh
 * total energy  :  -139.4547522 Eh     change       -0.1530738E-02 Eh
 * total energy  :  -139.4554081 Eh     change       -0.6559290E-03 Eh
 * total energy  :  -139.4556823 Eh     change       -0.2741934E-03 Eh
 * total energy  :  -139.4558309 Eh     change       -0.1485544E-03 Eh
 * total energy  :  -139.4559497 Eh     change       -0.1187896E-03 Eh
 * total energy  :  -139.4560714 Eh     change       -0.1216792E-03 Eh
 * total energy  :  -139.4573891 Eh     change       -0.7703201E-06 Eh
 * total energy  :  -139.4573898 Eh     change       -0.6429921E-06 Eh
 * total energy  :  -139.4573904 Eh     change       -0.6200205E-06 Eh
 * total energy  :  -139.4573910 Eh     change       -0.5684901E-06 Eh
 * total energy  :  -139.4573915 Eh     change       -0.5123219E-06 Eh
 * total energy  :  -139.4573920 Eh     change       -0.4936626E-06 Eh
 * total energy  :  -139.4573925 Eh     change       -0.5498587E-06 Eh
 * total energy  :  -139.4573932 Eh     change       -0.6595500E-06 Eh
 * total energy  :  -139.4573932 Eh     change       -0.2160704E-08 Eh
   *** GEOMETRY OPTIMIZATION CONVERGED AFTER 94 ITERATIONS ***

 final structure:
================
91
 xtb: 6.7.1 (edcfbbe)
C            0.99876243275732       -4.00777337178680        3.10796010794792
C            0.52772933279619       -2.75811831387486        3.47971147864642
C            0.29258295601919       -1.77399029006134        2.52819150525510
C            0.55039852340221       -2.06544029227662        1.20801549702562
C            1.03131581574084       -3.32764428792792        0.82530996113366
C            1.25643467614340       -4.30559881990458        1.77887537972725
C            1.24857980019873       -3.32314714790087       -0.61534016210038
C            1.74973737219102       -4.29352276991512       -1.46547707292473
C            1.89881421192911       -3.98450812219094       -2.80890127968313
C            1.55621216779537       -2.73217132680450       -3.29381033260380
C            1.04421503759458       -1.75625110471334       -2.44787187568972
C            0.89794163875896       -2.05717444560307       -1.11316658111484
C            0.31611548943215       -1.19255521352517       -0.01246756937934
C            0.95876626873079        0.17162782918937        0.06652523621897
C            0.17988386744676        1.31620306789108        0.13180182420721
C            0.79716553390364        2.58474316711810        0.01417847649577
C            2.14335787469871        2.71085239733096       -0.11448085189444
C            2.97381033737843        1.57239450839926       -0.07049132101946
C            4.37119337198464        1.70515167722450       -0.14226063080541
C            5.20365486371157        0.61352027185543       -0.08289142511775
C            6.66235863964191        0.75449294155806       -0.17357516223721
C            7.41261570399380       -0.17859661146581       -0.92335860745841
C            8.76783166544298       -0.06487786963094       -1.02928870371125
C            9.46085385728854        0.98294514063119       -0.38696291379288
C           10.86024826434871        1.12634326810305       -0.47385347582759
C           11.49752309622127        2.15490095906664        0.16214788526263
C           10.76371837831190        3.08605913721364        0.91408737082120
C            9.40589110095122        2.97381917921715        1.01759034678610
C            8.71753276001931        1.92463515237252        0.37196551458875
C            7.31937874117361        1.78444904927177        0.45730401006689
C            4.61609645642017       -0.65626614792106        0.08348254763618
C            3.26135165774709       -0.81222899294913        0.14694411432777
C            2.37848727295382        0.28618525075724        0.04137337991340
C           -1.27139225792746        1.24301594505666        0.27942942980702
C           -2.03256305406719        2.33184404232479        0.65180278828017
C           -3.42587438192783        2.26640963315227        0.68904405035278
C           -4.09387363024578        1.12262924092906        0.32822229047961
C           -5.57071791443778        1.11060603979174        0.32139910151746
C           -6.24668816173004        1.22376144207228        1.49349923811713
C           -7.66648087431525        1.20443780558056        1.54664207433807
C           -8.33194645632327        1.30507789881187        2.77931523238144
C           -9.70046630788414        1.27319901662775        2.84523305884232
C          -10.44313369772490        1.13658650718388        1.67186993972831
C           -9.81285833869245        1.03811680346298        0.45573935143046
C           -8.41307817953118        1.07142627863075        0.35278795762734
C           -7.70824005774056        0.98410727258226       -0.90383368300779
C           -8.37272308870911        0.88361219468507       -2.13717785688456
C           -7.68293351778892        0.82060667838405       -3.32215304127170
C           -6.28920595104352        0.86390443952089       -3.32695651815074
C           -5.60889224992621        0.95911488269612       -2.14078296485809
C           -6.29284143273083        1.00957832866780       -0.91453041557997
C           -3.35056129541667       -0.04523156052843        0.01382224863538
C           -3.98941575022791       -1.26706482515416       -0.27279974443411
C           -3.25092651347732       -2.38720099979250       -0.53117306926084
C           -1.85583670571451       -2.34182743411490       -0.47703053199540
C           -1.19327552723387       -1.16976325442704       -0.19454597215735
C           -1.93063654791745        0.00998320132152        0.02828505737307
H            1.16968838952877       -4.75898684200797        3.86523345195063
H            0.33860290978136       -2.54776171887105        4.52204433369585
H           -0.08068475188892       -0.80192497116828        2.81626939677597
H            1.62639460732793       -5.27971664439799        1.49475259737864
H            2.02099890886889       -5.26980713538386       -1.09149701152988
H            2.29053119872108       -4.72911462005081       -3.48654957390812
H            1.68678323268597       -2.51251140344809       -4.34318407316172
H            0.77351322037880       -0.78156071986688       -2.82700606758023
H            0.18191403248185        3.46942835407754       -0.01850523505278
H            2.59666491802975        3.68381436605769       -0.23952071689348
H            4.78442947475327        2.69694683353976       -0.26167593609404
H            6.89218539038094       -0.97598509182296       -1.43391036122806
H            9.33284942886054       -0.77892397046260       -1.61211923456626
H           11.42062161548989        0.40646415046991       -1.05385058772470
H           12.57047388574634        2.25923098535151        0.09156927799126
H           11.28387736388568        3.89248277391825        1.41044866676270
H            8.83708587030167        3.68858801454172        1.59564220183342
H            6.76438641755947        2.49619679578268        1.05233194982329
H            5.25560501305093       -1.52034822568861        0.19140173860859
H            2.87423232271308       -1.79986222326802        0.31456610795699
H           -1.56547949900821        3.26364657834891        0.92918241627592
H           -3.98953810811799        3.14397390163030        0.97264617183008
H           -5.70119531141960        1.30960380469532        2.42343142992146
H           -7.74145269924349        1.40683526218211        3.67899044041746
H          -10.20581435919085        1.35082509575961        3.79667170856926
H          -11.52190050983458        1.10815786927976        1.72238037689567
H          -10.41863930132080        0.93227673281036       -0.43033578562750
H           -9.45048458837228        0.85912602996148       -2.16664659546987
H           -8.22106933884346        0.74375027412023       -4.25574437641599
H           -5.75090887502388        0.82508151026235       -4.26245173451706
H           -4.52974960741828        0.99972969240576       -2.13832126981808
H           -5.06815712934656       -1.30794029769462       -0.27398438574785
H           -3.73961970619119       -3.32376814452144       -0.75553658279049
H           -1.30214068971555       -3.25333146281493       -0.64409743055576

          :  Hamiltonian                  GFN2-xTB          :
         :: gradient norm              0.000035725357 Eh/a0 ::
         :: HOMO-LUMO gap              2.284198139357 eV    ::
         :: SCC energy              -142.209333417282 Eh    ::
         :: -> dispersion             -0.141491369512 Eh    ::
         :: repulsion energy           2.751940228286 Eh    ::

    * Orbital Energies and Occupations

         #    Occupation            Energy/Eh            Energy/eV
      -------------------------------------------------------------
         1        2.0000           -0.6621085             -18.0169
       ...           ...                  ...                  ...
       119        2.0000           -0.4049087             -11.0181
       120        2.0000           -0.4041579             -10.9977
       121        2.0000           -0.4018135             -10.9339
       122        2.0000           -0.4001591             -10.8889
       123        2.0000           -0.3983483             -10.8396
       124        2.0000           -0.3905027             -10.6261
       125        2.0000           -0.3894973             -10.5988
       126        2.0000           -0.3845364             -10.4638
       127        2.0000           -0.3827153             -10.4142
       128        2.0000           -0.3785778             -10.3016
       129        2.0000           -0.3748514             -10.2002
       130        2.0000           -0.3727745             -10.1437
       131        2.0000           -0.3575420              -9.7292 (HOMO)
       132                         -0.2735993              -7.4450 (LUMO)
       133                         -0.2601411              -7.0788
       134                         -0.2562971              -6.9742
       135                         -0.2531974              -6.8899
       136                         -0.2499108              -6.8004
       137                         -0.2473881              -6.7318
       138                         -0.2353692              -6.4047
       139                         -0.2274405              -6.1890
       140                         -0.2241732              -6.1001
       141                         -0.2228543              -6.0642
       142                         -0.2141507              -5.8273
       ...                                ...                  ...
       262                          0.7285782              19.8256
      -------------------------------------------------------------
                  HL-Gap            0.0839427 Eh            2.2842 eV

     #   Z          covCN         q      C6AA      α(0)
     1   6 C        2.921    -0.033    28.810     8.802
     2   6 C        2.923    -0.031    28.768     8.796
     3   6 C        2.913    -0.033    28.814     8.802
     4   6 C        3.064     0.007    27.799     8.646
     5   6 C        3.033     0.001    27.983     8.677
     6   6 C        2.914    -0.034    28.850     8.808
     7   6 C        3.033     0.001    27.971     8.675
     8   6 C        2.914    -0.035    28.862     8.810
     9   6 C        2.921    -0.033    28.811     8.802
    10   6 C        2.923    -0.031    28.772     8.796
    11   6 C        2.914    -0.032    28.790     8.799
    12   6 C        3.058     0.007    27.817     8.649
    13   6 C        3.947     0.013    20.286     6.400
    14   6 C        2.972     0.003    27.943     8.671
    15   6 C        2.975     0.002    27.975     8.676
    16   6 C        2.921    -0.039    28.961     8.825
    17   6 C        2.917    -0.039    28.980     8.828
    18   6 C        2.989     0.010    27.784     8.646
    19   6 C        2.929    -0.042    29.033     8.836
    20   6 C        2.973     0.009    27.814     8.651
    21   6 C        2.973     0.009    27.814     8.651
    22   6 C        2.920    -0.034    28.849     8.808
    23   6 C        2.916    -0.036    28.901     8.816
    24   6 C        2.987     0.011    27.755     8.642
    25   6 C        2.918    -0.035    28.869     8.811
    26   6 C        2.916    -0.031    28.763     8.795
    27   6 C        2.916    -0.030    28.755     8.793
    28   6 C        2.918    -0.035    28.879     8.812
    29   6 C        2.985     0.012    27.730     8.638
    30   6 C        2.924    -0.041    29.023     8.835
    31   6 C        2.922    -0.035    28.876     8.812
    32   6 C        2.917    -0.039    28.974     8.827
    33   6 C        2.982     0.005    27.908     8.666
    34   6 C        2.977     0.003    27.951     8.672
    35   6 C        2.921    -0.040    28.986     8.829
    36   6 C        2.920    -0.037    28.915     8.818
    37   6 C        2.978     0.004    27.936     8.670
    38   6 C        2.972     0.005    27.903     8.665
    39   6 C        2.923    -0.043    29.063     8.841
    40   6 C        2.986     0.011    27.760     8.643
    41   6 C        2.923    -0.036    28.885     8.814
    42   6 C        2.916    -0.031    28.763     8.795
    43   6 C        2.918    -0.032    28.793     8.799
    44   6 C        2.920    -0.035    28.861     8.810
    45   6 C        2.980     0.005    27.911     8.666
    46   6 C        2.979     0.006    27.888     8.663
    47   6 C        2.921    -0.035    28.870     8.811
    48   6 C        2.917    -0.031    28.772     8.796
    49   6 C        2.916    -0.031    28.767     8.795
    50   6 C        2.921    -0.033    28.817     8.803
    51   6 C        2.988     0.009    27.814     8.651
    52   6 C        2.989     0.008    27.835     8.654
    53   6 C        2.919    -0.037    28.927     8.820
    54   6 C        2.915    -0.031    28.781     8.797
    55   6 C        2.923    -0.039    28.979     8.828
    56   6 C        2.991     0.011    27.750     8.641
    57   6 C        2.995     0.002    27.977     8.677
    58   1 H        0.926     0.031     2.578     2.511
    59   1 H        0.926     0.031     2.572     2.508
    60   1 H        0.926     0.028     2.618     2.530
    61   1 H        0.926     0.031     2.572     2.508
    62   1 H        0.926     0.030     2.582     2.513
    63   1 H        0.926     0.030     2.585     2.514
    64   1 H        0.926     0.031     2.577     2.510
    65   1 H        0.926     0.027     2.629     2.536
    66   1 H        0.926     0.034     2.529     2.487
    67   1 H        0.926     0.030     2.584     2.514
    68   1 H        0.926     0.032     2.558     2.501
    69   1 H        0.926     0.032     2.564     2.504
    70   1 H        0.926     0.030     2.584     2.514
    71   1 H        0.926     0.030     2.591     2.517
    72   1 H        0.926     0.029     2.605     2.524
    73   1 H        0.926     0.029     2.604     2.523
    74   1 H        0.926     0.030     2.590     2.517
    75   1 H        0.926     0.032     2.563     2.504
    76   1 H        0.926     0.030     2.592     2.517
    77   1 H        0.926     0.038     2.472     2.459
    78   1 H        0.926     0.032     2.554     2.499
    79   1 H        0.926     0.028     2.612     2.528
    80   1 H        0.925     0.029     2.604     2.524
    81   1 H        0.926     0.030     2.588     2.516
    82   1 H        0.926     0.029     2.604     2.523
    83   1 H        0.926     0.028     2.609     2.526
    84   1 H        0.926     0.031     2.566     2.505
    85   1 H        0.926     0.032     2.555     2.499
    86   1 H        0.926     0.029     2.603     2.523
    87   1 H        0.926     0.029     2.606     2.525
    88   1 H        0.926     0.032     2.563     2.504
    89   1 H        0.926     0.032     2.562     2.503
    90   1 H        0.926     0.029     2.600     2.522
    91   1 H        0.926     0.029     2.602     2.523

molecular dipole:
                 x           y           z       tot (Debye)
 q only:        0.039      -0.051      -0.024
   full:        0.027      -0.067      -0.006       0.184

 projected vibrational frequencies (cm⁻¹)
eigval :       -0.00    -0.00    -0.00     0.00     0.00     0.00
eigval :        8.55    10.83    18.85    19.54    23.20    31.52
eigval :       33.84    45.37    56.21    57.41    71.60    73.86
eigval :       82.74    90.26   103.42   110.81   115.24   130.94
eigval :      139.48   145.33   158.32   164.97   171.04   180.76
eigval :      194.98   217.09   219.32   231.68   252.94   257.22
eigval :      265.89   274.50   286.27   299.31   302.27   314.99
eigval :      350.93   354.81   367.72   374.96   387.93   390.33
eigval :      396.82   403.36   411.75   413.55   417.79   433.65
eigval :      440.79   447.63   449.23   458.83   461.39   471.76
eigval :      480.25   489.82   497.06   500.81   503.66   507.66
eigval :      510.50   523.84   527.25   535.43   537.51   549.32
eigval :      556.48   565.21   577.77   586.69   587.62   591.24
eigval :      599.75   615.52   621.20   625.55   632.17   645.96
eigval :      656.28   666.10   671.25   683.39   687.57   709.99
eigval :      719.47   722.85   724.09   734.09   739.49   740.17
eigval :      751.62   753.44   756.83   760.89   769.22   782.91
eigval :      783.38   785.42   795.82   798.68   801.54   817.10
eigval :      823.53   828.48   834.99   838.04   855.63   864.66
eigval :      865.57   868.89   870.18   876.81   878.13   879.17
eigval :      879.47   885.15   887.32   889.61   894.70   899.05
eigval :      908.81   909.33   909.79   909.92   911.77   913.91
eigval :      915.37   916.68   924.54   925.84   926.50   926.75
eigval :      927.63   927.87   928.61   958.72   964.12   994.64
eigval :     1003.96  1021.47  1063.00  1073.84  1078.66  1078.81
eigval :     1087.42  1090.49  1104.35  1108.30  1120.61  1129.79
eigval :     1140.99  1144.04  1145.04  1163.27  1172.35  1174.21
eigval :     1176.02  1177.69  1179.75  1182.32  1185.24  1188.84
eigval :     1189.56  1195.85  1199.45  1203.87  1205.09  1210.26
eigval :     1216.31  1223.81  1227.42  1230.82  1239.03  1251.71
eigval :     1252.81  1258.35  1259.76  1261.98  1262.41  1275.72
eigval :     1276.98  1282.07  1285.30  1304.92  1320.93  1327.84
eigval :     1328.39  1331.63  1347.95  1356.25  1362.93  1365.41
eigval :     1366.19  1374.20  1377.87  1392.22  1398.74  1401.56
eigval :     1402.27  1409.78  1413.71  1427.29  1427.96  1429.21
eigval :     1430.92  1443.70  1449.53  1460.06  1462.28  1469.38
eigval :     1477.21  1482.58  1494.07  1505.39  1509.63  1529.43
eigval :     1547.87  1558.93  1560.99  1562.67  1579.49  1584.98
eigval :     1591.76  1595.71  1596.64  1599.19  1601.83  1604.11
eigval :     1604.75  1605.67  1606.78  1609.98  1613.16  3065.75
eigval :     3066.30  3066.89  3069.19  3069.68  3070.41  3072.61
eigval :     3073.28  3074.07  3074.14  3074.78  3075.66  3076.04
eigval :     3077.17  3078.17  3078.91  3078.92  3079.22  3082.35
eigval :     3083.92  3084.23  3085.79  3087.49  3089.03  3092.13
eigval :     3092.23  3093.34  3093.78  3096.10  3096.55  3098.50
eigval :     3106.73  3108.24  3174.17

   temp. (K)  partition function   enthalpy   heat capacity  entropy
                                   cal/mol     cal/K/mol   cal/K/mol   J/K/mol
 298.15  VIB  0.661E+19            24796.160    162.753    152.087
         ROT  0.138E+09              888.752      2.981     40.235
         INT  0.916E+27            25684.912    165.734    192.322
         TR   0.186E+29             1481.254      4.968     45.577
         TOT                       27166.1661   170.7021   237.8988   995.3685

       T/K    H(0)-H(T)+PV         H(T)/Eh          T*S/Eh         G(T)/Eh
   ------------------------------------------------------------------------
    298.15    0.432920E-01    0.744021E+00    0.113033E+00    0.630988E+00
   ------------------------------------------------------------------------

         :::::::::::::::::::::::::::::::::::::::::::::::::::::
         ::                  THERMODYNAMIC                  ::
         :::::::::::::::::::::::::::::::::::::::::::::::::::::
         :: total free energy        -138.826405380245 Eh   ::
         ::.................................................::
         :: total energy             -139.457393189087 Eh   ::
         :: zero point energy           0.700729155273 Eh   ::
         :: G(RRHO) w/o ZPVE           -0.069741346430 Eh   ::
         :: G(RRHO) contrib.            0.630987808843 Eh   ::
         :::::::::::::::::::::::::::::::::::::::::::::::::::::

           -------------------------------------------------
          | TOTAL ENERGY             -139.457393189087 Eh   |
          | TOTAL ENTHALPY           -138.713371992539 Eh   |
          | TOTAL FREE ENERGY        -138.826405380245 Eh   |
          | GRADIENT NORM               0.000035731437 Eh/α |
          | HOMO-LUMO GAP               2.284198140721 eV   |
           -------------------------------------------------

 * finished run on 2025/09/14 at 06:53:36.740
