   * xtb version 6.7.1 (edcfbbe) compiled by 'albert@albert-system' on 2024-07-22

   ID    Z sym.   atoms
    1    6 C      1-4, 6-19, 21-29, 31-44, 46-52
    2    7 N      5, 20, 30, 45
    3   16 S      53
    4    8 O      54, 55
    5    1 H      56-95

          program call               : xtb data2507/gas/DHID-DBS/DHID-DBS_gas_S0_finalOpt.xtbopt.xyz --gfn 2 --spinpol --tblite --uhf 2 --ohess vtight --parallel 40 --molden --ceasefiles --namespace data2507/gas/DHID-DBS/DHID-DBS_gas_T1_preOpt
 * total energy  :  -146.2958969 Eh     change        0.2105190E-07 Eh
 * total energy  :  -146.2990194 Eh     change       -0.3122499E-02 Eh
 * total energy  :  -146.2999507 Eh     change       -0.9312915E-03 Eh
 * total energy  :  -146.3000262 Eh     change       -0.7548649E-04 Eh
 * total energy  :  -146.3000938 Eh     change       -0.6766154E-04 Eh
 * total energy  :  -146.3001250 Eh     change       -0.3117847E-04 Eh
 * total energy  :  -146.3001558 Eh     change       -0.3073881E-04 Eh
 * total energy  :  -146.3001694 Eh     change       -0.1361347E-04 Eh
 * total energy  :  -146.3001785 Eh     change       -0.9080215E-05 Eh
 * total energy  :  -146.3001833 Eh     change       -0.4889852E-05 Eh
 * total energy  :  -146.3002048 Eh     change       -0.3585376E-06 Eh
 * total energy  :  -146.3002051 Eh     change       -0.3620511E-06 Eh
 * total energy  :  -146.3002055 Eh     change       -0.4068398E-06 Eh
 * total energy  :  -146.3002061 Eh     change       -0.5742862E-06 Eh
 * total energy  :  -146.3002066 Eh     change       -0.5091444E-06 Eh
 * total energy  :  -146.3002071 Eh     change       -0.4868683E-06 Eh
 * total energy  :  -146.3002070 Eh     change        0.8591911E-07 Eh
 * total energy  :  -146.3002073 Eh     change       -0.2606517E-06 Eh
 * total energy  :  -146.3002073 Eh     change       -0.1554747E-07 Eh
   *** GEOMETRY OPTIMIZATION CONVERGED AFTER 44 ITERATIONS ***

 final structure:
================
95
 xtb: 6.7.1 (edcfbbe)
C            9.11699601329408        2.44432151787008       -1.78991452311508
C            8.44621584135179        2.10533466579041       -0.46486455823766
C            7.38750882622829        3.14099078767948       -0.09428028646805
C            6.67952475617503        2.80705576535455        1.22467597107624
N            5.90821900294782        1.59992015191788        1.12380012374000
C            6.26511901642343        0.33656696879248        1.58250919397528
C            7.38032584423870       -0.04300981740792        2.30010044940073
C            7.49305523252220       -1.38027644336077        2.68307135078969
C            6.50944372341264       -2.30332097607593        2.36636373405619
C            5.38448117255197       -1.94031711732236        1.64184902489550
C            5.25823593780358       -0.61363173986448        1.22785075722595
C            4.29344760765393        0.12656840198549        0.50306859947691
C            4.72266349863768        1.48351157507024        0.47277827332619
C            3.73206826060808        2.24273171450538       -0.18325575572584
C            3.57657781035689        3.58955073562099       -0.52468287112909
C            2.44227787081742        3.97012534314216       -1.21880140968189
C            1.48347929057429        3.04108063489808       -1.59786816720155
C            1.61736368264716        1.68923323255952       -1.27427796336456
C            2.71922496356499        1.29930338544155       -0.54613681858906
N            3.08193684470505        0.01983778154473       -0.10542036337918
C            2.35990739904280       -1.15597380791079       -0.31081399439998
C            3.05215061505237       -2.32243515248040       -0.71185545128599
C            2.34918820613771       -3.50121557307367       -0.90710333013771
C            0.98889538773758       -3.51256850214641       -0.72821862588981
C            0.27347319112296       -2.34910407308355       -0.34590421826478
C            0.98827127791555       -1.17211232307517       -0.12300782521570
C           -1.14185766152119       -2.53366525336180       -0.26571327468313
C           -2.10956194656183       -1.56671762033288        0.02039820501141
C           -3.45085388455647       -1.89909719283654       -0.03678382204334
N           -4.39458461205954       -0.88340598086408        0.17095348899528
C           -5.52373395854178       -0.92747621874326        0.97139675156942
C           -5.98993999228419       -1.95970644772591        1.76920745646418
C           -7.14641459643005       -1.74985989305796        2.49945928051757
C           -7.82517088858785       -0.53427003029784        2.45150456321243
C           -7.35818484402925        0.51453074807965        1.68513511831785
C           -6.19701336195726        0.33231049669125        0.93877875658948
C           -5.40895061950280        1.14302326914454        0.08115905108969
C           -4.32327542025068        0.37447869211514       -0.36201768989909
C           -3.56827979515072        1.17088431752521       -1.26413097157069
C           -2.43871887783242        0.97397437579398       -2.05478158270798
C           -1.98840150726968        2.01721071606049       -2.83842414535756
C           -2.63966795326332        3.24830801131251       -2.84358486673609
C           -3.77205289543896        3.46749842011179       -2.08027498702354
C           -4.24684798774726        2.42814324334604       -1.29444450709783
N           -5.36448476103913        2.38407922615651       -0.48521340266995
C           -6.28121850584880        3.45400299786700       -0.20359389886922
C           -6.00255314433614        4.10084957009431        1.15850852295256
C           -4.65494417295800        4.81723739108985        1.19749065638418
C           -4.38625279527289        5.42638468687932        2.56768324343124
C           -3.86437408422886       -3.20703857262267       -0.34468684412643
C           -2.90627294995703       -4.17924613702253       -0.60419980499614
C           -1.57754041796981       -3.84296463096554       -0.57015027568562
S           -0.15584593917261       -4.86698477686214       -0.92304845740844
O            0.03789284484332       -5.86729705421560        0.09910445290973
O           -0.18223895955500       -5.34353079479122       -2.28493314460633
H            8.38349354888073        2.47197636177980       -2.59261737708613
H            9.60232047962507        3.41649698595920       -1.73581535716743
H            9.86834068929094        1.69893548761367       -2.03779172294623
H            9.20202438253296        2.06095458158838        0.32269991183128
H            7.98252008329917        1.11922198287051       -0.53644995960571
H            7.85398862193122        4.12346838045421        0.00128192573741
H            6.64154616291403        3.19681503760651       -0.89013621368800
H            7.41298841218650        2.68738728556010        2.02438852336626
H            6.00295302494638        3.62459978896367        1.49470312679489
H            8.15110738502072        0.66249231118378        2.56904296967195
H            8.36050653466515       -1.69311692118800        3.24361378290694
H            6.61987499316646       -3.32703271618620        2.69048375120493
H            4.62121325418532       -2.66432400031277        1.40498834491550
H            4.32782501144678        4.31618816047304       -0.25526090950525
H            2.30598075124810        5.00857923418504       -1.48211322760192
H            0.61560046967352        3.36247136120113       -2.15201322877732
H            0.87462724069641        0.97940991406221       -1.60103716622764
H            4.11308963740515       -2.27073164458156       -0.89300130694329
H            2.85845845161398       -4.40332343600867       -1.20911398421978
H            0.48283390012161       -0.28570095131422        0.22793271887467
H           -1.82243284342837       -0.56089435994054        0.28650992406746
H           -5.45980624330313       -2.89713303881007        1.83039428842436
H           -7.52805277427010       -2.54366253353790        3.12336382983775
H           -8.72602794801580       -0.40941884902374        3.03337169464812
H           -7.88093763479612        1.45934024137904        1.66977269042961
H           -1.93706875985814        0.01836151775216       -2.06363804165758
H           -1.11960535832905        1.87607921536147       -3.46389808869338
H           -2.25885616828129        4.04685662386220       -3.46284582418210
H           -4.26834681111592        4.42558991838987       -2.10642816576189
H           -6.20162329720649        4.20054603239297       -0.99655139221423
H           -7.29727456380444        3.04610122043292       -0.21517807381013
H           -6.02223257781696        3.32554598476274        1.92760987904111
H           -6.80165141281851        4.81240889083601        1.37566006995758
H           -3.85919905363399        4.11004262746234        0.95387736134768
H           -4.64172322644513        5.60628512256531        0.44190815248821
H           -3.42475584683597        5.93362820804815        2.57725900720901
H           -4.37379912832334        4.65338762579287        3.33285686019708
H           -5.15842506603519        6.14876081483528        2.82352409808792
H           -4.91523219571412       -3.43493776546251       -0.41744921388720
H           -3.19845585247205       -5.18828304399134       -0.85017544510588

 projected vibrational frequencies (cm⁻¹)
eigval :       -0.00    -0.00     0.00     0.00     0.00     0.00
eigval :       10.02    12.02    14.60    21.53    26.88    29.00
eigval :       31.96    32.81    39.40    49.93    59.63    66.59
eigval :       73.42    74.09    78.13    85.68    92.98    99.39
eigval :      107.65   109.95   123.84   127.22   133.21   153.15
eigval :      155.27   158.01   167.48   177.68   186.04   196.52
eigval :      201.56   212.66   214.97   229.06   232.44   241.30
eigval :      250.10   253.05   266.01   296.68   299.61   303.19
eigval :      309.19   321.12   329.58   333.33   345.23   354.88
eigval :      362.23   369.24   375.26   382.65   393.35   399.85
eigval :      402.59   412.86   415.76   421.90   427.01   435.62
eigval :      443.53   444.86   477.16   487.20   507.32   511.74
eigval :      517.92   522.70   526.65   530.89   532.90   542.61
eigval :      552.20   555.72   558.33   570.99   575.58   578.67
eigval :      595.12   601.17   615.29   628.15   636.65   650.96
eigval :      656.38   664.37   669.22   669.98   673.73   679.38
eigval :      683.57   688.84   690.37   705.51   733.82   751.98
eigval :      753.74   765.68   768.78   769.55   776.81   785.61
eigval :      788.65   789.98   801.43   809.90   838.63   841.14
eigval :      842.91   850.70   854.85   859.75   867.79   868.65
eigval :      870.76   875.79   877.86   880.03   890.94   894.28
eigval :      898.69   902.81   903.46   905.16   906.91   907.96
eigval :      911.23   915.72   918.40   923.45   946.81   963.20
eigval :      972.61   978.33   993.45  1013.38  1017.49  1025.50
eigval :     1052.76  1057.85  1065.22  1069.94  1072.31  1073.37
eigval :     1075.70  1078.59  1093.92  1095.60  1096.47  1114.08
eigval :     1122.40  1125.96  1128.33  1134.21  1135.34  1142.11
eigval :     1146.73  1154.50  1159.24  1164.93  1174.13  1176.72
eigval :     1183.13  1187.43  1191.82  1192.77  1209.08  1212.98
eigval :     1216.19  1220.64  1224.43  1234.65  1237.02  1238.35
eigval :     1239.86  1247.05  1253.99  1258.25  1263.55  1272.18
eigval :     1283.41  1284.44  1285.98  1304.48  1305.86  1311.35
eigval :     1318.50  1323.06  1323.75  1333.53  1339.67  1347.71
eigval :     1348.83  1358.02  1363.15  1367.51  1368.23  1370.90
eigval :     1374.70  1381.15  1389.91  1392.14  1395.37  1400.97
eigval :     1405.51  1417.35  1417.43  1419.93  1434.09  1441.45
eigval :     1442.17  1449.45  1454.49  1455.91  1457.96  1466.95
eigval :     1473.60  1480.59  1481.04  1495.27  1495.50  1496.25
eigval :     1498.28  1501.84  1502.48  1502.79  1504.79  1505.14
eigval :     1519.43  1528.79  1548.98  1553.13  1556.03  1572.57
eigval :     1576.40  1583.43  1587.61  1589.14  1604.73  2943.47
eigval :     2944.60  2966.42  2967.51  2977.87  2979.45  2982.57
eigval :     2983.55  2987.99  2989.50  2992.33  2993.93  3032.30
eigval :     3032.35  3036.11  3036.63  3043.05  3044.81  3078.11
eigval :     3078.78  3079.57  3083.76  3084.08  3086.80  3088.20
eigval :     3088.58  3090.06  3092.13  3093.67  3094.40  3094.91
eigval :     3096.10  3098.16  3098.83  3099.56  3103.31  3105.26
eigval :     3108.36  3109.32  3111.14

   temp. (K)  partition function   enthalpy   heat capacity  entropy
                                   cal/mol     cal/K/mol   cal/K/mol   J/K/mol
 298.15  VIB  0.854E+22            27934.438    172.543    174.733
         ROT  0.134E+09              888.752      2.981     40.167
         INT  0.114E+31            28823.191    175.524    214.900
         TR   0.194E+29             1481.254      4.968     45.651
         TOT                       30304.4446   180.4918   260.5509  1090.1451

       T/K    H(0)-H(T)+PV         H(T)/Eh          T*S/Eh         G(T)/Eh
   ------------------------------------------------------------------------
    298.15    0.482932E-01    0.791730E+00    0.123796E+00    0.667934E+00
   ------------------------------------------------------------------------

         :::::::::::::::::::::::::::::::::::::::::::::::::::::
         ::                  THERMODYNAMIC                  ::
         :::::::::::::::::::::::::::::::::::::::::::::::::::::
         :: total free energy        -145.632273314668 Eh   ::
         ::.................................................::
         :: total energy             -146.300207284517 Eh   ::
         :: zero point energy           0.743436918587 Eh   ::
         :: G(RRHO) w/o ZPVE           -0.075502948738 Eh   ::
         :: G(RRHO) contrib.            0.667933969849 Eh   ::
         :::::::::::::::::::::::::::::::::::::::::::::::::::::

           -------------------------------------------------
          | TOTAL ENERGY             -146.300207284517 Eh   |
          | TOTAL ENTHALPY           -145.508477159390 Eh   |
          | TOTAL FREE ENERGY        -145.632273314668 Eh   |
          | GRADIENT NORM               0.000057612066 Eh/α |
           -------------------------------------------------

 * finished run on 2025/07/19 at 08:52:58.604
