   * xtb version 6.7.1 (edcfbbe) compiled by 'albert@albert-system' on 2024-07-22

   ID    Z sym.   atoms
    1    6 C      1-4, 6-19, 21-29, 31-44, 46-52
    2    7 N      5, 20, 30, 45
    3   16 S      53
    4    8 O      54, 55
    5    1 H      56-95

          program call               : xtb data2507/gas/DHID-DBS/DHID-DBS_gas_S0_crest.xyz --gfn 2 --ohess vtight --parallel 40 --molden --ceasefiles --namespace data2507/gas/DHID-DBS/DHID-DBS_gas_S0_finalOpt
          :  Hamiltonian                  GFN2-xTB          :
 * total energy  :  -146.3826575 Eh     change       -0.3157481E-08 Eh
 * total energy  :  -146.3826592 Eh     change       -0.1688772E-05 Eh
 * total energy  :  -146.3826620 Eh     change       -0.2745242E-05 Eh
 * total energy  :  -146.3826639 Eh     change       -0.1923339E-05 Eh
 * total energy  :  -146.3826655 Eh     change       -0.1601442E-05 Eh
 * total energy  :  -146.3826679 Eh     change       -0.2372487E-05 Eh
 * total energy  :  -146.3826704 Eh     change       -0.2571389E-05 Eh
 * total energy  :  -146.3826724 Eh     change       -0.1918566E-05 Eh
 * total energy  :  -146.3826740 Eh     change       -0.1635608E-05 Eh
 * total energy  :  -146.3826758 Eh     change       -0.1800108E-05 Eh
 * total energy  :  -146.3826951 Eh     change       -0.1587844E-06 Eh
 * total energy  :  -146.3826952 Eh     change       -0.1386343E-06 Eh
 * total energy  :  -146.3826954 Eh     change       -0.1189177E-06 Eh
 * total energy  :  -146.3826955 Eh     change       -0.1016276E-06 Eh
 * total energy  :  -146.3826956 Eh     change       -0.1010790E-06 Eh
 * total energy  :  -146.3826957 Eh     change       -0.1451120E-06 Eh
 * total energy  :  -146.3826959 Eh     change       -0.2403450E-06 Eh
 * total energy  :  -146.3826962 Eh     change       -0.2561218E-06 Eh
 * total energy  :  -146.3826962 Eh     change       -0.8282854E-08 Eh
   *** GEOMETRY OPTIMIZATION CONVERGED AFTER 44 ITERATIONS ***

 final structure:
================
95
 xtb: 6.7.1 (edcfbbe)
C            9.08007911875354        2.45421501684647       -1.82884537595054
C            8.42925508843268        2.12297084881782       -0.49197475224207
C            7.36412594602359        3.15035942620462       -0.11702403547465
C            6.66920675290435        2.81197265615722        1.20707387939677
N            5.90637269274077        1.59749776907818        1.11706552306381
C            6.26372905166747        0.34745639200054        1.56097950704705
C            7.39182639303319       -0.04442497808853        2.27202849644939
C            7.50338031713325       -1.36550353178833        2.64880056873638
C            6.50947520988180       -2.29556096713372        2.33902256254452
C            5.38775505100898       -1.93114935652712        1.62947715449828
C            5.25480658786677       -0.60577631372533        1.21445203502558
C            4.28754061262717        0.14134759092620        0.49567917476652
C            4.70544868962577        1.46783493078387        0.46976704317841
C            3.70368003261363        2.23925879240506       -0.17632599199278
C            3.55677756689010        3.58353509848529       -0.50783603831843
C            2.41893968511697        3.98222117074292       -1.17579576142694
C            1.44175610878229        3.05876191588017       -1.54203312827651
C            1.56566417777513        1.71793293872283       -1.23429264467506
C            2.68374373148716        1.30427575225943       -0.52391690333185
N            3.04542261598663        0.03165278097757       -0.10701943852421
C            2.33984292798933       -1.14825738687357       -0.30968611064835
C            3.02569535590375       -2.30392563129531       -0.69488535360351
C            2.34501204447624       -3.49558724229856       -0.88326486727491
C            0.97947723595518       -3.51222180752065       -0.71418977438055
C            0.27301617547083       -2.36841225741067       -0.35031203589118
C            0.95657638155650       -1.18357524790387       -0.12686755121836
C           -1.17314789871573       -2.56320886703830       -0.27081001164859
C           -2.12023875651724       -1.59074088219908        0.00108545926589
C           -3.47622242405152       -1.92062445723950       -0.03881457864161
N           -4.40703667654554       -0.90661149113731        0.15745801803509
C           -5.55097741878775       -0.93629273954756        0.93655556085214
C           -6.05059909351468       -1.96283087870212        1.72468653744522
C           -7.21054361026780       -1.73407865042959        2.43846359184088
C           -7.86435037600517       -0.50393185060785        2.38859389743318
C           -7.36192474394567        0.53843036952722        1.63963659992808
C           -6.19422910102839        0.33702134236173        0.90846499145065
C           -5.37658191755269        1.14384428375758        0.07284896445313
C           -4.30315302876645        0.37309307364651       -0.36076823128724
C           -3.53238614952814        1.15942080736859       -1.25365039989602
C           -2.40538568115513        0.95242079155656       -2.04978398848183
C           -1.93673610574371        1.99147318032719       -2.82138536275904
C           -2.56699771056854        3.23721113967967       -2.81495451910562
C           -3.69359859895170        3.46789253879379       -2.05503982064876
C           -4.19230928852745        2.42872828659294       -1.27815858239454
N           -5.31265096652440        2.39503436180870       -0.48396023281397
C           -6.22201685870222        3.47154374459626       -0.20204252355430
C           -5.95504419688543        4.10306859995075        1.16921937926442
C           -4.60140166314323        4.80625858851649        1.23048493645155
C           -4.33962579349136        5.39670708213749        2.61012460680672
C           -3.87290145500984       -3.23099585324447       -0.31258467036551
C           -2.92184664727626       -4.20978348598133       -0.55877883864586
C           -1.59053325185732       -3.86361407357115       -0.54673400480224
S           -0.15927701523709       -4.88651957313386       -0.90488053795012
O            0.04692716575603       -5.86995949468251        0.12381256494215
O           -0.18993845232495       -5.35206911506736       -2.26508410145018
H            8.33635143590834        2.46479907527081       -2.62260944823810
H            9.55469157898464        3.43256730295823       -1.79160550622118
H            9.83711916048258        1.71481687762686       -2.07812438407197
H            9.19521590833938        2.09416353107792        0.28656943719007
H            7.97393620993476        1.13192652364489       -0.54663879750409
H            7.82217512509669        4.13773521279140       -0.02906145238393
H            6.61217008143311        3.19571504083261       -0.90795326784567
H            7.41063444633865        2.70039626834412        2.00108378821442
H            5.98963984108798        3.62492232741133        1.48425347957771
H            8.16502536482187        0.66355734281570        2.52958013291993
H            8.37322261904515       -1.68765885494744        3.20160751086957
H            6.62530812879083       -3.31796624602429        2.66608237064510
H            4.61693962514438       -2.65490099662378        1.41126910500241
H            4.32245948236016        4.29967668879763       -0.24922808130883
H            2.28563867779285        5.02252686468586       -1.43267786161610
H            0.56766127873882        3.39584400171938       -2.07816836752466
H            0.81102471728568        1.01788472177167       -1.55694968189259
H            4.09077324211634       -2.25210623988288       -0.85728547442639
H            2.86516575760107       -4.39447935971374       -1.17393411981582
H            0.43806131997564       -0.29920252995528        0.20632276066330
H           -1.83249904626628       -0.57951877668584        0.24105893286557
H           -5.54158119198825       -2.91177485106277        1.79474372704080
H           -7.61707540838973       -2.52348097297443        3.05261251392867
H           -8.77127481933800       -0.36516738165480        2.95787488560119
H           -7.86126765050852        1.49578190946116        1.62524251323335
H           -1.92227638040349       -0.01332713667952       -2.07631083859835
H           -1.07133497025669        1.84183272021368       -3.45004446842798
H           -2.16905494017901        4.03303020863641       -3.42726706366824
H           -4.17475529231158        4.43405272932884       -2.07281116769022
H           -6.12509758889672        4.22512637474295       -0.98659198022556
H           -7.24243447459853        3.07506288116411       -0.23177644714836
H           -5.99036542806462        3.32054255489352        1.93047233857803
H           -6.75019656941053        4.81983725241010        1.38445687606074
H           -3.81070493695610        4.09401047851762        0.98537686052467
H           -4.57333246584063        5.60381235880585        0.48427018413679
H           -3.37329726940061        5.89431226721958        2.63496556388817
H           -4.34233172379942        4.61474184532892        3.36632930154856
H           -5.10720368443242        6.12366406882318        2.86715223643766
H           -4.92332223582941       -3.46948946881688       -0.36628252607304
H           -3.21358620542898       -5.22377998664250       -0.78171402734685

          :  Hamiltonian                  GFN2-xTB          :
         :: gradient norm              0.000060717060 Eh/a0 ::
         :: HOMO-LUMO gap              1.862236560765 eV    ::
         :: SCC energy              -148.840677476879 Eh    ::
         :: -> dispersion             -0.135921996512 Eh    ::
         :: repulsion energy           2.457981262718 Eh    ::

    * Orbital Energies and Occupations

         #    Occupation            Energy/Eh            Energy/eV
      -------------------------------------------------------------
         1        2.0000           -0.7655991             -20.8330
       ...           ...                  ...                  ...
       123        2.0000           -0.4199093             -11.4263
       124        2.0000           -0.4180621             -11.3760
       125        2.0000           -0.4174876             -11.3604
       126        2.0000           -0.4133740             -11.2485
       127        2.0000           -0.4115020             -11.1975
       128        2.0000           -0.4091457             -11.1334
       129        2.0000           -0.4018291             -10.9343
       130        2.0000           -0.3907423             -10.6326
       131        2.0000           -0.3888024             -10.5799
       132        2.0000           -0.3717381             -10.1155
       133        2.0000           -0.3698619             -10.0645
       134        2.0000           -0.3526846              -9.5970
       135        2.0000           -0.3508275              -9.5465 (HOMO)
       136                         -0.2823916              -7.6843 (LUMO)
       137                         -0.2603669              -7.0849
       138                         -0.2557431              -6.9591
       139                         -0.2454860              -6.6800
       140                         -0.2427818              -6.6064
       141                         -0.2208907              -6.0107
       142                         -0.2144606              -5.8358
       143                         -0.2124209              -5.7803
       144                         -0.2103575              -5.7241
       145                         -0.2079033              -5.6573
       146                         -0.1948019              -5.3008
       ...                                ...                  ...
       265                          1.2271739              33.3931
      -------------------------------------------------------------
                  HL-Gap            0.0684359 Eh            1.8622 eV

     #   Z          covCN         q      C6AA      α(0)
     1   6 C        3.752    -0.104    22.545     6.771
     2   6 C        3.801    -0.052    21.515     6.604
     3   6 C        3.803    -0.064    21.730     6.637
     4   6 C        3.740     0.001    20.647     6.483
     5   7 N        2.794    -0.041    22.029     6.971
     6   6 C        3.123     0.038    26.973     8.505
     7   6 C        2.909    -0.050    29.250     8.868
     8   6 C        2.922    -0.037    28.912     8.818
     9   6 C        2.919    -0.041    29.029     8.835
    10   6 C        2.910    -0.040    28.996     8.830
    11   6 C        3.067    -0.025    28.567     8.764
    12   6 C        3.181     0.000    27.591     8.575
    13   6 C        3.201     0.007    27.289     8.512
    14   6 C        3.061    -0.020    28.449     8.747
    15   6 C        2.911    -0.039    28.966     8.825
    16   6 C        2.919    -0.040    29.005     8.832
    17   6 C        2.922    -0.037    28.918     8.819
    18   6 C        2.909    -0.050    29.246     8.868
    19   6 C        3.100     0.039    27.006     8.516
    20   7 N        2.799    -0.034    21.894     6.949
    21   6 C        2.911     0.073    26.373     8.421
    22   6 C        2.927    -0.042    29.042     8.838
    23   6 C        2.924    -0.017    28.442     8.746
    24   6 C        2.989    -0.085    30.119     9.003
    25   6 C        3.112     0.003    27.796     8.637
    26   6 C        2.922    -0.046    29.147     8.853
    27   6 C        3.113     0.004    27.785     8.635
    28   6 C        2.925    -0.044    29.097     8.846
    29   6 C        2.912     0.073    26.378     8.422
    30   7 N        2.800    -0.034    21.899     6.950
    31   6 C        3.102     0.040    26.985     8.512
    32   6 C        2.909    -0.050    29.231     8.865
    33   6 C        2.923    -0.036    28.888     8.814
    34   6 C        2.919    -0.040    29.001     8.831
    35   6 C        2.911    -0.038    28.954     8.823
    36   6 C        3.062    -0.020    28.452     8.747
    37   6 C        3.199     0.008    27.303     8.516
    38   6 C        3.186     0.000    27.561     8.566
    39   6 C        3.066    -0.026    28.575     8.766
    40   6 C        2.910    -0.040    28.991     8.829
    41   6 C        2.919    -0.041    29.024     8.834
    42   6 C        2.922    -0.037    28.913     8.818
    43   6 C        2.909    -0.050    29.243     8.867
    44   6 C        3.122     0.038    26.970     8.505
    45   7 N        2.794    -0.041    22.024     6.970
    46   6 C        3.740     0.001    20.649     6.484
    47   6 C        3.803    -0.064    21.732     6.637
    48   6 C        3.801    -0.052    21.513     6.604
    49   6 C        3.752    -0.104    22.546     6.771
    50   6 C        2.924    -0.043    29.071     8.842
    51   6 C        2.925    -0.017    28.440     8.746
    52   6 C        2.988    -0.085    30.115     9.002
    53  16 S        3.932     0.963   107.715    17.468
    54   8 O        0.860    -0.535    24.570     6.646
    55   8 O        0.860    -0.535    24.570     6.646
    56   1 H        0.925     0.036     2.507     2.476
    57   1 H        0.925     0.035     2.519     2.482
    58   1 H        0.925     0.037     2.486     2.466
    59   1 H        0.924     0.031     2.575     2.509
    60   1 H        0.924     0.036     2.504     2.474
    61   1 H        0.924     0.038     2.473     2.459
    62   1 H        0.924     0.045     2.385     2.415
    63   1 H        0.924     0.050     2.315     2.379
    64   1 H        0.924     0.047     2.363     2.404
    65   1 H        0.926     0.024     2.672     2.556
    66   1 H        0.926     0.028     2.615     2.529
    67   1 H        0.926     0.028     2.618     2.530
    68   1 H        0.926     0.027     2.633     2.538
    69   1 H        0.926     0.026     2.640     2.541
    70   1 H        0.926     0.028     2.619     2.531
    71   1 H        0.926     0.033     2.540     2.492
    72   1 H        0.926     0.031     2.575     2.509
    73   1 H        0.926     0.064     2.155     2.296
    74   1 H        0.926     0.059     2.214     2.327
    75   1 H        0.926     0.059     2.214     2.327
    76   1 H        0.926     0.061     2.190     2.314
    77   1 H        0.926     0.030     2.584     2.514
    78   1 H        0.926     0.031     2.573     2.509
    79   1 H        0.926     0.029     2.605     2.524
    80   1 H        0.926     0.027     2.634     2.538
    81   1 H        0.926     0.022     2.701     2.570
    82   1 H        0.926     0.027     2.633     2.537
    83   1 H        0.926     0.027     2.633     2.537
    84   1 H        0.926     0.025     2.665     2.553
    85   1 H        0.924     0.050     2.314     2.379
    86   1 H        0.924     0.047     2.354     2.399
    87   1 H        0.924     0.045     2.384     2.415
    88   1 H        0.924     0.039     2.467     2.456
    89   1 H        0.924     0.035     2.510     2.478
    90   1 H        0.924     0.031     2.575     2.509
    91   1 H        0.925     0.037     2.490     2.468
    92   1 H        0.925     0.036     2.508     2.477
    93   1 H        0.925     0.035     2.515     2.480
    94   1 H        0.926     0.060     2.199     2.319
    95   1 H        0.926     0.059     2.212     2.326

molecular dipole:
                 x           y           z       tot (Debye)
 q only:       -0.145       3.590       0.710
   full:       -0.212       3.540       0.705       9.191

 projected vibrational frequencies (cm⁻¹)
eigval :       -0.00    -0.00    -0.00    -0.00    -0.00     0.00
eigval :       11.43    11.91    14.83    22.07    27.73    30.14
eigval :       33.22    33.74    39.84    49.20    60.09    67.86
eigval :       74.17    74.53    79.00    84.29    91.45   101.71
eigval :      107.29   111.62   126.14   129.45   135.23   157.08
eigval :      157.76   159.86   172.25   180.53   189.47   198.41
eigval :      203.45   213.85   217.35   228.76   233.07   240.37
eigval :      249.78   252.56   267.50   297.31   300.63   305.76
eigval :      321.88   322.22   331.82   333.33   346.93   358.03
eigval :      367.22   371.99   387.46   398.62   400.89   405.19
eigval :      407.74   416.50   420.34   429.54   438.93   444.34
eigval :      446.23   450.37   488.84   490.54   511.33   523.62
eigval :      527.24   530.32   533.54   534.90   536.46   545.67
eigval :      557.31   557.63   565.95   577.33   580.18   585.95
eigval :      605.56   617.61   624.21   627.13   650.12   654.13
eigval :      665.64   674.60   683.23   685.90   686.18   688.53
eigval :      688.87   694.63   700.90   712.80   738.91   767.31
eigval :      769.92   771.02   771.46   772.37   788.65   790.70
eigval :      809.59   827.54   830.96   838.92   850.92   861.85
eigval :      862.08   866.94   868.22   870.54   870.76   879.24
eigval :      880.25   881.96   886.65   898.92   900.27   903.29
eigval :      906.32   907.28   907.53   915.13   915.68   923.21
eigval :      923.55   925.81   927.15   930.23   964.59   972.98
eigval :      981.68   998.15  1022.57  1023.49  1029.51  1057.51
eigval :     1060.83  1066.35  1068.32  1076.65  1077.09  1077.30
eigval :     1080.98  1095.83  1096.37  1103.80  1118.35  1127.12
eigval :     1127.42  1137.19  1137.57  1139.97  1144.76  1152.95
eigval :     1156.32  1168.15  1171.00  1179.15  1179.42  1189.27
eigval :     1190.76  1193.23  1201.66  1215.69  1216.75  1223.25
eigval :     1224.45  1237.87  1238.65  1241.01  1243.61  1252.72
eigval :     1255.26  1264.10  1267.46  1269.93  1277.51  1285.58
eigval :     1285.80  1307.12  1307.26  1320.85  1327.76  1327.99
eigval :     1330.77  1335.57  1344.57  1348.91  1353.69  1359.99
eigval :     1360.25  1367.58  1368.60  1370.33  1371.83  1391.69
eigval :     1399.80  1401.85  1410.61  1413.82  1417.64  1417.74
eigval :     1431.78  1434.99  1439.74  1444.99  1454.15  1458.93
eigval :     1460.31  1467.66  1471.55  1482.54  1482.58  1496.25
eigval :     1496.45  1498.01  1498.26  1503.83  1504.00  1504.08
eigval :     1504.21  1506.01  1506.07  1539.50  1540.38  1569.55
eigval :     1570.19  1570.72  1578.61  1583.04  1583.86  1586.34
eigval :     1586.68  1604.49  1604.74  1620.89  1621.13  2940.04
eigval :     2941.18  2966.02  2966.33  2976.46  2976.76  2982.40
eigval :     2982.53  2987.20  2987.76  2991.57  2991.98  3030.91
eigval :     3031.57  3035.44  3035.51  3042.28  3042.70  3073.79
eigval :     3076.64  3077.52  3078.14  3078.17  3081.42  3083.68
eigval :     3085.27  3087.03  3088.61  3091.34  3093.21  3093.66
eigval :     3097.38  3099.17  3101.39  3101.56  3102.43  3105.63
eigval :     3110.62  3110.79  3112.16

   temp. (K)  partition function   enthalpy   heat capacity  entropy
                                   cal/mol     cal/K/mol   cal/K/mol   J/K/mol
 298.15  VIB  0.425E+22            27603.783    170.342    172.672
         ROT  0.133E+09              888.752      2.981     40.157
         INT  0.567E+30            28492.535    173.322    212.829
         TR   0.194E+29             1481.254      4.968     45.651
         TOT                       29973.7892   178.2906   258.4796  1081.4786

       T/K    H(0)-H(T)+PV         H(T)/Eh          T*S/Eh         G(T)/Eh
   ------------------------------------------------------------------------
    298.15    0.477663E-01    0.796963E+00    0.122812E+00    0.674151E+00
   ------------------------------------------------------------------------

         :::::::::::::::::::::::::::::::::::::::::::::::::::::
         ::                  THERMODYNAMIC                  ::
         :::::::::::::::::::::::::::::::::::::::::::::::::::::
         :: total free energy        -145.708545523266 Eh   ::
         ::.................................................::
         :: total energy             -146.382696214157 Eh   ::
         :: zero point energy           0.749196405753 Eh   ::
         :: G(RRHO) w/o ZPVE           -0.075045714863 Eh   ::
         :: G(RRHO) contrib.            0.674150690890 Eh   ::
         :::::::::::::::::::::::::::::::::::::::::::::::::::::

           -------------------------------------------------
          | TOTAL ENERGY             -146.382696214157 Eh   |
          | TOTAL ENTHALPY           -145.585733534904 Eh   |
          | TOTAL FREE ENERGY        -145.708545523266 Eh   |
          | GRADIENT NORM               0.000060659294 Eh/α |
          | HOMO-LUMO GAP               1.862235951493 eV   |
           -------------------------------------------------

 * finished run on 2025/07/19 at 08:52:39.223
