   * xtb version 6.7.1 (edcfbbe) compiled by 'albert@albert-system' on 2024-07-22

   ID    Z sym.   atoms
    1    6 C      1-4, 6-19, 21-29, 31-44, 46-52
    2    7 N      5, 20, 30, 45
    3   16 S      53
    4    8 O      54, 55
    5    1 H      56-95

          program call               : xtb data2507/gas/DHID-DBS/DHID-DBS.xyz --gfn 2 --ohess vtight --parallel 40 --molden --ceasefiles --namespace data2507/gas/DHID-DBS/DHID-DBS_gas_S0_preOpt
          :  Hamiltonian                  GFN2-xTB          :
 * total energy  :  -146.3562132 Eh     change       -0.3419871E-08 Eh
 * total energy  :  -146.3726072 Eh     change       -0.1639407E-01 Eh
 * total energy  :  -146.3769124 Eh     change       -0.4305120E-02 Eh
 * total energy  :  -146.3778932 Eh     change       -0.9808272E-03 Eh
 * total energy  :  -146.3785407 Eh     change       -0.6475258E-03 Eh
 * total energy  :  -146.3787890 Eh     change       -0.2482804E-03 Eh
 * total energy  :  -146.3789062 Eh     change       -0.1172373E-03 Eh
 * total energy  :  -146.3789702 Eh     change       -0.6400157E-04 Eh
 * total energy  :  -146.3790213 Eh     change       -0.5112272E-04 Eh
 * total energy  :  -146.3790686 Eh     change       -0.4724913E-04 Eh
 * total energy  :  -146.3793784 Eh     change       -0.4716128E-06 Eh
 * total energy  :  -146.3793787 Eh     change       -0.3088949E-06 Eh
 * total energy  :  -146.3793789 Eh     change       -0.1657400E-06 Eh
 * total energy  :  -146.3793790 Eh     change       -0.1333128E-06 Eh
 * total energy  :  -146.3793792 Eh     change       -0.1905319E-06 Eh
 * total energy  :  -146.3793795 Eh     change       -0.2757913E-06 Eh
 * total energy  :  -146.3793799 Eh     change       -0.4123776E-06 Eh
 * total energy  :  -146.3793804 Eh     change       -0.5720937E-06 Eh
 * total energy  :  -146.3793805 Eh     change       -0.8073329E-08 Eh
   *** GEOMETRY OPTIMIZATION CONVERGED AFTER 68 ITERATIONS ***

 final structure:
================
95
 xtb: 6.7.1 (edcfbbe)
C           10.64670489715586        2.37777409418635        1.48370932835190
C            9.62868351275265        2.73637553774432        0.40710292076003
C            8.65339912399323        1.60121128425431        0.10084728849176
C            7.70915269565750        1.29365279767031        1.26851773156919
N            6.74049637286399        0.29493970619400        0.90981300221159
C            6.84103996007560       -1.06113496966492        1.10353327308930
C            7.84113617029639       -1.78462378534631        1.74184864748677
C            7.69283077431222       -3.15095231889510        1.84945730983721
C            6.56742545946747       -3.80208782348542        1.34086675800210
C            5.57022426359471       -3.10594198994025        0.69590286960428
C            5.69969365774678       -1.72440096894478        0.55311807289892
C            4.92825789029681       -0.68598561646180       -0.02626132349085
C            5.58176209382495        0.51873804776717        0.21373760239515
C            4.78700040762812        1.57051879646180       -0.31326792718565
C            4.91878541718983        2.95306638246663       -0.41259704795623
C            3.92808424538724        3.67099652802736       -1.04713963594457
C            2.82313000883069        3.03081477238884       -1.60564179626053
C            2.66924711866772        1.66046123596424       -1.52848118853779
C            3.63787896462022        0.92559587540277       -0.85989660203617
N            3.72874281822372       -0.44448348155679       -0.67323168281356
C            2.82967681824155       -1.40745727562572       -1.11783807101121
C            3.31007195783862       -2.56646505120409       -1.73297469514444
C            2.42994891246952       -3.53804212300403       -2.18012415048376
C            1.07893974936959       -3.33092074076879       -2.02229115946385
C            0.57652533294612       -2.18245338088951       -1.41438972321648
C            1.45718516121457       -1.21893019107696       -0.94775163098050
C           -0.88375081477055       -2.13240067863077       -1.35174986331282
C           -1.65334153118297       -1.11265993305375       -0.81365664173136
C           -3.04499116445437       -1.20651288127037       -0.86506217749856
N           -3.83491796215560       -0.18648328889449       -0.34634807120329
C           -3.66538721753841        1.17528798766390       -0.53831269655535
C           -2.70902500877934        1.84615393907001       -1.28708207023459
C           -2.76930795003214        3.22477907547444       -1.34341414031053
C           -3.76991576430787        3.93620687904600       -0.68355658754850
C           -4.75072182195568        3.28413915822386        0.03235259560788
C           -4.71365379654502        1.89428856168435        0.10926568380552
C           -5.53200824438050        0.89610144079010        0.70099597617911
C           -4.98601565637204       -0.34872685612630        0.40473650860457
C           -5.76765938383910       -1.33461329595909        1.05723219593210
C           -5.71429938446984       -2.72200879116263        1.19226557641487
C           -6.68622744039373       -3.35392238849816        1.93422047593203
C           -7.71060183544985       -2.63152007956129        2.54897486360441
C           -7.78066871705325       -1.25855386347868        2.44954908197296
C           -6.80626386996301       -0.59868340143148        1.70995022786386
N           -6.63822921232060        0.74814439125402        1.49666994236826
C           -7.49503493470911        1.81851069498668        1.92711637188738
C           -8.40492734855448        2.31343725973071        0.79671522082401
C           -9.41102089516358        1.25323660276998        0.35586504683216
C          -10.27877897095449        1.74890238953381       -0.79383174344699
C           -3.65432135695310       -2.32766703653904       -1.43437619625179
C           -2.88415898887441       -3.35556620505779       -1.95289455566877
C           -1.51364688692509       -3.24181983102656       -1.91153787284812
S           -0.27905706734371       -4.39068581624922       -2.52346947128513
O           -0.28890986077926       -5.61280159818799       -1.76598371740428
O           -0.34415007028267       -4.50195634404774       -3.95576769273168
H           11.17853183397944        1.46742124626844        1.21575156651313
H           11.37462130516056        3.17807901449506        1.59356190715340
H           10.16567121188390        2.22735277218363        2.44682377118829
H           10.16171225787764        2.98908761263326       -0.51191686007577
H            9.06826325801159        3.62161073320129        0.71677668129335
H            8.04613430332691        1.87277095731303       -0.76615499736068
H            9.20978945603708        0.69615416597357       -0.15319289182004
H            8.27206021309184        0.93303810661699        2.13139466712711
H            7.17448017815254        2.20241641092319        1.56156376405815
H            8.71432309712472       -1.29515080944289        2.14660165257318
H            8.45944736223468       -3.73070297820245        2.34170301520004
H            6.48124414257616       -4.87192883236615        1.45822700499166
H            4.69751517240578       -3.61749064489558        0.31837104977074
H            5.78670837027151        3.45270355957843       -0.00904627689167
H            4.01319051628160        4.74430523029799       -1.12879204841272
H            2.07520646469544        3.61810316983746       -2.11697033023902
H            1.82496183364556        1.17827140390619       -1.99707085421381
H            4.37345301744636       -2.68608377282332       -1.86921797029722
H            2.78662996621982       -4.43681734387460       -2.65759762036799
H            1.09958880329564       -0.33911231200243       -0.43707858357664
H           -1.19404097284182       -0.26124808821753       -0.33735135305821
H           -1.94610762986111        1.30983629309361       -1.83044568555100
H           -2.02885620269247        3.76272539500451       -1.91620696196344
H           -3.78197977988140        5.01391694576092       -0.74899894214563
H           -5.53790031525723        3.84044274268883        0.51898351477060
H           -4.91677143126983       -3.28744750470160        0.73397376592860
H           -6.65830089534871       -4.42728692108561        2.04728860183970
H           -8.45952008050581       -3.16047456814239        3.11937529246105
H           -8.57508237255769       -0.71582870660657        2.93917371698369
H           -8.09859790386674        1.46650902549749        2.76647604632036
H           -6.86488249481622        2.64207257506091        2.27943972159069
H           -7.78441126097543        2.59890204118489       -0.05569194177204
H           -8.93693085185414        3.20298811461823        1.14040450919665
H           -8.87664201152473        0.35331315025950        0.04433452437402
H          -10.04881664480367        0.98498792815145        1.20140948153939
H           -9.66360788250859        1.99948871780363       -1.65527329878727
H          -10.83343800863558        2.63742755312289       -0.49940230250988
H          -10.99058487085426        0.98313069709894       -1.09195644061523
H           -4.73114535960936       -2.37411338674591       -1.47879560365933
H           -3.34094642222866       -4.22624412616016       -2.39591073152353

          :  Hamiltonian                  GFN2-xTB          :
         :: gradient norm              0.000059284290 Eh/a0 ::
         :: HOMO-LUMO gap              1.847758568989 eV    ::
         :: SCC energy              -148.837605991123 Eh    ::
         :: -> dispersion             -0.132397455064 Eh    ::
         :: repulsion energy           2.458225533451 Eh    ::

    * Orbital Energies and Occupations

         #    Occupation            Energy/Eh            Energy/eV
      -------------------------------------------------------------
         1        2.0000           -0.7660291             -20.8447
       ...           ...                  ...                  ...
       123        2.0000           -0.4203164             -11.4374
       124        2.0000           -0.4194014             -11.4125
       125        2.0000           -0.4174793             -11.3602
       126        2.0000           -0.4123316             -11.2201
       127        2.0000           -0.4120667             -11.2129
       128        2.0000           -0.4091746             -11.1342
       129        2.0000           -0.4021994             -10.9444
       130        2.0000           -0.3897771             -10.6064
       131        2.0000           -0.3893547             -10.5949
       132        2.0000           -0.3704941             -10.0817
       133        2.0000           -0.3703671             -10.0782
       134        2.0000           -0.3513825              -9.5616
       135        2.0000           -0.3510226              -9.5518 (HOMO)
       136                         -0.2831187              -7.7041 (LUMO)
       137                         -0.2604124              -7.0862
       138                         -0.2557641              -6.9597
       139                         -0.2453935              -6.6775
       140                         -0.2433184              -6.6210
       141                         -0.2212804              -6.0213
       142                         -0.2142663              -5.8305
       143                         -0.2114720              -5.7544
       144                         -0.2100899              -5.7168
       145                         -0.2081185              -5.6632
       146                         -0.1939216              -5.2769
       ...                                ...                  ...
       265                          1.2267924              33.3827
      -------------------------------------------------------------
                  HL-Gap            0.0679038 Eh            1.8478 eV

     #   Z          covCN         q      C6AA      α(0)
     1   6 C        3.751    -0.105    22.564     6.774
     2   6 C        3.800    -0.054    21.552     6.610
     3   6 C        3.802    -0.063    21.709     6.633
     4   6 C        3.740     0.001    20.645     6.483
     5   7 N        2.795    -0.044    22.083     6.979
     6   6 C        3.125     0.038    26.974     8.504
     7   6 C        2.909    -0.051    29.259     8.870
     8   6 C        2.922    -0.037    28.912     8.818
     9   6 C        2.919    -0.041    29.026     8.835
    10   6 C        2.910    -0.040    28.985     8.828
    11   6 C        3.066    -0.025    28.561     8.763
    12   6 C        3.184     0.000    27.568     8.569
    13   6 C        3.201     0.007    27.303     8.514
    14   6 C        3.061    -0.020    28.450     8.747
    15   6 C        2.911    -0.038    28.946     8.822
    16   6 C        2.919    -0.041    29.007     8.832
    17   6 C        2.923    -0.036    28.903     8.816
    18   6 C        2.909    -0.050    29.236     8.866
    19   6 C        3.104     0.039    26.999     8.514
    20   7 N        2.799    -0.034    21.900     6.950
    21   6 C        2.911     0.073    26.373     8.421
    22   6 C        2.927    -0.041    29.027     8.835
    23   6 C        2.925    -0.017    28.438     8.745
    24   6 C        2.989    -0.085    30.110     9.001
    25   6 C        3.111     0.004    27.795     8.637
    26   6 C        2.922    -0.046    29.133     8.851
    27   6 C        3.111     0.004    27.793     8.637
    28   6 C        2.922    -0.046    29.133     8.851
    29   6 C        2.911     0.073    26.373     8.421
    30   7 N        2.799    -0.034    21.902     6.951
    31   6 C        3.104     0.039    26.998     8.514
    32   6 C        2.909    -0.050    29.237     8.866
    33   6 C        2.923    -0.036    28.902     8.816
    34   6 C        2.919    -0.041    29.007     8.832
    35   6 C        2.911    -0.038    28.956     8.824
    36   6 C        3.061    -0.020    28.447     8.746
    37   6 C        3.201     0.007    27.295     8.513
    38   6 C        3.183     0.001    27.565     8.569
    39   6 C        3.067    -0.025    28.568     8.764
    40   6 C        2.910    -0.040    28.988     8.829
    41   6 C        2.919    -0.041    29.026     8.835
    42   6 C        2.922    -0.037    28.909     8.817
    43   6 C        2.909    -0.050    29.248     8.868
    44   6 C        3.123     0.038    26.970     8.505
    45   7 N        2.794    -0.041    22.029     6.971
    46   6 C        3.740     0.001    20.648     6.484
    47   6 C        3.803    -0.064    21.730     6.637
    48   6 C        3.801    -0.052    21.516     6.604
    49   6 C        3.752    -0.104    22.545     6.771
    50   6 C        2.927    -0.041    29.027     8.835
    51   6 C        2.925    -0.017    28.439     8.745
    52   6 C        2.989    -0.085    30.109     9.001
    53  16 S        3.931     0.963   107.720    17.468
    54   8 O        0.860    -0.534    24.552     6.643
    55   8 O        0.860    -0.535    24.571     6.646
    56   1 H        0.925     0.038     2.480     2.463
    57   1 H        0.925     0.037     2.487     2.466
    58   1 H        0.925     0.034     2.533     2.489
    59   1 H        0.924     0.037     2.491     2.468
    60   1 H        0.924     0.032     2.558     2.501
    61   1 H        0.924     0.040     2.450     2.448
    62   1 H        0.924     0.041     2.437     2.441
    63   1 H        0.924     0.052     2.290     2.367
    64   1 H        0.924     0.049     2.336     2.390
    65   1 H        0.926     0.025     2.655     2.548
    66   1 H        0.926     0.028     2.615     2.529
    67   1 H        0.926     0.028     2.617     2.530
    68   1 H        0.926     0.026     2.639     2.540
    69   1 H        0.926     0.027     2.633     2.537
    70   1 H        0.926     0.028     2.610     2.526
    71   1 H        0.926     0.030     2.593     2.518
    72   1 H        0.926     0.027     2.624     2.533
    73   1 H        0.926     0.064     2.155     2.296
    74   1 H        0.926     0.059     2.208     2.324
    75   1 H        0.926     0.058     2.226     2.333
    76   1 H        0.926     0.058     2.227     2.333
    77   1 H        0.926     0.027     2.624     2.533
    78   1 H        0.926     0.030     2.593     2.518
    79   1 H        0.926     0.028     2.610     2.527
    80   1 H        0.926     0.027     2.633     2.537
    81   1 H        0.926     0.026     2.639     2.540
    82   1 H        0.926     0.028     2.616     2.529
    83   1 H        0.926     0.028     2.612     2.528
    84   1 H        0.926     0.024     2.668     2.554
    85   1 H        0.924     0.050     2.314     2.379
    86   1 H        0.924     0.047     2.361     2.403
    87   1 H        0.924     0.045     2.386     2.416
    88   1 H        0.924     0.038     2.471     2.458
    89   1 H        0.924     0.036     2.504     2.474
    90   1 H        0.924     0.031     2.575     2.509
    91   1 H        0.925     0.036     2.508     2.476
    92   1 H        0.925     0.035     2.518     2.482
    93   1 H        0.925     0.037     2.486     2.466
    94   1 H        0.926     0.064     2.157     2.296
    95   1 H        0.926     0.059     2.208     2.324

molecular dipole:
                 x           y           z       tot (Debye)
 q only:        0.212       3.095       1.439
   full:        0.211       3.074       1.433       8.637

 projected vibrational frequencies (cm⁻¹)
eigval :       -0.00    -0.00    -0.00    -0.00     0.00     0.00
eigval :        9.01    11.67    12.14    18.16    21.13    24.93
eigval :       31.43    32.62    36.39    41.05    49.29    59.87
eigval :       64.88    74.42    79.46    86.83    89.57    99.19
eigval :      105.40   109.40   122.44   129.93   132.58   154.43
eigval :      157.97   168.50   171.66   174.90   188.44   200.01
eigval :      206.34   209.05   219.41   232.37   236.19   245.20
eigval :      247.27   260.56   270.62   273.29   290.01   300.08
eigval :      321.22   321.44   330.33   333.54   353.43   362.63
eigval :      366.71   375.32   386.15   398.56   401.73   406.25
eigval :      409.02   415.87   418.97   424.17   431.05   442.42
eigval :      443.92   448.79   465.46   490.01   511.25   523.81
eigval :      526.54   532.12   534.38   535.13   536.30   544.85
eigval :      552.69   557.46   564.57   578.09   582.15   604.47
eigval :      610.55   618.64   624.60   626.87   649.91   658.96
eigval :      665.22   675.24   685.14   685.97   686.36   688.51
eigval :      688.58   698.62   700.84   714.51   739.42   767.37
eigval :      767.68   769.63   771.22   780.41   782.52   790.43
eigval :      807.43   826.25   830.60   834.12   846.44   859.70
eigval :      861.91   862.74   866.06   866.99   868.66   873.40
eigval :      879.56   880.39   886.02   898.95   899.03   902.56
eigval :      905.40   907.36   915.58   915.70   919.97   921.87
eigval :      925.36   926.08   929.07   930.74   965.14   971.57
eigval :      977.77   997.04  1007.65  1022.92  1029.48  1050.56
eigval :     1058.56  1067.46  1069.13  1075.61  1076.46  1078.63
eigval :     1079.64  1096.10  1102.23  1116.84  1118.54  1127.19
eigval :     1127.24  1137.30  1141.03  1143.22  1145.34  1153.83
eigval :     1155.99  1167.13  1170.47  1178.08  1179.47  1188.59
eigval :     1189.22  1191.64  1198.71  1208.77  1216.34  1221.82
eigval :     1223.51  1238.06  1241.06  1243.69  1248.37  1253.41
eigval :     1256.68  1264.01  1267.81  1269.62  1270.68  1279.01
eigval :     1285.76  1300.78  1307.21  1320.07  1327.91  1332.99
eigval :     1334.16  1346.91  1349.27  1350.61  1351.12  1357.47
eigval :     1359.80  1360.67  1367.28  1369.29  1371.22  1392.29
eigval :     1399.17  1402.14  1411.11  1414.00  1417.33  1417.66
eigval :     1430.42  1433.48  1440.04  1445.39  1453.87  1459.37
eigval :     1462.75  1468.37  1471.75  1482.62  1488.66  1493.61
eigval :     1496.32  1497.75  1498.39  1504.08  1504.15  1504.56
eigval :     1504.91  1506.03  1511.15  1540.61  1541.22  1568.71
eigval :     1569.84  1570.07  1577.11  1583.32  1584.18  1586.58
eigval :     1587.59  1604.80  1604.90  1621.69  1622.16  2940.37
eigval :     2951.42  2966.19  2966.90  2972.43  2976.46  2982.32
eigval :     2984.64  2986.09  2987.55  2991.08  2991.64  3031.19
eigval :     3034.05  3035.49  3038.13  3042.79  3045.82  3075.67
eigval :     3076.76  3077.91  3078.08  3080.46  3081.10  3082.01
eigval :     3082.49  3087.50  3088.21  3089.36  3090.13  3096.60
eigval :     3097.04  3097.69  3098.10  3101.06  3101.20  3103.88
eigval :     3109.02  3110.11  3110.32

   temp. (K)  partition function   enthalpy   heat capacity  entropy
                                   cal/mol     cal/K/mol   cal/K/mol   J/K/mol
 298.15  VIB  0.280E+23            27725.092    169.658    174.242
         ROT  0.156E+09              888.752      2.981     40.475
         INT  0.437E+31            28613.844    172.639    214.717
         TR   0.194E+29             1481.254      4.968     45.651
         TOT                       30095.0979   177.6069   260.3683  1089.3808

       T/K    H(0)-H(T)+PV         H(T)/Eh          T*S/Eh         G(T)/Eh
   ------------------------------------------------------------------------
    298.15    0.479596E-01    0.796881E+00    0.123709E+00    0.673172E+00
   ------------------------------------------------------------------------

         :::::::::::::::::::::::::::::::::::::::::::::::::::::
         ::                  THERMODYNAMIC                  ::
         :::::::::::::::::::::::::::::::::::::::::::::::::::::
         :: total free energy        -145.706208698420 Eh   ::
         ::.................................................::
         :: total energy             -146.379380457671 Eh   ::
         :: zero point energy           0.748921530397 Eh   ::
         :: G(RRHO) w/o ZPVE           -0.075749771146 Eh   ::
         :: G(RRHO) contrib.            0.673171759251 Eh   ::
         :::::::::::::::::::::::::::::::::::::::::::::::::::::

           -------------------------------------------------
          | TOTAL ENERGY             -146.379380457671 Eh   |
          | TOTAL ENTHALPY           -145.582499336081 Eh   |
          | TOTAL FREE ENERGY        -145.706208698420 Eh   |
          | GRADIENT NORM               0.000059280801 Eh/α |
          | HOMO-LUMO GAP               1.847757548066 eV   |
           -------------------------------------------------

 * finished run on 2025/07/19 at 08:13:34.682
