   * xtb version 6.7.1 (edcfbbe) compiled by 'albert@albert-system' on 2024-07-22

   ID    Z sym.   atoms
    1    6 C      1-4, 6-19, 21-29, 31-44, 46-52
    2    7 N      5, 20, 30, 45
    3   16 S      53
    4    8 O      54, 55
    5    1 H      56-95

          program call               : xtb data2507/gas/DHID-DBS/DHID-DBS_gas_T1_crest.xyz --gfn 2 --spinpol --tblite --uhf 2 --ohess vtight --parallel 40 --molden --ceasefiles --namespace data2507/gas/DHID-DBS/DHID-DBS_gas_T1_finalOpt
 * total energy  :  -146.3001439 Eh     change       -0.9370575E-07 Eh
 * total energy  :  -146.3001649 Eh     change       -0.2100787E-04 Eh
 * total energy  :  -146.3001991 Eh     change       -0.3421729E-04 Eh
 * total energy  :  -146.3002090 Eh     change       -0.9880482E-05 Eh
 * total energy  :  -146.3002184 Eh     change       -0.9395304E-05 Eh
 * total energy  :  -146.3002236 Eh     change       -0.5246978E-05 Eh
 * total energy  :  -146.3002257 Eh     change       -0.2118060E-05 Eh
 * total energy  :  -146.3002275 Eh     change       -0.1790588E-05 Eh
 * total energy  :  -146.3002296 Eh     change       -0.2084673E-05 Eh
 * total energy  :  -146.3002332 Eh     change       -0.3579320E-05 Eh
 * total energy  :  -146.3003067 Eh     change       -0.7565182E-06 Eh
 * total energy  :  -146.3003069 Eh     change       -0.1407216E-06 Eh
 * total energy  :  -146.3003072 Eh     change       -0.3514296E-06 Eh
 * total energy  :  -146.3003074 Eh     change       -0.2033578E-06 Eh
 * total energy  :  -146.3003076 Eh     change       -0.1459221E-06 Eh
 * total energy  :  -146.3003078 Eh     change       -0.1918723E-06 Eh
 * total energy  :  -146.3003079 Eh     change       -0.1768048E-06 Eh
 * total energy  :  -146.3003081 Eh     change       -0.1516055E-06 Eh
 * total energy  :  -146.3003081 Eh     change       -0.2167909E-07 Eh
   *** GEOMETRY OPTIMIZATION CONVERGED AFTER 53 ITERATIONS ***

 final structure:
================
95
 xtb: 6.7.1 (edcfbbe)
C            8.49126715542814        2.87063513146313       -2.13480008900145
C            7.35829376957001        2.85338289052376       -1.11660275965502
C            7.88996047107041        2.71197154529416        0.30750067477222
C            6.76616730701729        2.67185533777828        1.35133999417386
N            5.94109503314809        1.50594238630324        1.20728507825309
C            6.27562655208183        0.22817381283797        1.64376305164698
C            7.37706771996327       -0.17382739571272        2.36943981245047
C            7.46979818733315       -1.51986184977333        2.72937262864320
C            6.48089023473434       -2.42551906035794        2.38100210712910
C            5.36905649325253       -2.03762394302241        1.64853233484341
C            5.26258889976331       -0.70174896767924        1.25846562543161
C            4.31653831828006        0.06649120289711        0.53920381408558
C            4.76185425513065        1.42089997870018        0.54074251256007
C            3.78374070847922        2.20272953182602       -0.10884132562693
C            3.63923787190663        3.55718364816750       -0.42524675030412
C            2.51547266146638        3.96065581010590       -1.12343036560431
C            1.55331674934441        3.04782762543592       -1.53100993970781
C            1.67393374878713        1.68891676829590       -1.23184681280937
C            2.76557446163877        1.27660264354306       -0.50122074665202
N            3.11097903302276       -0.01523985307585       -0.08334481118862
C            2.38264337495475       -1.18079223664585       -0.32248862735566
C            3.07128135415361       -2.34149089396284       -0.74536689301623
C            2.36326465592264       -3.51106248991869       -0.97389957793330
C            1.00166242052151       -3.51861088524253       -0.80483003852858
C            0.29011012946990       -2.36093971847675       -0.39914778175261
C            1.00944365446267       -1.19324032539919       -0.14497805309509
C           -1.12690900168745       -2.54095561930620       -0.32912412370490
C           -2.09151840771244       -1.57769580181416       -0.02067253729721
C           -3.43397309975232       -1.90360435148782       -0.08960261075218
N           -4.37586456597478       -0.89195090611960        0.14503850930283
C           -5.50697203587179       -0.95830646080670        0.94071997787201
C           -5.97355243866287       -2.01145460259015        1.71085437232166
C           -7.13188697909471       -1.82214934284420        2.44327738822424
C           -7.81265924517273       -0.60676168098404        2.42468518406219
C           -7.34547452830931        0.46194704061195        1.68663559636882
C           -6.18207058248931        0.30080096255153        0.93899056809916
C           -5.39259125709653        1.13470397631713        0.10509309394370
C           -4.30453039039016        0.37996921668533       -0.35436193563174
C           -3.54720831858154        1.20140542370438       -1.23172538478550
C           -2.41392681992215        1.02765954424685       -2.02243390831524
C           -1.96161520196905        2.09233775142014       -2.77521108830101
C           -2.61485521071276        3.32229637849766       -2.74993084721604
C           -3.75083693200661        3.51905641519611       -1.98629819289852
C           -4.22769918076499        2.45807138879107       -1.23096948475434
N           -5.34818925148245        2.39069947323076       -0.42780968207048
C           -6.27117652789129        3.44948048056962       -0.12511420298170
C           -6.00765274040060        4.05947332182810        1.25677426368652
C           -4.66342550951528        4.77963362513420        1.32812128737987
C           -4.41048966215761        5.35216078949437        2.71697913308449
C           -3.85142624834070       -3.20092311421888       -0.43337630061463
C           -2.89657722427774       -4.17021277817188       -0.71454703807636
C           -1.56671614192039       -3.84007891874033       -0.66728400197449
S           -0.14823214803837       -4.86241773554169       -1.03774645497709
O            0.03555660784551       -5.88697750001231       -0.03807106029860
O           -0.17017324999560       -5.30698646171483       -2.41041953677339
H            9.06374138761159        1.94709064329245       -2.08482452334385
H            8.09556797576857        2.97439224063727       -3.14187489999774
H            9.16585453774930        3.70239308497459       -1.94322501202329
H            6.68562019016506        2.02279906980732       -1.34006992514445
H            6.78185657145328        3.77732019010454       -1.20008136199710
H            8.47809988546783        1.79500387737651        0.38386414678760
H            8.54568317282665        3.55376734037838        0.53863090714792
H            7.19760085530835        2.67138390065360        2.35728477159179
H            6.12946232153280        3.55299566426682        1.24803347844253
H            8.14769176439256        0.52171382223752        2.66406642642343
H            8.32532024407804       -1.85289256184459        3.29664923077016
H            6.57602088180391       -3.45636037946823        2.68705242413059
H            4.60171800383201       -2.74918833812160        1.38828468906796
H            4.38972549742545        4.27564744293087       -0.13349043217191
H            2.39038271256865        5.00538802287458       -1.36672049054479
H            0.69377661655107        3.38710115054690       -2.08738185206197
H            0.92912945472213        0.99078504081210       -1.57851500233782
H            4.13403072039589       -2.29194913358063       -0.91629065458313
H            2.86950289876551       -4.40872967411507       -1.29365803757081
H            0.50655855589905       -0.31198096221366        0.22232005265758
H           -1.80129179189543       -0.58032556091038        0.27245377196330
H           -5.44195126197998       -2.94927474254874        1.74942177665424
H           -7.51367917123057       -2.63215869422666        3.04592313647387
H           -8.71513152315729       -0.49831342610778        3.00733514621371
H           -7.86981788255133        1.40597481468753        1.69402571987276
H           -1.91086975250002        0.07329696383361       -2.05516327199709
H           -1.08979301648799        1.96949119249786       -3.40031837692379
H           -2.23231880266908        4.13788310168548       -3.34546295680053
H           -4.24840619827969        4.47686307975875       -1.98851079456116
H           -6.18685576851631        4.21789824938108       -0.89637682544858
H           -7.28574290475003        3.03883961569485       -0.15749554014600
H           -6.03113829980110        3.26324744079182        2.00405087351699
H           -6.81162909758324        4.76170735799418        1.48600665781473
H           -3.86262192995017        4.08228653049022        1.07295354233764
H           -4.64620243452915        5.58903103327666        0.59445923353180
H           -3.45125092128208        5.86267732866841        2.74993869898032
H           -4.40237934730096        4.55859003525270        3.46085872919847
H           -5.18812765010666        6.06427648746097        2.98479053113762
H           -4.90298033588842       -3.42263153380603       -0.51495581464269
H           -3.19182108649074       -5.17151704580103       -0.98698684320406

 projected vibrational frequencies (cm⁻¹)
eigval :       -0.00    -0.00    -0.00     0.00     0.00     0.00
eigval :       10.46    11.91    14.72    22.48    26.76    29.21
eigval :       31.88    36.25    37.02    48.20    59.06    63.95
eigval :       65.99    73.55    77.93    85.84    93.54   100.88
eigval :      106.51   108.06   125.64   127.43   132.93   151.43
eigval :      156.64   164.06   167.84   177.93   185.77   189.79
eigval :      199.84   208.60   214.10   228.31   233.24   239.19
eigval :      249.42   258.45   271.62   296.23   300.48   304.21
eigval :      308.70   321.12   323.87   332.43   345.18   359.32
eigval :      360.18   368.73   375.42   382.45   393.50   399.75
eigval :      401.74   412.73   416.03   422.04   427.14   435.97
eigval :      443.43   445.26   484.34   486.85   506.93   511.49
eigval :      517.51   523.03   526.30   530.92   532.53   535.18
eigval :      543.26   556.05   558.10   571.72   578.61   587.54
eigval :      596.45   601.13   614.18   628.25   637.01   651.78
eigval :      656.40   664.89   669.18   671.17   673.93   679.91
eigval :      683.82   688.95   690.55   704.60   732.16   751.15
eigval :      752.94   764.51   767.87   769.31   780.60   786.64
eigval :      789.83   790.71   802.92   811.52   834.77   841.97
eigval :      843.03   850.95   855.20   858.23   867.72   868.68
eigval :      870.52   876.54   877.22   879.83   890.49   894.28
eigval :      898.09   902.64   903.43   903.82   906.52   906.63
eigval :      910.96   917.02   918.45   922.99   952.95   964.94
eigval :      973.52   976.53   993.17  1013.31  1016.84  1027.38
eigval :     1052.30  1058.07  1065.31  1069.80  1071.24  1074.31
eigval :     1075.64  1079.67  1093.40  1095.60  1096.07  1116.31
eigval :     1120.79  1125.72  1126.68  1134.22  1135.56  1142.95
eigval :     1147.00  1152.56  1160.30  1164.86  1173.12  1176.16
eigval :     1179.51  1186.98  1190.95  1192.39  1209.89  1212.45
eigval :     1215.85  1220.93  1223.86  1232.09  1236.91  1238.20
eigval :     1243.27  1246.10  1254.27  1261.21  1264.51  1274.66
eigval :     1280.22  1284.35  1287.47  1301.07  1306.14  1310.32
eigval :     1318.97  1321.91  1323.53  1333.66  1340.19  1348.33
eigval :     1349.29  1358.60  1363.75  1367.20  1368.41  1371.29
eigval :     1375.13  1381.66  1390.61  1393.37  1398.22  1402.49
eigval :     1408.21  1417.07  1417.35  1420.40  1434.87  1441.58
eigval :     1442.89  1449.96  1453.57  1455.93  1457.49  1466.97
eigval :     1474.78  1479.07  1480.66  1493.57  1495.08  1496.35
eigval :     1498.42  1501.88  1502.60  1503.14  1504.63  1504.70
eigval :     1519.72  1529.03  1548.83  1554.49  1556.35  1573.10
eigval :     1576.84  1584.07  1588.85  1590.03  1605.17  2943.89
eigval :     2948.59  2966.46  2969.47  2978.14  2980.32  2983.11
eigval :     2984.85  2988.26  2989.58  2992.89  2995.06  3032.23
eigval :     3032.26  3036.27  3036.81  3043.48  3045.36  3078.19
eigval :     3078.86  3079.28  3083.81  3084.01  3086.82  3088.64
eigval :     3088.68  3089.99  3092.28  3093.86  3094.69  3095.04
eigval :     3096.27  3098.49  3099.06  3099.84  3103.72  3106.05
eigval :     3109.09  3109.32  3110.91

   temp. (K)  partition function   enthalpy   heat capacity  entropy
                                   cal/mol     cal/K/mol   cal/K/mol   J/K/mol
 298.15  VIB  0.899E+22            27947.219    172.410    174.826
         ROT  0.133E+09              888.752      2.981     40.159
         INT  0.120E+31            28835.972    175.391    214.984
         TR   0.194E+29             1481.254      4.968     45.651
         TOT                       30317.2256   180.3593   260.6351  1090.4971

       T/K    H(0)-H(T)+PV         H(T)/Eh          T*S/Eh         G(T)/Eh
   ------------------------------------------------------------------------
    298.15    0.483136E-01    0.791801E+00    0.123836E+00    0.667964E+00
   ------------------------------------------------------------------------

         :::::::::::::::::::::::::::::::::::::::::::::::::::::
         ::                  THERMODYNAMIC                  ::
         :::::::::::::::::::::::::::::::::::::::::::::::::::::
         :: total free energy        -145.632343822107 Eh   ::
         ::.................................................::
         :: total energy             -146.300308220493 Eh   ::
         :: zero point energy           0.743486950608 Eh   ::
         :: G(RRHO) w/o ZPVE           -0.075522552221 Eh   ::
         :: G(RRHO) contrib.            0.667964398387 Eh   ::
         :::::::::::::::::::::::::::::::::::::::::::::::::::::

           -------------------------------------------------
          | TOTAL ENERGY             -146.300308220493 Eh   |
          | TOTAL ENTHALPY           -145.508507695661 Eh   |
          | TOTAL FREE ENERGY        -145.632343822107 Eh   |
          | GRADIENT NORM               0.000049917469 Eh/α |
           -------------------------------------------------

 * finished run on 2025/07/19 at 09:46:56.317
