   * xtb version 6.7.1 (edcfbbe) compiled by 'albert@albert-system' on 2024-07-22

   ID    Z sym.   atoms
    1    6 C      1-4, 6-20, 22-36, 38-45, 47, 48, 50-55
    2    7 N      5, 21, 37, 46, 49
    3    1 H      56-90

          program call               : xtb data2507/gas/2F/2F_gas_S0_crest.xyz --gfn 2 --ohess vtight --parallel 40 --molden --ceasefiles --namespace data2507/gas/2F/2F_gas_S0_finalOpt
          :  Hamiltonian                  GFN2-xTB          :
 * total energy  :  -139.5757707 Eh     change       -0.1283269E-08 Eh
 * total energy  :  -139.5757725 Eh     change       -0.1803897E-05 Eh
 * total energy  :  -139.5757752 Eh     change       -0.2680750E-05 Eh
 * total energy  :  -139.5757772 Eh     change       -0.1967539E-05 Eh
 * total energy  :  -139.5757798 Eh     change       -0.2639752E-05 Eh
 * total energy  :  -139.5757844 Eh     change       -0.4521205E-05 Eh
 * total energy  :  -139.5757897 Eh     change       -0.5309377E-05 Eh
 * total energy  :  -139.5757935 Eh     change       -0.3871872E-05 Eh
 * total energy  :  -139.5757966 Eh     change       -0.3031737E-05 Eh
 * total energy  :  -139.5757994 Eh     change       -0.2835102E-05 Eh
 * total energy  :  -139.5758041 Eh     change       -0.7086942E-06 Eh
 * total energy  :  -139.5758045 Eh     change       -0.4711621E-06 Eh
 * total energy  :  -139.5758050 Eh     change       -0.4370384E-06 Eh
 * total energy  :  -139.5758054 Eh     change       -0.4481306E-06 Eh
 * total energy  :  -139.5758059 Eh     change       -0.5021541E-06 Eh
 * total energy  :  -139.5758064 Eh     change       -0.5052178E-06 Eh
 * total energy  :  -139.5758069 Eh     change       -0.4437920E-06 Eh
 * total energy  :  -139.5758073 Eh     change       -0.4121986E-06 Eh
 * total energy  :  -139.5758073 Eh     change       -0.6642551E-08 Eh
   *** GEOMETRY OPTIMIZATION CONVERGED AFTER 22 ITERATIONS ***

 final structure:
================
90
 xtb: 6.7.1 (edcfbbe)
C           -6.82632113035342       -2.91545399774822       -1.89030792171677
C           -5.60014029110716       -2.55956600742568       -2.42767380159419
C           -4.42860504879913       -2.86585085902375       -1.76387040448724
C           -4.46676711655238       -3.53018788373290       -0.53750838640043
N           -3.28372055545787       -3.83326600268658        0.14307499003752
C           -3.17685872587746       -5.01437592139479        0.88273796399253
C           -3.76796369558329       -6.19279525778326        0.42591441185429
C           -3.65854641529201       -7.35723784471135        1.16014096850030
C           -2.95362789653489       -7.37252900037181        2.35271509339733
C           -2.35960091822411       -6.20700876016479        2.80832287550015
C           -2.47066051218720       -5.03527448471092        2.08582049159557
C           -2.20577453629804       -2.93651540740114        0.09795650913598
C           -0.89383530641678       -3.42772699068396        0.02402732773716
C            0.19561526554945       -2.58372929541916       -0.02969400949738
C           -0.03387854291149       -1.21504218964252       -0.03820078800795
C           -1.34960640654914       -0.70719052563227        0.05449090686750
C           -2.43397809977731       -1.56616604003129        0.12914996484222
C           -1.23512676173513        0.72403334083997        0.06671448827843
C           -2.17157861596007        1.74376726041371        0.12342267772171
C           -1.73040869530536        3.06024588994829        0.06934820714340
N           -2.65146848665962        4.11789362544553        0.10827690753421
C           -2.34378674089813        5.28094602226650        0.81919985394651
C           -2.75333887080278        6.52930688341806        0.34937691278310
C           -2.44418957639152        7.67521141203049        1.05528940138278
C           -1.71639525843072        7.60138369511279        2.23181275969427
C           -1.30231257877650        6.36534163309353        2.70038484602876
C           -1.61418875696713        5.21273778189182        2.00656534689570
C           -3.87830797233890        3.99485476285896       -0.55112836268147
C           -3.96436196158152        3.31417994365719       -1.76604340702626
C           -5.18013868775204        3.18461099773088       -2.40795555995598
C           -6.32665589619434        3.73623715549870       -1.86004175038644
C           -6.24673212557708        4.41739336948850       -0.65652569356034
C           -5.03729530420522        4.54371737381794       -0.00168120895854
C           -0.35980149413588        3.33705486264518       -0.04525462710029
C            0.58385228422350        2.33224156343029       -0.08192477193417
C            0.14489340883849        1.01742111271113       -0.01088704537218
N            0.86238437090327       -0.16281754046161       -0.07293572608569
C            2.25338908063689       -0.27292929361262       -0.14712804993097
C            2.84597571468238       -1.11214834017934       -1.08809188873144
C            4.21923370777667       -1.23082634366655       -1.14590070019931
C            5.03821509448855       -0.50461186276893       -0.28252557877041
C            6.49991865547702       -0.62764430584015       -0.34712029391295
C            7.09026944839963       -1.89568053523867       -0.56488049413387
C            8.44432155774210       -2.05146092494173       -0.62393391318898
C            9.28876616370863       -0.93324350756825       -0.47102653942457
N           10.62802583277076       -1.08251891986080       -0.52863758135490
C           11.35422486898669       -0.00748200737947       -0.37954111501099
C           10.77904424758089        1.26293786324464       -0.16636159172656
N            9.48775761394604        1.44063881758666       -0.10304499564964
C            8.70698573795957        0.34758012814690       -0.25269447074443
C            7.30861747622175        0.47505915922536       -0.19307268711124
C            4.43711474894034        0.34328634774682        0.64701600429956
C            3.06452714500251        0.45371809432272        0.72230723057953
C           -5.70499215241234       -3.88066390161442        0.00149541476126
C           -6.87057602007249       -3.57853667790296       -0.67490585698182
H           -7.73978158197967       -2.67731962501336       -2.41377563005310
H           -5.55442612553382       -2.04588114611789       -3.37686222886410
H           -3.47434230771662       -2.59448718218392       -2.19112485457631
H           -4.30912027768736       -6.18689174960012       -0.50900048579456
H           -4.12005111326358       -8.26242322310729        0.79331157217023
H           -2.86782009525976       -8.28551392540176        2.92215871957646
H           -1.81198436949746       -6.20757253852825        3.73953009825648
H           -2.01470834036025       -4.12568361667271        2.44876203881049
H           -0.73990415372705       -4.49643718449050        0.01135626922987
H            1.19618396087133       -2.98665733812539       -0.06307327367031
H           -3.43850488238256       -1.17962084467337        0.20905795885414
H           -3.22494430175898        1.52042330176986        0.19636820500579
H           -3.31103865567386        6.59193550637480       -0.57364156343547
H           -2.76648440604273        8.63489254790829        0.67840169707264
H           -1.47376601577889        8.49981373449229        2.77872202250073
H           -0.73874865958085        6.29678931179395        3.61949503538119
H           -1.29884705453099        4.24945262736611        2.38018101465163
H           -3.07115030160251        2.89064877211873       -2.20152802735246
H           -5.23091885912152        2.65527666941508       -3.34824199322692
H           -7.27464784637312        3.63553991567037       -2.36632841530839
H           -7.13584815233195        4.84627799576905       -0.21780780002603
H           -4.98183019574007        5.06470346610382        0.94300118175975
H           -0.04321297034337        4.36723891111745       -0.11248457089582
H            1.63092100297834        2.57045113438374       -0.18937449181172
H            2.22355711659264       -1.65424728485079       -1.78393522035607
H            4.66449558221322       -1.86973276572474       -1.89419018662574
H            6.44534446149747       -2.75662719734567       -0.66294553706785
H            8.89994804090590       -3.01657439700822       -0.78241438797958
H           12.42754983179407       -0.13568860602558       -0.42663649272278
H           11.39682021013819        2.14317839196996       -0.04547743710798
H            6.89659241406743        1.46136046954659       -0.04559440326070
H            5.05461560110750        0.89592424158084        1.33916697621270
H            2.60970596929443        1.08779136475171        1.46834493448954
H           -5.74488726955937       -4.38658527225803        0.95510878899507
H           -7.82180793384385       -3.85493011106756       -0.24397149910680

          :  Hamiltonian                  GFN2-xTB          :
         :: gradient norm              0.000054045356 Eh/a0 ::
         :: HOMO-LUMO gap              1.103938321901 eV    ::
         :: SCC energy              -142.164087479264 Eh    ::
         :: -> dispersion             -0.125578469903 Eh    ::
         :: repulsion energy           2.588280184851 Eh    ::

    * Orbital Energies and Occupations

         #    Occupation            Energy/Eh            Energy/eV
      -------------------------------------------------------------
         1        2.0000           -0.6795321             -18.4910
       ...           ...                  ...                  ...
       118        2.0000           -0.4084040             -11.1132
       119        2.0000           -0.4042407             -10.9999
       120        2.0000           -0.4039375             -10.9917
       121        2.0000           -0.4027204             -10.9586
       122        2.0000           -0.4023133             -10.9475
       123        2.0000           -0.4016902             -10.9305
       124        2.0000           -0.4009106             -10.9093
       125        2.0000           -0.4004676             -10.8973
       126        2.0000           -0.3839749             -10.4485
       127        2.0000           -0.3758093             -10.2263
       128        2.0000           -0.3559846              -9.6868
       129        2.0000           -0.3470954              -9.4449
       130        2.0000           -0.3385934              -9.2136 (HOMO)
       131                         -0.2980244              -8.1097 (LUMO)
       132                         -0.2617500              -7.1226
       133                         -0.2485490              -6.7634
       134                         -0.2373301              -6.4581
       135                         -0.2336523              -6.3580
       136                         -0.2300331              -6.2595
       137                         -0.2270103              -6.1773
       138                         -0.2267273              -6.1696
       139                         -0.2220323              -6.0418
       140                         -0.2214989              -6.0273
       141                         -0.2182980              -5.9402
       ...                                ...                  ...
       255                          0.7427144              20.2103
      -------------------------------------------------------------
                  HL-Gap            0.0405690 Eh            1.1039 eV

     #   Z          covCN         q      C6AA      α(0)
     1   6 C        2.919    -0.039    28.980     8.828
     2   6 C        2.920    -0.029    28.735     8.791
     3   6 C        2.923    -0.049    29.205     8.862
     4   6 C        2.924     0.065    26.543     8.449
     5   7 N        2.753    -0.077    22.729     7.081
     6   6 C        2.923     0.065    26.542     8.449
     7   6 C        2.922    -0.048    29.203     8.862
     8   6 C        2.919    -0.030    28.742     8.792
     9   6 C        2.919    -0.040    28.983     8.828
    10   6 C        2.919    -0.030    28.744     8.792
    11   6 C        2.922    -0.049    29.209     8.863
    12   6 C        2.924     0.056    26.750     8.482
    13   6 C        2.926    -0.050    29.246     8.869
    14   6 C        2.909    -0.051    29.260     8.870
    15   6 C        3.074     0.040    27.036     8.525
    16   6 C        3.067    -0.016    28.340     8.729
    17   6 C        2.915    -0.051    29.272     8.872
    18   6 C        3.067    -0.016    28.342     8.730
    19   6 C        2.915    -0.052    29.281     8.873
    20   6 C        2.924     0.056    26.747     8.481
    21   7 N        2.753    -0.077    22.727     7.080
    22   6 C        2.923     0.065    26.542     8.449
    23   6 C        2.922    -0.049    29.206     8.862
    24   6 C        2.919    -0.030    28.740     8.791
    25   6 C        2.919    -0.040    28.984     8.829
    26   6 C        2.919    -0.030    28.744     8.792
    27   6 C        2.923    -0.049    29.212     8.863
    28   6 C        2.923     0.065    26.543     8.449
    29   6 C        2.923    -0.048    29.202     8.862
    30   6 C        2.920    -0.029    28.735     8.791
    31   6 C        2.919    -0.039    28.978     8.828
    32   6 C        2.920    -0.030    28.740     8.791
    33   6 C        2.922    -0.049    29.204     8.862
    34   6 C        2.926    -0.050    29.231     8.866
    35   6 C        2.909    -0.051    29.255     8.869
    36   6 C        3.075     0.040    27.034     8.525
    37   7 N        2.801    -0.040    22.019     6.969
    38   6 C        2.913     0.064    26.562     8.451
    39   6 C        2.920    -0.044    29.093     8.845
    40   6 C        2.924    -0.032    28.805     8.801
    41   6 C        2.977     0.006    27.875     8.660
    42   6 C        2.974     0.015    27.672     8.629
    43   6 C        2.921    -0.031    28.772     8.796
    44   6 C        2.914    -0.039    28.967     8.826
    45   6 C        2.979     0.081    26.193     8.395
    46   7 N        1.841    -0.216    26.543     7.635
    47   6 C        2.903     0.055    26.770     8.484
    48   6 C        2.901     0.056    26.741     8.479
    49   7 N        1.842    -0.218    26.586     7.641
    50   6 C        2.975     0.081    26.186     8.394
    51   6 C        2.923    -0.046    29.131     8.851
    52   6 C        2.924    -0.032    28.805     8.802
    53   6 C        2.921    -0.043    29.077     8.843
    54   6 C        2.922    -0.049    29.207     8.863
    55   6 C        2.920    -0.030    28.739     8.791
    56   1 H        0.926     0.029     2.604     2.524
    57   1 H        0.926     0.030     2.587     2.515
    58   1 H        0.926     0.030     2.587     2.515
    59   1 H        0.926     0.031     2.570     2.507
    60   1 H        0.926     0.030     2.584     2.514
    61   1 H        0.926     0.029     2.606     2.524
    62   1 H        0.926     0.030     2.590     2.517
    63   1 H        0.926     0.030     2.585     2.514
    64   1 H        0.926     0.034     2.524     2.484
    65   1 H        0.926     0.031     2.565     2.505
    66   1 H        0.926     0.036     2.504     2.475
    67   1 H        0.926     0.036     2.505     2.475
    68   1 H        0.926     0.031     2.572     2.508
    69   1 H        0.926     0.030     2.584     2.514
    70   1 H        0.926     0.029     2.606     2.524
    71   1 H        0.926     0.030     2.591     2.517
    72   1 H        0.926     0.030     2.590     2.517
    73   1 H        0.926     0.030     2.585     2.514
    74   1 H        0.926     0.030     2.587     2.515
    75   1 H        0.926     0.029     2.604     2.523
    76   1 H        0.926     0.030     2.584     2.514
    77   1 H        0.926     0.031     2.574     2.509
    78   1 H        0.926     0.035     2.517     2.481
    79   1 H        0.926     0.032     2.555     2.500
    80   1 H        0.926     0.043     2.411     2.428
    81   1 H        0.926     0.039     2.461     2.453
    82   1 H        0.926     0.044     2.397     2.421
    83   1 H        0.926     0.056     2.243     2.342
    84   1 H        0.925     0.039     2.457     2.451
    85   1 H        0.925     0.039     2.456     2.451
    86   1 H        0.926     0.056     2.248     2.345
    87   1 H        0.926     0.041     2.429     2.437
    88   1 H        0.926     0.043     2.403     2.424
    89   1 H        0.926     0.031     2.576     2.510
    90   1 H        0.926     0.030     2.585     2.514

molecular dipole:
                 x           y           z       tot (Debye)
 q only:       -0.033      -0.187      -0.041
   full:        0.137      -0.161      -0.040       0.547

 projected vibrational frequencies (cm⁻¹)
eigval :       -0.00    -0.00    -0.00     0.00     0.00     0.00
eigval :       10.29    12.43    13.09    14.41    22.76    24.37
eigval :       33.84    39.95    41.71    48.05    55.93    58.31
eigval :       60.50    69.90    76.20    80.93    84.50    88.40
eigval :       96.34   123.29   132.97   135.32   144.21   157.93
eigval :      193.30   193.75   199.62   220.56   228.48   233.01
eigval :      249.38   251.02   259.00   288.33   307.14   315.40
eigval :      318.89   331.33   335.02   344.40   358.24   368.69
eigval :      377.98   378.17   383.60   384.04   384.61   387.04
eigval :      401.10   402.53   411.45   429.32   435.15   446.36
eigval :      450.16   457.82   473.05   488.66   489.92   496.92
eigval :      506.64   522.78   532.28   548.44   554.09   566.60
eigval :      573.39   582.35   585.00   587.84   589.13   590.19
eigval :      594.88   601.54   607.98   624.92   632.52   635.93
eigval :      644.93   658.96   660.86   664.29   666.65   675.33
eigval :      690.62   692.64   702.46   710.18   739.32   755.86
eigval :      756.27   757.85   759.97   761.92   791.44   802.94
eigval :      803.70   817.61   821.06   828.21   855.07   869.39
eigval :      873.12   873.53   874.14   874.97   875.70   877.53
eigval :      878.95   880.96   883.88   889.92   890.08   892.63
eigval :      893.16   907.78   909.15   909.79   910.19   911.34
eigval :      923.24   924.28   926.69   926.87   927.37   927.84
eigval :      927.89   928.17   928.99   930.06   930.13   935.54
eigval :      944.11   949.05   971.42   990.15  1003.68  1004.77
eigval :     1013.41  1013.88  1037.31  1065.64  1079.88  1083.49
eigval :     1083.56  1084.53  1084.58  1122.18  1122.22  1124.20
eigval :     1124.52  1130.43  1137.00  1142.77  1156.52  1170.13
eigval :     1179.71  1180.48  1180.84  1180.88  1181.20  1183.22
eigval :     1184.23  1195.99  1196.44  1200.47  1201.30  1201.71
eigval :     1205.91  1229.28  1230.83  1242.95  1254.54  1267.12
eigval :     1271.30  1276.17  1278.77  1279.67  1284.53  1288.69
eigval :     1300.25  1313.99  1315.84  1319.39  1320.48  1323.43
eigval :     1328.05  1328.37  1328.48  1331.06  1332.34  1349.94
eigval :     1353.76  1365.15  1385.89  1404.17  1413.44  1420.29
eigval :     1431.56  1435.33  1436.22  1441.46  1444.19  1445.16
eigval :     1469.37  1473.03  1473.51  1476.84  1478.44  1485.44
eigval :     1489.22  1501.76  1542.79  1554.07  1557.52  1564.81
eigval :     1572.34  1576.29  1578.18  1580.58  1580.70  1591.14
eigval :     1595.40  1595.96  1599.16  1600.88  1602.34  1605.76
eigval :     1617.03  3050.04  3058.33  3074.29  3074.40  3074.71
eigval :     3074.85  3075.54  3075.63  3076.06  3076.16  3081.07
eigval :     3084.52  3084.86  3085.18  3085.47  3085.76  3086.15
eigval :     3086.42  3086.72  3087.98  3088.30  3089.00  3089.24
eigval :     3093.91  3095.96  3096.37  3096.47  3096.63  3096.87
eigval :     3097.06  3097.33  3097.60  3098.25  3099.82  3101.18

   temp. (K)  partition function   enthalpy   heat capacity  entropy
                                   cal/mol     cal/K/mol   cal/K/mol   J/K/mol
 298.15  VIB  0.770E+21            25734.840    161.585    161.529
         ROT  0.184E+09              888.752      2.981     40.804
         INT  0.142E+30            26623.592    164.566    202.332
         TR   0.181E+29             1481.254      4.968     45.522
         TOT                       28104.8461   169.5343   247.8548  1037.0245

       T/K    H(0)-H(T)+PV         H(T)/Eh          T*S/Eh         G(T)/Eh
   ------------------------------------------------------------------------
    298.15    0.447879E-01    0.738289E+00    0.117764E+00    0.620525E+00
   ------------------------------------------------------------------------

         :::::::::::::::::::::::::::::::::::::::::::::::::::::
         ::                  THERMODYNAMIC                  ::
         :::::::::::::::::::::::::::::::::::::::::::::::::::::
         :: total free energy        -138.955282416672 Eh   ::
         ::.................................................::
         :: total energy             -139.575807294412 Eh   ::
         :: zero point energy           0.693500770418 Eh   ::
         :: G(RRHO) w/o ZPVE           -0.072975892679 Eh   ::
         :: G(RRHO) contrib.            0.620524877739 Eh   ::
         :::::::::::::::::::::::::::::::::::::::::::::::::::::

           -------------------------------------------------
          | TOTAL ENERGY             -139.575807294412 Eh   |
          | TOTAL ENTHALPY           -138.837518600811 Eh   |
          | TOTAL FREE ENERGY        -138.955282416672 Eh   |
          | GRADIENT NORM               0.000054040354 Eh/α |
          | HOMO-LUMO GAP               1.103939051305 eV   |
           -------------------------------------------------

 * finished run on 2025/09/04 at 05:51:15.527
