   * xtb version 6.7.1 (edcfbbe) compiled by 'albert@albert-system' on 2024-07-22

   ID    Z sym.   atoms
    1    6 C      1-4, 6-20, 22-36, 38-45, 47, 48, 50-55
    2    7 N      5, 21, 37, 46, 49
    3    1 H      56-90

          program call               : xtb data2507/gas/2F/2F_gas_S0_finalOpt.xtbopt.xyz --gfn 2 --spinpol --tblite --uhf 2 --ohess vtight --parallel 40 --molden --ceasefiles --namespace data2507/gas/2F/2F_gas_T1_preOpt
 * total energy  :  -139.5200395 Eh     change       -0.3427061E-08 Eh
 * total energy  :  -139.5238107 Eh     change       -0.3771293E-02 Eh
 * total energy  :  -139.5247841 Eh     change       -0.9733298E-03 Eh
 * total energy  :  -139.5249264 Eh     change       -0.1423414E-03 Eh
 * total energy  :  -139.5249785 Eh     change       -0.5204772E-04 Eh
 * total energy  :  -139.5249847 Eh     change       -0.6228304E-05 Eh
 * total energy  :  -139.5249898 Eh     change       -0.5151211E-05 Eh
 * total energy  :  -139.5250006 Eh     change       -0.1075908E-04 Eh
 * total energy  :  -139.5250121 Eh     change       -0.1153874E-04 Eh
 * total energy  :  -139.5250207 Eh     change       -0.8602678E-05 Eh
 * total energy  :  -139.5250497 Eh     change       -0.3201534E-06 Eh
 * total energy  :  -139.5250500 Eh     change       -0.3303994E-06 Eh
 * total energy  :  -139.5250504 Eh     change       -0.3333291E-06 Eh
 * total energy  :  -139.5250506 Eh     change       -0.2839513E-06 Eh
 * total energy  :  -139.5250515 Eh     change       -0.8982653E-06 Eh
 * total energy  :  -139.5250517 Eh     change       -0.1864554E-06 Eh
 * total energy  :  -139.5250518 Eh     change       -0.1284180E-06 Eh
 * total energy  :  -139.5250520 Eh     change       -0.1376766E-06 Eh
 * total energy  :  -139.5250521 Eh     change       -0.8337153E-07 Eh
   *** GEOMETRY OPTIMIZATION CONVERGED AFTER 39 ITERATIONS ***

 final structure:
================
90
 xtb: 6.7.1 (edcfbbe)
C           -6.83404914091266       -2.93044432372974       -1.88940922777225
C           -5.60671553917690       -2.57521919076227       -2.42496422379726
C           -4.43672203392989       -2.87989647623962       -1.75788178528302
C           -4.47819816278380       -3.54258654682409       -0.53045135379812
N           -3.29674587203855       -3.84431001085629        0.15277631119298
C           -3.19178770222990       -5.02511782925218        0.89367025320339
C           -3.78069624849414       -6.20399925898382        0.43515582651444
C           -3.67332087429808       -7.36751095888568        1.17121273296577
C           -2.97367767024239       -7.38033455228229        2.36701269297733
C           -2.38236995428633       -6.21395597781194        2.82434985210045
C           -2.49058782059004       -5.04328394975949        2.09980159683449
C           -2.21896472669771       -2.94893273297378        0.10840234490482
C           -0.90611273181090       -3.44177950403508        0.04286619855969
C            0.18281774063861       -2.59880986729582       -0.01065029732049
C           -0.04701260782155       -1.22905650495805       -0.02172452219342
C           -1.36435121429616       -0.71920857689504        0.06206488179255
C           -2.44862207860478       -1.57769448763095        0.13189663459141
C           -1.24581692327933        0.71164854857920        0.06726796340613
C           -2.17559436116662        1.73682142840719        0.11902858849109
C           -1.72477245612380        3.05117802092940        0.06759235979260
N           -2.63921489378422        4.11310281657853        0.10515151521132
C           -2.32476716232928        5.27620748476972        0.81363466292484
C           -2.72024388878033        6.52621489886181        0.33617554389419
C           -2.40562616853764        7.67157564708943        1.04057595957632
C           -1.68771449827025        7.59437935164117        2.22304815642422
C           -1.28791334704470        6.35632267501246        2.69909584269840
C           -1.60410944296032        5.20433357386091        2.00628425895160
C           -3.86507421795227        3.99922320982507       -0.55676824617365
C           -3.95336278699818        3.31737768755988       -1.77111741844766
C           -5.16832364744298        3.19898932724887       -2.41658125583058
C           -6.31118423984491        3.76192761731126       -1.87218194914903
C           -6.22891340905013        4.44365254247597       -0.66896755132172
C           -5.02031582287150        4.56003871192827       -0.01091164060820
C           -0.35118739950106        3.32098697428957       -0.03961901654587
C            0.58554927600126        2.31113709675799       -0.07603515174281
C            0.13756650482259        0.99799687853528       -0.00929538663565
N            0.84790871120929       -0.18178077821263       -0.06092332354257
C            2.24443686866271       -0.29566742703960       -0.14130086751896
C            2.82960359503660       -1.10582772648095       -1.11036429524336
C            4.20218003351071       -1.21905345914818       -1.18182007484360
C            5.03090608327214       -0.52129995039853       -0.30091205999809
C            6.48697816459150       -0.64120352720101       -0.38211989706172
C            7.08702572010407       -1.85682320385327       -0.70309449890796
C            8.46201451083635       -1.98050835613051       -0.76696509613121
C            9.29989835377398       -0.89308589702785       -0.52546176755152
N           10.62716383640063       -0.97366430365768       -0.58477862447545
C           11.38577966693576        0.09284778001899       -0.35032779632942
C           10.80720643241052        1.30602807013614       -0.03965180852930
N            9.48906956424620        1.42918318382697        0.03426758549769
C            8.68826862927481        0.38048774403730       -0.19451273605171
C            7.30632852304591        0.46456486439799       -0.12959009773528
C            4.43034584289833        0.29343894099777        0.66110267406193
C            3.05834132359659        0.40176744703436        0.74709586975337
C           -5.71751365318600       -3.89345196864611        0.00634182175511
C           -6.88142905729927       -3.59202174654315       -0.67314705251459
H           -7.74624184852355       -2.69330552837452       -2.41535938846311
H           -5.55900705970978       -2.06368548341704       -3.37507427706966
H           -3.48128438467048       -2.61089919436627       -2.18379718149277
H           -4.31661424265268       -6.19959848412116       -0.50272480944575
H           -4.13204768100523       -8.27356581401872        0.80345633804833
H           -2.88962636611966       -8.29250312156465        2.93782809180159
H           -1.83918397894630       -6.21311333795513        3.75793608328405
H           -2.03767642077753       -4.13264493007430        2.46364788886474
H           -0.75349410573025       -4.51063343654768        0.03310530247061
H            1.18440668204922       -2.99863922702363       -0.04435932416959
H           -3.45403619732423       -1.19195782147721        0.20536849205595
H           -3.23070515515711        1.52141453533618        0.19193099653941
H           -3.26947842374269        6.59040366324435       -0.59174461730229
H           -2.71579398801027        8.63291449791139        0.65819160012967
H           -1.44136289218770        8.49225582432649        2.76899459753202
H           -0.73227456961697        6.28595254104171        3.62266095776971
H           -1.30074510114129        4.23927216094675        2.38494396786991
H           -3.06232056590319        2.88690176544302       -2.20401950368751
H           -5.22125531416539        2.67010659284376       -3.35685315615088
H           -7.25841207279956        3.66994443630448       -2.38135611048320
H           -7.11533194660794        4.88103341040211       -0.23351925139430
H           -4.96257623699163        5.08099109647705        0.93358278198291
H           -0.02911326402975        4.34960256658424       -0.10369911626074
H            1.63511475135023        2.53975093740701       -0.17790061257054
H            2.20177132060182       -1.62784386896436       -1.81741390475103
H            4.64249772537763       -1.83387476622134       -1.95247919489966
H            6.47324049078915       -2.72831844463819       -0.87491634213489
H            8.92074147187395       -2.92837028258175       -1.00222110431258
H           12.45448991002660       -0.02827583015264       -0.41431088093230
H           11.40278049081289        2.18410878888586        0.15096611805729
H            6.87315450590442        1.42693215364246        0.09424511934582
H            5.04912675459731        0.82355207190628        1.36927096112510
H            2.60644456474162        1.01286565751772        1.51454155457910
H           -5.75938190987466       -4.39751667057694        0.96077770449893
H           -7.83362669443470       -3.86787422116710       -0.24432940328421

 projected vibrational frequencies (cm⁻¹)
eigval :       -0.00    -0.00     0.00     0.00     0.00     0.00
eigval :       10.27    11.41    13.02    14.26    22.99    23.38
eigval :       33.83    40.45    42.20    48.06    55.91    58.81
eigval :       60.61    70.45    76.16    80.12    84.24    88.17
eigval :       95.68   123.93   134.19   138.38   144.99   171.93
eigval :      192.87   194.36   200.35   220.69   228.27   233.02
eigval :      250.05   251.67   257.90   285.09   306.18   315.59
eigval :      318.56   323.53   330.69   340.51   358.22   375.42
eigval :      377.68   378.17   383.25   383.86   385.38   387.09
eigval :      402.79   405.08   411.90   429.69   437.65   448.54
eigval :      456.23   459.19   469.15   472.89   490.40   492.32
eigval :      500.30   506.73   520.69   549.65   552.58   565.19
eigval :      566.50   580.76   584.85   587.36   588.79   589.92
eigval :      593.14   595.39   602.08   614.38   626.82   634.75
eigval :      637.05   659.09   660.71   664.03   666.20   674.89
eigval :      676.53   687.97   690.78   703.19   708.02   734.31
eigval :      736.80   755.97   756.37   757.67   759.87   787.47
eigval :      796.06   801.79   803.36   814.24   818.62   822.27
eigval :      826.44   844.34   868.44   872.33   873.05   873.97
eigval :      874.04   875.77   876.87   881.48   884.15   885.48
eigval :      891.15   891.33   893.86   894.33   908.20   909.69
eigval :      910.27   911.65   923.98   926.85   927.05   927.47
eigval :      928.00   928.08   928.42   929.91   930.03   932.28
eigval :      941.36   948.66   971.20   989.88  1003.41  1004.66
eigval :     1012.63  1015.12  1036.20  1071.01  1083.29  1083.38
eigval :     1084.33  1084.41  1105.39  1106.34  1122.16  1122.17
eigval :     1124.07  1124.42  1129.97  1136.45  1145.09  1153.70
eigval :     1168.11  1177.65  1180.07  1180.40  1180.43  1180.77
eigval :     1181.49  1184.59  1194.96  1195.41  1199.49  1200.71
eigval :     1203.54  1228.77  1229.86  1242.04  1252.49  1265.63
eigval :     1268.13  1275.46  1278.01  1278.82  1283.32  1287.54
eigval :     1296.71  1305.00  1312.59  1316.08  1319.83  1320.02
eigval :     1321.26  1325.08  1327.42  1327.84  1329.81  1343.42
eigval :     1351.72  1361.65  1364.84  1367.99  1381.03  1405.47
eigval :     1413.66  1422.20  1434.35  1435.30  1436.08  1443.44
eigval :     1444.41  1464.62  1470.59  1470.80  1472.99  1474.54
eigval :     1485.92  1488.54  1506.56  1517.10  1536.06  1551.55
eigval :     1561.02  1570.54  1575.04  1576.60  1579.35  1579.41
eigval :     1592.57  1592.72  1593.07  1593.45  1597.66  1598.03
eigval :     1611.86  3076.28  3076.38  3076.70  3076.80  3077.35
eigval :     3077.46  3077.86  3077.95  3079.78  3081.82  3083.32
eigval :     3086.48  3086.58  3086.60  3087.18  3087.44  3088.26
eigval :     3088.42  3089.40  3089.79  3090.36  3090.62  3092.35
eigval :     3092.90  3093.47  3095.77  3096.00  3096.33  3097.09
eigval :     3097.76  3098.00  3098.04  3098.67  3099.23  3099.66

   temp. (K)  partition function   enthalpy   heat capacity  entropy
                                   cal/mol     cal/K/mol   cal/K/mol   J/K/mol
 298.15  VIB  0.875E+21            25861.059    162.840    162.116
         ROT  0.185E+09              888.752      2.981     40.808
         INT  0.162E+30            26749.812    165.821    202.924
         TR   0.181E+29             1481.254      4.968     45.522
         TOT                       28231.0656   170.7893   248.4465  1039.5000

       T/K    H(0)-H(T)+PV         H(T)/Eh          T*S/Eh         G(T)/Eh
   ------------------------------------------------------------------------
    298.15    0.449891E-01    0.736032E+00    0.118045E+00    0.617987E+00
   ------------------------------------------------------------------------

         :::::::::::::::::::::::::::::::::::::::::::::::::::::
         ::                  THERMODYNAMIC                  ::
         :::::::::::::::::::::::::::::::::::::::::::::::::::::
         :: total free energy        -138.907065494543 Eh   ::
         ::.................................................::
         :: total energy             -139.525052074541 Eh   ::
         :: zero point energy           0.691042441949 Eh   ::
         :: G(RRHO) w/o ZPVE           -0.073055861951 Eh   ::
         :: G(RRHO) contrib.            0.617986579998 Eh   ::
         :::::::::::::::::::::::::::::::::::::::::::::::::::::

           -------------------------------------------------
          | TOTAL ENERGY             -139.525052074541 Eh   |
          | TOTAL ENTHALPY           -138.789020565893 Eh   |
          | TOTAL FREE ENERGY        -138.907065494543 Eh   |
          | GRADIENT NORM               0.000028322170 Eh/α |
           -------------------------------------------------

 * finished run on 2025/09/04 at 05:51:28.208
