   * xtb version 6.7.1 (edcfbbe) compiled by 'albert@albert-system' on 2024-07-22

   ID    Z sym.   atoms
    1    6 C      1-4, 6-20, 22-36, 38-45, 47, 48, 50-55
    2    7 N      5, 21, 37, 46, 49
    3    1 H      56-90

          program call               : xtb data2507/gas/2F/2F_gas_T1_crest.xyz --gfn 2 --spinpol --tblite --uhf 2 --ohess vtight --parallel 40 --molden --ceasefiles --namespace data2507/gas/2F/2F_gas_T1_finalOpt
 * total energy  :  -139.5249675 Eh     change        0.2387424E-11 Eh
 * total energy  :  -139.5250096 Eh     change       -0.4215034E-04 Eh
 * total energy  :  -139.5250207 Eh     change       -0.1106408E-04 Eh
 * total energy  :  -139.5250242 Eh     change       -0.3465654E-05 Eh
 * total energy  :  -139.5250268 Eh     change       -0.2639099E-05 Eh
 * total energy  :  -139.5250296 Eh     change       -0.2785423E-05 Eh
 * total energy  :  -139.5250326 Eh     change       -0.2968959E-05 Eh
 * total energy  :  -139.5250350 Eh     change       -0.2441066E-05 Eh
 * total energy  :  -139.5250372 Eh     change       -0.2166177E-05 Eh
 * total energy  :  -139.5250391 Eh     change       -0.1927250E-05 Eh
 * total energy  :  -139.5250442 Eh     change       -0.8759945E-06 Eh
 * total energy  :  -139.5250451 Eh     change       -0.9157526E-06 Eh
 * total energy  :  -139.5250458 Eh     change       -0.7262363E-06 Eh
 * total energy  :  -139.5250464 Eh     change       -0.6416049E-06 Eh
 * total energy  :  -139.5250469 Eh     change       -0.4203546E-06 Eh
 * total energy  :  -139.5250472 Eh     change       -0.3773123E-06 Eh
 * total energy  :  -139.5250476 Eh     change       -0.3427461E-06 Eh
 * total energy  :  -139.5250479 Eh     change       -0.3281801E-06 Eh
 * total energy  :  -139.5250480 Eh     change       -0.9632501E-07 Eh
   *** GEOMETRY OPTIMIZATION CONVERGED AFTER 22 ITERATIONS ***

 final structure:
================
90
 xtb: 6.7.1 (edcfbbe)
C           -6.84568174205924       -2.77535509256018       -1.99219790520365
C           -5.60819120902718       -2.42315576482639       -2.50598173295500
C           -4.44925959330094       -2.76377542096201       -1.83690831269921
C           -4.51266982718000       -3.46019848390767       -0.62936392000848
N           -3.34255093206424       -3.79835357435473        0.05697547579696
C           -3.25787291144588       -5.00775652199695        0.75236493282653
C           -3.85899525086929       -6.16034735388467        0.24523605857812
C           -3.77133384693806       -7.35269670352860        0.93630050439484
C           -3.07981836803676       -7.42091209195320        2.13494707659229
C           -2.47685497402082       -6.28079743959623        2.64074043044621
C           -2.56514057488022       -5.08176090689243        1.96130800333704
C           -2.25389600798104       -2.91531614376746        0.05572005204963
C           -0.94708591685872       -3.42259970722359       -0.02115866109805
C            0.15373157077058       -2.59372964823111       -0.02343475689869
C           -0.05688872168664       -1.22252288646241        0.04657058018385
C           -1.36968533997389       -0.69721728763972        0.09322797041104
C           -2.46666069412972       -1.54232324291780        0.11167023881687
C           -1.23433010561194        0.73208273097941        0.09880788516973
C           -2.15240116938965        1.76744798825016        0.14962649504280
C           -1.68505040778556        3.07711662261102        0.14233817085535
N           -2.58963733374443        4.14755524047823        0.16601012763640
C           -3.78976094927746        4.05930931263385       -0.54508918382183
C           -3.83859024626882        3.40003415364327       -1.77407993252343
C           -5.02859196313943        3.30814941124445       -2.46848796576603
C           -6.18528121224413        3.87558869222682       -1.95912504548256
C           -6.14223853336918        4.53474839037695       -0.74138239950288
C           -4.95910467134029        4.62448551190872       -0.03472706315658
C           -2.29536947337247        5.29316847528957        0.91149877018474
C           -2.65301269438336        6.55644308065580        0.43932327873249
C           -2.35976081230953        7.68468650472383        1.17967158998684
C           -1.70088008649249        7.57657309797592        2.39367767280177
C           -1.33881449004722        6.32509318894582        2.86482529211932
C           -1.63422325834022        5.19000245772128        2.13576284987433
C           -0.30466625906747        3.33142499250019        0.11333818315550
C            0.62027959903385        2.31034395890124        0.07959853601070
C            0.15379898951603        1.00235191221447        0.05100742035168
N            0.85119580645952       -0.18611309148910        0.02335887833551
C            2.24753119215863       -0.31979917168092       -0.02302524935950
C            2.99092244114261        0.38088673052786       -0.96877850079819
C            4.36345376547721        0.25221698057153       -1.00522031312604
C            5.03377693178247       -0.58652629292052       -0.11241978330466
C            6.48946319691994       -0.72711959633287       -0.16092883388680
C            7.09758774548708       -1.95553786877008        0.08818712844989
C            8.47090247449623       -2.09848910621796        0.02900417208647
C            9.30029471920185       -1.01858516517701       -0.26905508170607
N           10.62623883940650       -1.11781657639664       -0.32825415009964
C           11.37703986646922       -0.05759581036496       -0.61127237501929
C           10.79134602937815        1.16836225365737       -0.85028115502233
N            9.47373808382719        1.31013362285811       -0.80662419080189
C            8.68070494806464        0.26830678681092       -0.52530037099493
C            7.29974508327965        0.37164848676058       -0.46769431418469
C            4.27476422900118       -1.28826508880708        0.82634809779165
C            2.90314471713744       -1.15500154857263        0.87734438992981
C           -5.76189787158113       -3.80837430069004       -0.11449253743305
C           -6.91468468906375       -3.47067436312281       -0.79595641172367
H           -7.74914508333812       -2.50988688700891       -2.51968133290064
H           -5.54385830163749       -1.88575318568027       -3.44068865587895
H           -3.48571469845976       -2.49724280165796       -2.24583215789150
H           -4.38851039864266       -6.11284801940548       -0.69507178183191
H           -4.23912178843585       -8.23779229251490        0.53085279331041
H           -3.01113213131613       -8.35551282930656        2.67043603077099
H           -1.94024763245400       -6.32321650873379        3.57719332661306
H           -2.10358346153664       -4.19165479321907        2.36310144454777
H           -0.80974308700480       -4.49142612042475       -0.08943923015729
H            1.14874204362564       -3.00359958212521       -0.10252032137977
H           -3.46861512055521       -1.14417303475067        0.16176500123257
H           -3.21141032072795        1.56393118943607        0.19572036359468
H           -2.93661349831225        2.96593794846297       -2.17979768564916
H           -5.05075493278769        2.79666971897738       -3.41956444331082
H           -7.11277973371436        3.80452241467056       -2.50652511895124
H           -7.03985027058866        4.97527481110972       -0.33286237270134
H           -4.93252661712047        5.12786933571349        0.92061921612010
H           -3.15636143983576        6.64424228385554       -0.51240648121057
H           -2.63996269617587        8.65671094937496        0.80119041998860
H           -1.47093375127763        8.46107090974122        2.96789124384024
H           -0.82935385401201        6.23072710435715        3.81253702434515
H           -1.36019426795157        4.21442414995714        2.50986140294462
H            0.03384171320955        4.35671302686493        0.11579262107937
H            1.67698745318459        2.52819742331585        0.07371364583913
H            2.48311560359100        1.01017090751493       -1.68479874205227
H            4.92562532967257        0.78542081941310       -1.75694129619102
H            6.48869704980904       -2.82151892739075        0.30055799760969
H            8.93451791067624       -3.05605713827897        0.20887687808964
H           12.44533602564471       -0.19401820425774       -0.64335761725735
H           11.38083852639521        2.04175331106911       -1.07777915161638
H            6.86279800901536        1.34318612542033       -0.63821133998051
H            4.77134615071788       -1.92257385875548        1.54526700193852
H            2.33153610679396       -1.68137956628135        1.62757968471400
H           -5.82003866170246       -4.33914679202886        0.82450287362231
H           -7.87495613307987       -3.74464450945771       -0.38429631781174

 projected vibrational frequencies (cm⁻¹)
eigval :       -0.00    -0.00    -0.00    -0.00     0.00     0.00
eigval :        9.71    12.25    12.90    13.97    21.72    23.53
eigval :       34.68    38.82    42.49    47.98    56.45    57.98
eigval :       59.97    69.57    77.36    80.63    83.53    86.88
eigval :       95.73   124.12   133.95   137.14   145.46   171.77
eigval :      193.50   194.32   200.36   221.01   228.30   232.40
eigval :      250.00   250.84   257.62   285.63   306.69   315.47
eigval :      318.54   322.98   330.36   342.70   354.16   376.10
eigval :      377.54   378.46   383.17   383.75   384.19   391.32
eigval :      403.56   404.46   409.65   429.60   435.95   447.01
eigval :      458.21   460.20   468.77   472.57   490.43   492.61
eigval :      499.86   507.04   520.77   549.71   552.43   565.57
eigval :      566.60   580.79   585.03   587.50   588.63   589.94
eigval :      593.04   595.23   601.92   614.44   626.58   634.85
eigval :      636.90   659.06   660.69   663.95   666.17   674.85
eigval :      676.40   688.01   691.05   703.06   708.65   733.77
eigval :      736.89   755.72   756.06   757.35   759.55   787.78
eigval :      795.65   801.36   803.36   813.68   818.27   821.70
eigval :      826.08   844.67   867.94   871.84   872.78   873.52
eigval :      873.97   875.47   876.33   880.96   883.84   885.22
eigval :      890.88   891.08   893.45   894.00   907.93   909.43
eigval :      910.12   911.23   923.72   926.57   926.76   927.13
eigval :      927.69   927.77   928.11   929.46   929.56   932.09
eigval :      941.39   948.66   971.22   989.78  1003.41  1004.65
eigval :     1012.79  1015.04  1036.11  1071.09  1083.12  1083.20
eigval :     1084.17  1084.25  1104.48  1107.41  1121.78  1121.80
eigval :     1123.76  1124.02  1129.83  1135.98  1144.75  1153.38
eigval :     1167.66  1176.43  1179.50  1179.82  1179.87  1180.23
eigval :     1181.53  1184.81  1194.37  1194.81  1198.95  1200.69
eigval :     1203.10  1228.77  1229.47  1241.78  1252.32  1264.93
eigval :     1267.79  1275.12  1277.62  1278.48  1282.95  1287.09
eigval :     1296.37  1304.65  1312.49  1315.93  1319.74  1320.02
eigval :     1321.00  1324.76  1327.38  1327.84  1329.74  1342.76
eigval :     1352.04  1361.55  1364.91  1368.23  1380.55  1405.26
eigval :     1413.58  1422.01  1434.28  1435.21  1435.92  1443.25
eigval :     1444.23  1464.42  1470.27  1470.61  1472.71  1474.31
eigval :     1486.11  1488.47  1505.88  1516.75  1535.93  1551.45
eigval :     1560.89  1570.41  1574.99  1576.52  1579.30  1579.36
eigval :     1592.46  1592.63  1592.98  1593.42  1597.86  1597.94
eigval :     1611.53  3076.25  3076.37  3076.69  3076.87  3077.28
eigval :     3077.43  3077.81  3077.93  3079.56  3082.00  3083.19
eigval :     3086.33  3086.49  3086.55  3087.16  3087.39  3088.03
eigval :     3088.64  3089.36  3089.73  3090.28  3090.57  3092.25
eigval :     3093.04  3093.49  3095.70  3096.08  3096.39  3097.11
eigval :     3097.78  3097.98  3098.06  3098.53  3099.07  3099.83

   temp. (K)  partition function   enthalpy   heat capacity  entropy
                                   cal/mol     cal/K/mol   cal/K/mol   J/K/mol
 298.15  VIB  0.970E+21            25870.847    162.835    162.227
         ROT  0.185E+09              888.752      2.981     40.810
         INT  0.180E+30            26759.600    165.816    203.037
         TR   0.181E+29             1481.254      4.968     45.522
         TOT                       28240.8536   170.7843   248.5599  1039.9745

       T/K    H(0)-H(T)+PV         H(T)/Eh          T*S/Eh         G(T)/Eh
   ------------------------------------------------------------------------
    298.15    0.450047E-01    0.735957E+00    0.118099E+00    0.617858E+00
   ------------------------------------------------------------------------

         :::::::::::::::::::::::::::::::::::::::::::::::::::::
         ::                  THERMODYNAMIC                  ::
         :::::::::::::::::::::::::::::::::::::::::::::::::::::
         :: total free energy        -138.907190241539 Eh   ::
         ::.................................................::
         :: total energy             -139.525048003666 Eh   ::
         :: zero point energy           0.690951916892 Eh   ::
         :: G(RRHO) w/o ZPVE           -0.073094154765 Eh   ::
         :: G(RRHO) contrib.            0.617857762127 Eh   ::
         :::::::::::::::::::::::::::::::::::::::::::::::::::::

           -------------------------------------------------
          | TOTAL ENERGY             -139.525048003666 Eh   |
          | TOTAL ENTHALPY           -138.789091421833 Eh   |
          | TOTAL FREE ENERGY        -138.907190241539 Eh   |
          | GRADIENT NORM               0.000106615739 Eh/α |
           -------------------------------------------------

 * finished run on 2025/09/04 at 06:04:46.033
