   * xtb version 6.7.1 (edcfbbe) compiled by 'albert@albert-system' on 2024-07-22

   ID    Z sym.   atoms
    1    6 C      1-4, 6-20, 22-36, 38-45, 47, 48, 50-55
    2    7 N      5, 21, 37, 46, 49
    3    1 H      56-90

          program call               : xtb data2507/gas/2F/2F.xyz --gfn 2 --ohess vtight --parallel 40 --molden --ceasefiles --namespace data2507/gas/2F/2F_gas_S0_preOpt
          :  Hamiltonian                  GFN2-xTB          :
 * total energy  :  -139.5420903 Eh     change       -0.1035005E-08 Eh
 * total energy  :  -139.5615250 Eh     change       -0.1943471E-01 Eh
 * total energy  :  -139.5694992 Eh     change       -0.7974119E-02 Eh
 * total energy  :  -139.5721802 Eh     change       -0.2681054E-02 Eh
 * total energy  :  -139.5735932 Eh     change       -0.1413007E-02 Eh
 * total energy  :  -139.5740723 Eh     change       -0.4790618E-03 Eh
 * total energy  :  -139.5742956 Eh     change       -0.2233552E-03 Eh
 * total energy  :  -139.5744750 Eh     change       -0.1793673E-03 Eh
 * total energy  :  -139.5746660 Eh     change       -0.1909513E-03 Eh
 * total energy  :  -139.5748694 Eh     change       -0.2034698E-03 Eh
 * total energy  :  -139.5756260 Eh     change       -0.2187959E-05 Eh
 * total energy  :  -139.5756285 Eh     change       -0.2579974E-05 Eh
 * total energy  :  -139.5756318 Eh     change       -0.3222268E-05 Eh
 * total energy  :  -139.5756351 Eh     change       -0.3301741E-05 Eh
 * total energy  :  -139.5756375 Eh     change       -0.2410464E-05 Eh
 * total energy  :  -139.5756389 Eh     change       -0.1386658E-05 Eh
 * total energy  :  -139.5756397 Eh     change       -0.8734133E-06 Eh
 * total energy  :  -139.5756405 Eh     change       -0.7373699E-06 Eh
 * total energy  :  -139.5756405 Eh     change       -0.1082671E-07 Eh
   *** GEOMETRY OPTIMIZATION CONVERGED AFTER 44 ITERATIONS ***

 final structure:
================
90
 xtb: 6.7.1 (edcfbbe)
C           -6.48731552751229       -2.57151779712851        2.56249846637307
C           -6.61756251709617       -3.33997131393845        1.41730290398038
C           -5.50109061281497       -3.72755025760003        0.70272658204925
C           -4.22642559232578       -3.35763979717002        1.13279332421865
N           -3.09246120009758       -3.74953111565801        0.41549814413974
C           -3.04414283222726       -4.99898091535260       -0.20809242090120
C           -2.39253525490665       -5.15311953892708       -1.43231780862349
C           -2.33564394765875       -6.39146089381831       -2.04088064046847
C           -2.93093173700704       -7.49334070391195       -1.44898048115772
C           -3.58202557201379       -7.34600814189702       -0.23501631246887
C           -3.63668859085605       -6.11380164396164        0.38603772359263
C           -1.99409808143447       -2.88142395666208        0.31716820269798
C           -0.69322368551358       -3.40005893366043        0.39893068637745
C            0.41857753168008       -2.59141483356141        0.29482786281133
C            0.22369495236461       -1.22959003697073        0.11077489644449
C           -1.08129229434441       -0.68852964164413        0.06863285087742
C           -2.19021065198442       -1.51526647806197        0.15671841569473
C           -0.92916204931793        0.73317236366860       -0.06672870737778
C           -1.83847129647456        1.77462088939423       -0.16445622457212
C           -1.35768825314926        3.06917864019807       -0.31784195206974
N           -2.24760833600933        4.14908701439380       -0.42379539199827
C           -1.94638920439132        5.35829124930085        0.20845859335531
C           -2.28501059652176        6.57449766051836       -0.38570492144626
C           -1.98331353843948        7.76569069054264        0.24439364189730
C           -1.33301072631326        7.76898219312721        1.46769298505718
C           -0.98839160133776        6.56483411742401        2.05937227203710
C           -1.29350553872611        5.36802866234044        1.44154955691552
C           -3.43216392196166        4.00578754642722       -1.15186596410088
C           -3.46153147118779        3.22910206756521       -2.31048342023113
C           -4.63529425710749        3.08591030042492       -3.02389489852094
C           -5.79482166964162        3.71667513834991       -2.60361437582408
C           -5.77143160858713        4.49042699838452       -1.45481860362580
C           -4.60486549464806        4.63263870433130       -0.72944529826017
C            0.02402306296110        3.30268196446393       -0.38369041108686
C            0.93977102072702        2.27813239492518       -0.27147426945117
C            0.46082160997753        0.98754628419100       -0.09416118054055
N            1.14839242027151       -0.20701559359462        0.01229230815826
C            2.53788091266075       -0.35597392141468        0.01144597139154
C            3.14378663747245       -1.30573929409855       -0.80817880016991
C            4.51507521306263       -1.45559198593486       -0.80167065173419
C            5.31951222329556       -0.65252626098599        0.00548892340750
C            6.78018651278310       -0.80186655106757       -0.00073652168554
C            7.35630969877323       -2.09352342781232       -0.05818037128418
C            8.70894077055601       -2.27129702554753       -0.06565960444104
C            9.56607679602497       -1.15314151319941       -0.02118255324392
N           10.90396691540467       -1.32394562760099       -0.03255741522369
C           11.64230123098948       -0.24763957744260        0.00905410558137
C           11.08121138918183        1.04553295832820        0.06518608610948
N            9.79160732727063        1.24467110799021        0.08010196121445
C            8.99849627981997        0.15109906945181        0.03752504392430
C            7.60119484516710        0.30132538443703        0.04873930371533
C            4.70552413192633        0.30090161239061        0.81660394823276
C            3.33379209732835        0.44388966563071        0.82893788056955
C           -4.10150179099563       -2.58524090708429        2.28792820933716
C           -5.22468940023390       -2.19501325552138        2.99028465847515
H           -7.36256787773099       -2.26794682805822        3.11653116274668
H           -7.59805791380293       -3.63323801834380        1.07154274041093
H           -5.60787145971053       -4.31682676627927       -0.19630200936672
H           -1.93609837675374       -4.29374856499960       -1.90148354310541
H           -1.82970403808256       -6.49501778956903       -2.98978757701284
H           -2.88752799762852       -8.45899993024826       -1.92938668570459
H           -4.04387379105082       -8.20044593894104        0.23780126925842
H           -4.13491951227845       -6.00556313262771        1.33837303964980
H           -0.56776667631158       -4.46158553013502        0.55227978506655
H            1.40914023515588       -3.01127334669699        0.37946856616278
H           -3.18792543287286       -1.10635888949643        0.10933872223713
H           -2.90032350623132        1.58457446913957       -0.12908337015222
H           -2.78175939819548        6.57620066499450       -1.34494808339374
H           -2.25018491226345        8.69958721940177       -0.22839662988007
H           -1.09639896067510        8.70237673088987        1.95548784825508
H           -0.48532110169073        6.55679739421655        3.01537180484763
H           -1.03263170398352        4.43043051030611        1.91039882108846
H           -2.55715046370621        2.74345148301365       -2.64685532873915
H           -4.64213489547804        2.48363662737997       -3.92066817061824
H           -6.70931228961258        3.60558402424659       -3.16624278660683
H           -6.67182117827253        4.98094415961983       -1.11477909586618
H           -4.59368965607377        5.22749939340957        0.17217341758053
H            0.37164763864692        4.31437209150710       -0.53097753884192
H            1.99722889702307        2.48060450339636       -0.34434204002700
H            2.53382130451755       -1.90971462982517       -1.46290262115953
H            4.97191672539993       -2.18101378275197       -1.45849372184248
H            6.70096186054329       -2.95205134981488       -0.07419603830749
H            9.15382551337736       -3.25357699458917       -0.10244031972601
H           12.71441353369566       -0.39302489264251       -0.00099136379665
H           11.70899155668024        1.92632881586948        0.09922125731946
H            7.20019316500029        1.30277173575278        0.07357213216482
H            5.31097127147498        0.91408999536005        1.46717587065991
H            2.86753417205133        1.16291316705520        1.48544177670820
H           -3.11815495652696       -2.29767970984792        2.63032047862150
H           -5.11209350147915       -1.59908062767071        3.88423892324042

          :  Hamiltonian                  GFN2-xTB          :
         :: gradient norm              0.000069462260 Eh/a0 ::
         :: HOMO-LUMO gap              1.110997919693 eV    ::
         :: SCC energy              -142.163885245908 Eh    ::
         :: -> dispersion             -0.125310538811 Eh    ::
         :: repulsion energy           2.588244758335 Eh    ::

    * Orbital Energies and Occupations

         #    Occupation            Energy/Eh            Energy/eV
      -------------------------------------------------------------
         1        2.0000           -0.6798416             -18.4994
       ...           ...                  ...                  ...
       118        2.0000           -0.4086597             -11.1202
       119        2.0000           -0.4041594             -10.9977
       120        2.0000           -0.4038605             -10.9896
       121        2.0000           -0.4027228             -10.9586
       122        2.0000           -0.4024268             -10.9506
       123        2.0000           -0.4017116             -10.9311
       124        2.0000           -0.4008641             -10.9081
       125        2.0000           -0.4004794             -10.8976
       126        2.0000           -0.3840749             -10.4512
       127        2.0000           -0.3761675             -10.2360
       128        2.0000           -0.3561021              -9.6900
       129        2.0000           -0.3467272              -9.4349
       130        2.0000           -0.3389688              -9.2238 (HOMO)
       131                         -0.2981404              -8.1128 (LUMO)
       132                         -0.2618942              -7.1265
       133                         -0.2487849              -6.7698
       134                         -0.2375491              -6.4640
       135                         -0.2338131              -6.3624
       136                         -0.2301808              -6.2635
       137                         -0.2269576              -6.1758
       138                         -0.2266619              -6.1678
       139                         -0.2219828              -6.0405
       140                         -0.2214421              -6.0257
       141                         -0.2182599              -5.9392
       ...                                ...                  ...
       255                          0.7418633              20.1871
      -------------------------------------------------------------
                  HL-Gap            0.0408284 Eh            1.1110 eV

     #   Z          covCN         q      C6AA      α(0)
     1   6 C        2.919    -0.039    28.980     8.828
     2   6 C        2.919    -0.030    28.740     8.791
     3   6 C        2.922    -0.049    29.206     8.862
     4   6 C        2.923     0.065    26.543     8.449
     5   7 N        2.753    -0.077    22.731     7.081
     6   6 C        2.924     0.065    26.541     8.448
     7   6 C        2.923    -0.049    29.214     8.864
     8   6 C        2.919    -0.030    28.746     8.792
     9   6 C        2.919    -0.040    28.988     8.829
    10   6 C        2.919    -0.030    28.741     8.791
    11   6 C        2.922    -0.049    29.209     8.863
    12   6 C        2.924     0.056    26.749     8.482
    13   6 C        2.926    -0.050    29.230     8.866
    14   6 C        2.909    -0.051    29.258     8.869
    15   6 C        3.075     0.040    27.032     8.524
    16   6 C        3.067    -0.016    28.340     8.729
    17   6 C        2.915    -0.051    29.272     8.872
    18   6 C        3.067    -0.016    28.341     8.729
    19   6 C        2.915    -0.051    29.273     8.872
    20   6 C        2.924     0.056    26.747     8.481
    21   7 N        2.753    -0.077    22.732     7.081
    22   6 C        2.924     0.065    26.541     8.449
    23   6 C        2.922    -0.049    29.206     8.862
    24   6 C        2.919    -0.030    28.740     8.791
    25   6 C        2.919    -0.040    28.985     8.829
    26   6 C        2.919    -0.030    28.744     8.792
    27   6 C        2.923    -0.049    29.213     8.863
    28   6 C        2.923     0.065    26.542     8.449
    29   6 C        2.923    -0.049    29.207     8.863
    30   6 C        2.920    -0.030    28.739     8.791
    31   6 C        2.919    -0.039    28.981     8.828
    32   6 C        2.919    -0.030    28.740     8.791
    33   6 C        2.922    -0.049    29.206     8.862
    34   6 C        2.927    -0.049    29.226     8.866
    35   6 C        2.909    -0.051    29.256     8.869
    36   6 C        3.075     0.040    27.031     8.524
    37   7 N        2.801    -0.040    22.015     6.969
    38   6 C        2.913     0.064    26.562     8.451
    39   6 C        2.921    -0.044    29.090     8.845
    40   6 C        2.924    -0.032    28.805     8.801
    41   6 C        2.977     0.006    27.873     8.660
    42   6 C        2.974     0.015    27.672     8.629
    43   6 C        2.921    -0.031    28.772     8.796
    44   6 C        2.914    -0.039    28.966     8.825
    45   6 C        2.978     0.081    26.192     8.395
    46   7 N        1.841    -0.216    26.542     7.635
    47   6 C        2.903     0.055    26.770     8.484
    48   6 C        2.901     0.056    26.740     8.479
    49   7 N        1.842    -0.218    26.585     7.641
    50   6 C        2.975     0.081    26.185     8.394
    51   6 C        2.923    -0.046    29.131     8.851
    52   6 C        2.924    -0.032    28.805     8.801
    53   6 C        2.920    -0.043    29.077     8.843
    54   6 C        2.923    -0.049    29.208     8.863
    55   6 C        2.920    -0.030    28.738     8.791
    56   1 H        0.926     0.029     2.605     2.524
    57   1 H        0.926     0.030     2.584     2.514
    58   1 H        0.926     0.031     2.573     2.508
    59   1 H        0.926     0.030     2.593     2.518
    60   1 H        0.926     0.029     2.595     2.519
    61   1 H        0.926     0.028     2.608     2.525
    62   1 H        0.926     0.030     2.585     2.514
    63   1 H        0.926     0.031     2.572     2.508
    64   1 H        0.926     0.035     2.523     2.484
    65   1 H        0.926     0.032     2.565     2.504
    66   1 H        0.926     0.036     2.502     2.474
    67   1 H        0.926     0.036     2.503     2.474
    68   1 H        0.926     0.031     2.572     2.508
    69   1 H        0.926     0.030     2.585     2.514
    70   1 H        0.926     0.029     2.606     2.525
    71   1 H        0.926     0.030     2.592     2.518
    72   1 H        0.926     0.030     2.593     2.518
    73   1 H        0.926     0.030     2.588     2.516
    74   1 H        0.926     0.030     2.588     2.516
    75   1 H        0.926     0.029     2.606     2.524
    76   1 H        0.926     0.030     2.585     2.514
    77   1 H        0.926     0.031     2.573     2.508
    78   1 H        0.926     0.035     2.517     2.481
    79   1 H        0.926     0.032     2.553     2.499
    80   1 H        0.926     0.043     2.411     2.428
    81   1 H        0.926     0.039     2.460     2.453
    82   1 H        0.926     0.044     2.397     2.421
    83   1 H        0.926     0.056     2.243     2.342
    84   1 H        0.925     0.039     2.456     2.451
    85   1 H        0.925     0.039     2.456     2.451
    86   1 H        0.926     0.056     2.248     2.345
    87   1 H        0.926     0.041     2.429     2.437
    88   1 H        0.926     0.044     2.401     2.423
    89   1 H        0.926     0.030     2.588     2.516
    90   1 H        0.926     0.030     2.587     2.515

molecular dipole:
                 x           y           z       tot (Debye)
 q only:       -0.010      -0.186       0.006
   full:        0.162      -0.164       0.003       0.586

 projected vibrational frequencies (cm⁻¹)
eigval :       -0.00    -0.00    -0.00    -0.00     0.00     0.00
eigval :       10.48    12.84    13.08    14.06    22.25    24.61
eigval :       36.73    36.92    40.75    48.89    56.70    58.51
eigval :       61.54    65.91    80.30    81.58    85.05    85.76
eigval :       95.18   123.11   132.90   135.75   144.38   158.01
eigval :      189.01   198.23   201.58   217.84   225.01   232.29
eigval :      247.71   256.36   261.14   282.54   309.41   315.52
eigval :      319.76   326.54   339.14   348.23   358.83   367.07
eigval :      377.91   377.98   383.59   384.38   385.63   387.48
eigval :      390.73   403.01   415.09   428.77   435.02   448.26
eigval :      450.16   457.89   472.97   489.38   489.93   496.06
eigval :      506.60   522.74   531.83   546.03   556.09   567.42
eigval :      575.12   582.49   585.34   587.74   588.35   590.22
eigval :      594.81   597.45   609.26   628.95   629.39   636.42
eigval :      644.40   658.85   660.48   664.14   666.59   676.22
eigval :      690.60   692.59   702.61   710.25   739.41   755.92
eigval :      756.11   757.79   760.12   761.95   791.24   802.88
eigval :      803.52   817.28   821.08   827.93   854.97   869.49
eigval :      872.97   873.50   873.94   874.30   875.97   877.20
eigval :      879.32   881.29   883.77   889.73   889.76   892.41
eigval :      893.15   908.14   909.18   909.61   910.66   911.04
eigval :      923.39   924.26   926.73   926.74   927.66   927.71
eigval :      927.87   927.91   929.13   930.17   930.25   935.65
eigval :      944.01   948.99   971.29   990.15  1003.81  1004.82
eigval :     1013.07  1013.69  1036.71  1065.81  1079.87  1083.54
eigval :     1083.56  1084.49  1084.52  1122.16  1122.24  1124.12
eigval :     1124.59  1130.20  1136.94  1142.63  1156.35  1169.71
eigval :     1179.67  1180.81  1180.87  1180.92  1180.93  1183.12
eigval :     1183.94  1196.17  1196.27  1200.18  1201.24  1201.62
eigval :     1205.48  1229.19  1230.68  1242.51  1254.30  1267.10
eigval :     1271.44  1276.33  1278.78  1279.67  1284.51  1288.95
eigval :     1300.23  1314.11  1315.51  1319.71  1320.55  1324.62
eigval :     1328.12  1328.42  1328.55  1331.06  1332.51  1349.74
eigval :     1353.78  1364.59  1386.02  1404.16  1413.42  1420.28
eigval :     1431.39  1435.38  1436.23  1441.50  1444.26  1445.23
eigval :     1469.41  1473.12  1473.59  1476.73  1478.77  1485.46
eigval :     1488.99  1501.77  1542.85  1554.20  1557.55  1564.90
eigval :     1572.33  1576.27  1578.08  1580.58  1580.66  1591.26
eigval :     1595.67  1595.74  1599.05  1600.86  1601.90  1605.75
eigval :     1616.16  3050.13  3058.43  3074.05  3074.21  3074.59
eigval :     3074.67  3075.47  3075.50  3076.04  3076.07  3081.12
eigval :     3084.43  3084.91  3085.13  3085.43  3085.64  3086.07
eigval :     3086.30  3086.81  3087.96  3088.16  3089.04  3089.09
eigval :     3093.72  3095.90  3096.32  3096.35  3096.54  3096.80
eigval :     3096.90  3097.35  3097.52  3098.31  3099.82  3101.21

   temp. (K)  partition function   enthalpy   heat capacity  entropy
                                   cal/mol     cal/K/mol   cal/K/mol   J/K/mol
 298.15  VIB  0.766E+21            25738.484    161.591    161.537
         ROT  0.185E+09              888.752      2.981     40.807
         INT  0.141E+30            26627.236    164.572    202.344
         TR   0.181E+29             1481.254      4.968     45.522
         TOT                       28108.4903   169.5402   247.8666  1037.0740

       T/K    H(0)-H(T)+PV         H(T)/Eh          T*S/Eh         G(T)/Eh
   ------------------------------------------------------------------------
    298.15    0.447937E-01    0.738270E+00    0.117769E+00    0.620500E+00
   ------------------------------------------------------------------------

         :::::::::::::::::::::::::::::::::::::::::::::::::::::
         ::                  THERMODYNAMIC                  ::
         :::::::::::::::::::::::::::::::::::::::::::::::::::::
         :: total free energy        -138.955140326493 Eh   ::
         ::.................................................::
         :: total energy             -139.575640487572 Eh   ::
         :: zero point energy           0.693475862193 Eh   ::
         :: G(RRHO) w/o ZPVE           -0.072975701114 Eh   ::
         :: G(RRHO) contrib.            0.620500161079 Eh   ::
         :::::::::::::::::::::::::::::::::::::::::::::::::::::

           -------------------------------------------------
          | TOTAL ENERGY             -139.575640487572 Eh   |
          | TOTAL ENTHALPY           -138.837370894810 Eh   |
          | TOTAL FREE ENERGY        -138.955140326493 Eh   |
          | GRADIENT NORM               0.000069465697 Eh/α |
          | HOMO-LUMO GAP               1.110997146287 eV   |
           -------------------------------------------------

 * finished run on 2025/09/04 at 05:43:38.972
