   * xtb version 6.7.1 (edcfbbe) compiled by 'albert@albert-system' on 2024-07-22

   ID    Z sym.   atoms
    1    6 C      1-5, 7-10, 12-25, 27-39, 41-44, 46-59, 61-73, 75, 76
    2    7 N      6, 11, 26, 40, 45, 60, 74
    3    1 H      77-119

          program call               : xtb data2507/toluene/DDCzTrz/DDCzTrz_toluene_T1_crest.xyz --gfn 2 --uhf 2 --gbsa toluene --ohess vtight --parallel 40 --molden --ceasefiles --namespace data2507/toluene/DDCzTrz/DDCzTrz_toluene_T1_finalOpt
      * Solvation model:               GBSA
        Solvent                        toluene
        Solvent mass                       9.2140E+01 g/mol
          :  Hamiltonian                  GFN2-xTB          :
 * total energy  :  -190.3295340 Eh     change       -0.3556835E-07 Eh
 * total energy  :  -190.3296944 Eh     change       -0.1604118E-03 Eh
 * total energy  :  -190.3297987 Eh     change       -0.1042866E-03 Eh
 * total energy  :  -190.3298321 Eh     change       -0.3342480E-04 Eh
 * total energy  :  -190.3298691 Eh     change       -0.3696539E-04 Eh
 * total energy  :  -190.3299109 Eh     change       -0.4180022E-04 Eh
 * total energy  :  -190.3299664 Eh     change       -0.5549581E-04 Eh
 * total energy  :  -190.3300078 Eh     change       -0.4139958E-04 Eh
 * total energy  :  -190.3300452 Eh     change       -0.3744012E-04 Eh
 * total energy  :  -190.3300783 Eh     change       -0.3313947E-04 Eh
 * total energy  :  -190.3301908 Eh     change       -0.1295931E-05 Eh
 * total energy  :  -190.3301919 Eh     change       -0.1156432E-05 Eh
 * total energy  :  -190.3301931 Eh     change       -0.1151716E-05 Eh
 * total energy  :  -190.3301944 Eh     change       -0.1313236E-05 Eh
 * total energy  :  -190.3301960 Eh     change       -0.1564666E-05 Eh
 * total energy  :  -190.3301978 Eh     change       -0.1792811E-05 Eh
 * total energy  :  -190.3301995 Eh     change       -0.1695056E-05 Eh
 * total energy  :  -190.3301995 Eh     change        0.3448349E-08 Eh
 * total energy  :  -190.3301995 Eh     change       -0.1500584E-07 Eh
   *** GEOMETRY OPTIMIZATION CONVERGED AFTER 45 ITERATIONS ***

 final structure:
================
119
 xtb: 6.7.1 (edcfbbe)
C           -0.02666591385395       -7.96359828967902        0.04695664591476
C           -1.22284884916373       -7.26551642223602        0.11110031323674
C           -1.22060240373931       -5.88373953502745        0.09970887305318
C           -0.01736103666367       -5.18535617461027        0.02555211387061
C           -0.01226939942489       -3.71671371033389        0.01528618944812
N           -1.18448369001792       -3.10060890942394        0.03172029187011
C           -1.14531499165813       -1.73501423164382        0.00319662562379
C           -2.35680564459818       -0.96414023966077        0.00257772854667
C           -3.62046599555240       -1.55375150659381        0.14434497668529
C           -4.75171532898213       -0.75708224412482        0.21220899845404
N           -6.01043654949200       -1.35367722132050        0.39058974584332
C           -7.13566209677350       -1.11776875854318       -0.37143408582359
C           -7.28685514443999       -0.32535810243578       -1.50095131873460
C           -8.53260720513989       -0.27853682492800       -2.09769228195524
C           -9.60542968743040       -1.01049512061288       -1.59383905213103
C           -9.45403141978617       -1.82635822633075       -0.48728325710171
C           -8.21199627429063       -1.88801736596466        0.12831337021113
C           -7.69607211278756       -2.62607492354415        1.25026859359978
C           -8.25932545669835       -3.52981740279702        2.13969854270801
C           -7.46277457743051       -4.05952517825434        3.13852867156501
C           -6.12603058916599       -3.68739667637852        3.26332907181836
C           -5.54341540708773       -2.78680178748785        2.39102790735864
C           -6.33214351146305       -2.26877760212868        1.37206640150934
C           -4.65781608013965        0.63454274557587        0.13589828179857
C           -3.40218546933983        1.22314398440564       -0.03919557361890
N           -3.26184816907608        2.61734964168181       -0.10042599387147
C           -4.00665149715550        3.49015680954658       -0.86870088320595
C           -5.03805039107954        3.23047125311607       -1.76087372121728
C           -5.60577972470406        4.30014092926487       -2.42761862781382
C           -5.15622916289175        5.60273102264505       -2.22554386617665
C           -4.11037930666541        5.86664761977243       -1.36007155633293
C           -3.52678355377586        4.80793429319009       -0.67945159743099
C           -2.43326087112989        4.71470751486650        0.24992271336282
C           -1.58273209985293        5.65265577910190        0.81602462881867
C           -0.61518005475685        5.21965677428570        1.70342222987659
C           -0.50778579887819        3.87381340915360        2.04221737950629
C           -1.35045884208618        2.92265046183505        1.49783529064128
C           -2.30249285560588        3.34547886450684        0.57884559720584
C           -2.27212929219262        0.43144039565308       -0.12165024724533
N           -0.00275950312912       -1.06663713732361        0.00250527330191
C            1.13466125381863       -1.74320316542506        0.00642663488292
C            2.35145665148951       -0.98014677060634       -0.00085456214198
C            2.27596921830168        0.41587283529430        0.12312859256861
C            3.41037928529595        1.20063390793376        0.03442770384798
N            3.27899753894418        2.59560352802739        0.09805862629025
C            4.03162400929417        3.46237332061505        0.86547100877345
C            5.06509821838354        3.19457621491995        1.75279829137947
C            5.64130037167501        4.25929651785898        2.42017092693693
C            5.19802520160542        5.56484300079500        2.22334308370677
C            4.15042272034549        5.83686771468759        1.36250129761125
C            3.55836764854093        4.78324472225371        0.68125968591093
C            2.46088935925512        4.69834016498667       -0.24428602012438
C            1.61371651615028        5.64225799406910       -0.80550245854481
C            0.64075128481088        5.21658942112489       -1.69052023002675
C            0.52419896698055        3.87203633584909       -2.03145560109241
C            1.36314295146375        2.91493361872683       -1.49178305736698
C            2.32106455537338        3.33060204347390       -0.57568020704236
C            4.66117912252729        0.60441530679231       -0.14866226513192
C            4.74606689255775       -0.78769594210748       -0.22604778581017
N            6.00009337803587       -1.39161551681995       -0.41279038831633
C            7.13107425560200       -1.16280428384783        0.34282174816102
C            7.29299806681303       -0.37291704085183        1.47261526932124
C            8.54245600795935       -0.33345681494469        2.06205666706121
C            9.60843990456665       -1.07021498633367        1.55074032880869
C            9.44635804118613       -1.88345906545277        0.44377654875005
C            8.20040511561350       -1.93774677873796       -0.16458347959541
C            7.67397788163296       -2.67115839334571       -1.28470764311941
C            8.22733455121771       -3.57600757169144       -2.17921731422973
C            7.42215311436316       -4.09991381240377       -3.17416471840726
C            6.08650378060766       -3.72103958979341       -3.29010029759426
C            5.51367827386225       -2.81914828521668       -2.41265029123327
C            6.31115298827525       -2.30675453091963       -1.39767998800295
C            3.61042158389990       -1.57750213030184       -0.15063563120007
N            1.16459046312530       -3.10912132844339       -0.00911211025293
C            1.18115435423114       -5.89283231325009       -0.03797049077900
C            1.17415524063185       -7.27460470651548       -0.02783407402828
H           -0.03027852028083       -9.04368421505697        0.05529165976266
H           -2.15927317904247       -7.80090236061774        0.16982365304839
H           -2.14260520278832       -5.32438670357444        0.14819419629052
H           -3.69655255206234       -2.62811509366350        0.19249909610886
H           -6.45235618949641        0.22231304675761       -1.90996965179653
H           -8.67540259864089        0.33406597429484       -2.97556807254976
H          -10.56515932884654       -0.94640658746608       -2.08460152339478
H          -10.28113449554964       -2.40897797936858       -0.11111577377724
H           -9.29804804332647       -3.81002427191085        2.05245324812125
H           -7.88141158713841       -4.76680638531030        3.83894186562302
H           -5.53123030563023       -4.10884111529274        4.06038022284351
H           -4.51037442078508       -2.49353917617905        2.50239219046600
H           -5.53962970816305        1.24395605520892        0.25240601168069
H           -5.38060547781101        2.22439658187763       -1.94095390959136
H           -6.41291490626362        4.12022626424125       -3.12219227404283
H           -5.62663531948268        6.41336140816655       -2.76185482233937
H           -3.75011433039254        6.87399131608646       -1.21709808550350
H           -1.67890111978846        6.69857304978290        0.56876978539020
H            0.06138431979562        5.93138055625035        2.15138211408278
H            0.24641577739406        3.56479144558690        2.75121953813627
H           -1.27326172427052        1.88624471778832        1.78964013850921
H           -1.30490399406241        0.87423004095878       -0.29306096184118
H            1.31250396092807        0.86471216336327        0.29994350911609
H            5.40269432467453        2.18607428151090        1.92869754754834
H            6.45018915515265        4.07310919659526        3.11104247610253
H            5.67476185690206        6.37144746693739        2.76013506195448
H            3.79525875708670        6.84659946443663        1.22367935192573
H            1.71663559807400        6.68709979021901       -0.55643343901443
H           -0.03307666197289        5.93313586138368       -2.13485927009368
H           -0.23419069025558        3.56881614317315       -2.73848416050780
H            1.27874266150361        1.87943816990400       -1.78487267401833
H            5.54600914278029        1.20850112031651       -0.27007551290820
H            6.46376225988129        0.17848205428426        1.88731561954311
H            8.69361126044352        0.27703358853260        2.94000427889730
H           10.57133293218307       -1.01190955811830        2.03599436243552
H           10.26832651484095       -2.46958746196130        0.06182941232256
H            9.26517419436234       -3.86148849201852       -2.09882048660975
H            7.83311289692042       -4.80788931671633       -3.87841608027798
H            5.48481932977133       -4.13812922976232       -4.08427150444356
H            4.48141249563082       -2.52067533946576       -2.51716554093360
H            3.67979429225491       -2.65229064241853       -0.19955875949865
H            2.10683211123784       -5.34039224288345       -0.09478973109409
H            2.10698837992772       -7.81709100901940       -0.07812034920695

          :  Hamiltonian                  GFN2-xTB          :
         :: gradient norm              0.000072813602 Eh/a0 ::
         :: HOMO-LUMO gap              0.187521735444 eV    ::
         :: SCC energy              -193.854030982356 Eh    ::
         :: -> dispersion             -0.184949606902 Eh    ::
         :: -> Gsolv                  -0.079967488891 Eh    ::
         :: repulsion energy           3.523831514464 Eh    ::

    * Orbital Energies and Occupations

         #    Occupation            Energy/Eh            Energy/eV
      -------------------------------------------------------------
         1        2.0000           -0.6846388             -18.6300
       ...           ...                  ...                  ...
       166        2.0000           -0.4053719             -11.0307
       167        2.0000           -0.4044504             -11.0057
       168        2.0000           -0.3869808             -10.5303
       169        2.0000           -0.3859785             -10.5030
       170        2.0000           -0.3859692             -10.5028
       171        2.0000           -0.3849505             -10.4750
       172        1.9950           -0.3723092             -10.1311
       173        1.9924           -0.3719105             -10.1202
       174        1.9321           -0.3697742             -10.0621
       175        1.7521           -0.3683404             -10.0231
       176        1.6664           -0.3679435             -10.0123
       177        1.6621           -0.3679250             -10.0117
       178        0.9741           -0.2870325              -7.8106 (HOMO)
       179        0.0259           -0.2801413              -7.6230 (LUMO)
       180                         -0.2533957              -6.8952
       181                         -0.2528024              -6.8791
       182                         -0.2522853              -6.8650
       183                         -0.2519586              -6.8561
       184                         -0.2474059              -6.7323
       185                         -0.2391702              -6.5082
       186                         -0.2389485              -6.5021
       187                         -0.2306597              -6.2766
       188                         -0.2295136              -6.2454
       189                         -0.2295006              -6.2450
       ...                                ...                  ...
       347                          0.7385975              20.0983
      -------------------------------------------------------------
                  HL-Gap            0.0068912 Eh            0.1875 eV

     #   Z          covCN         q      C6AA      α(0)
     1   6 C        2.920    -0.027    28.664     8.780
     2   6 C        2.918    -0.030    28.740     8.791
     3   6 C        2.924    -0.028    28.711     8.787
     4   6 C        2.984    -0.008    28.219     8.714
     5   6 C        2.940     0.220    23.369     7.928
     6   7 N        1.841    -0.340    29.686     8.075
     7   6 C        2.946     0.185    24.042     8.042
     8   6 C        2.981    -0.013    28.325     8.730
     9   6 C        2.922    -0.051    29.265     8.871
    10   6 C        2.909     0.062    26.609     8.458
    11   7 N        2.803    -0.031    21.835     6.940
    12   6 C        3.075     0.048    26.855     8.497
    13   6 C        2.910    -0.046    29.145     8.852
    14   6 C        2.923    -0.032    28.809     8.802
    15   6 C        2.920    -0.037    28.930     8.820
    16   6 C        2.912    -0.031    28.780     8.797
    17   6 C        3.066    -0.015    28.310     8.725
    18   6 C        3.067    -0.015    28.307     8.724
    19   6 C        2.912    -0.032    28.788     8.798
    20   6 C        2.920    -0.037    28.927     8.820
    21   6 C        2.923    -0.032    28.809     8.802
    22   6 C        2.909    -0.046    29.142     8.852
    23   6 C        3.075     0.048    26.848     8.495
    24   6 C        2.922    -0.071    29.776     8.948
    25   6 C        2.907     0.062    26.613     8.459
    26   7 N        2.802    -0.029    21.801     6.935
    27   6 C        3.071     0.048    26.862     8.498
    28   6 C        2.910    -0.047    29.157     8.854
    29   6 C        2.923    -0.033    28.810     8.802
    30   6 C        2.920    -0.037    28.922     8.819
    31   6 C        2.912    -0.031    28.775     8.796
    32   6 C        3.066    -0.013    28.281     8.720
    33   6 C        3.066    -0.014    28.286     8.721
    34   6 C        2.912    -0.030    28.753     8.793
    35   6 C        2.920    -0.036    28.887     8.814
    36   6 C        2.923    -0.032    28.800     8.801
    37   6 C        2.910    -0.046    29.143     8.852
    38   6 C        3.073     0.047    26.860     8.498
    39   6 C        2.930    -0.052    29.304     8.878
    40   7 N        1.854    -0.297    28.557     7.920
    41   6 C        2.946     0.186    24.037     8.041
    42   6 C        2.981    -0.013    28.322     8.730
    43   6 C        2.930    -0.052    29.301     8.877
    44   6 C        2.907     0.062    26.612     8.459
    45   7 N        2.802    -0.029    21.803     6.935
    46   6 C        3.071     0.048    26.862     8.498
    47   6 C        2.910    -0.047    29.158     8.854
    48   6 C        2.923    -0.033    28.810     8.802
    49   6 C        2.920    -0.037    28.923     8.819
    50   6 C        2.912    -0.031    28.776     8.796
    51   6 C        3.066    -0.014    28.282     8.720
    52   6 C        3.066    -0.014    28.287     8.721
    53   6 C        2.912    -0.030    28.754     8.793
    54   6 C        2.920    -0.036    28.887     8.814
    55   6 C        2.923    -0.032    28.800     8.801
    56   6 C        2.910    -0.046    29.144     8.852
    57   6 C        3.073     0.047    26.860     8.498
    58   6 C        2.922    -0.071    29.772     8.948
    59   6 C        2.909     0.062    26.608     8.458
    60   7 N        2.803    -0.031    21.837     6.940
    61   6 C        3.076     0.048    26.855     8.497
    62   6 C        2.910    -0.046    29.146     8.853
    63   6 C        2.923    -0.032    28.809     8.802
    64   6 C        2.920    -0.037    28.931     8.820
    65   6 C        2.912    -0.031    28.781     8.797
    66   6 C        3.066    -0.015    28.310     8.725
    67   6 C        3.067    -0.015    28.307     8.724
    68   6 C        2.912    -0.032    28.788     8.798
    69   6 C        2.920    -0.037    28.928     8.820
    70   6 C        2.923    -0.032    28.809     8.802
    71   6 C        2.909    -0.046    29.142     8.852
    72   6 C        3.075     0.048    26.848     8.495
    73   6 C        2.922    -0.051    29.263     8.871
    74   7 N        1.841    -0.341    29.695     8.076
    75   6 C        2.924    -0.028    28.711     8.787
    76   6 C        2.918    -0.030    28.740     8.791
    77   1 H        0.926     0.044     2.391     2.418
    78   1 H        0.926     0.042     2.423     2.434
    79   1 H        0.926     0.044     2.396     2.421
    80   1 H        0.926     0.048     2.344     2.394
    81   1 H        0.926     0.032     2.554     2.499
    82   1 H        0.926     0.038     2.474     2.460
    83   1 H        0.926     0.037     2.488     2.467
    84   1 H        0.926     0.039     2.459     2.452
    85   1 H        0.926     0.040     2.445     2.445
    86   1 H        0.926     0.037     2.486     2.466
    87   1 H        0.926     0.035     2.511     2.478
    88   1 H        0.926     0.031     2.577     2.510
    89   1 H        0.926     0.049     2.327     2.386
    90   1 H        0.926     0.035     2.521     2.483
    91   1 H        0.926     0.038     2.474     2.459
    92   1 H        0.926     0.037     2.484     2.465
    93   1 H        0.926     0.040     2.445     2.445
    94   1 H        0.926     0.043     2.410     2.427
    95   1 H        0.926     0.039     2.467     2.456
    96   1 H        0.926     0.033     2.548     2.496
    97   1 H        0.926     0.031     2.569     2.507
    98   1 H        0.926     0.052     2.294     2.368
    99   1 H        0.926     0.052     2.294     2.368
   100   1 H        0.926     0.035     2.521     2.483
   101   1 H        0.926     0.038     2.474     2.460
   102   1 H        0.926     0.037     2.484     2.465
   103   1 H        0.926     0.040     2.445     2.445
   104   1 H        0.926     0.043     2.410     2.428
   105   1 H        0.926     0.039     2.467     2.456
   106   1 H        0.926     0.033     2.549     2.497
   107   1 H        0.926     0.031     2.569     2.507
   108   1 H        0.926     0.049     2.326     2.385
   109   1 H        0.926     0.032     2.555     2.500
   110   1 H        0.926     0.038     2.474     2.460
   111   1 H        0.926     0.037     2.488     2.467
   112   1 H        0.926     0.039     2.459     2.452
   113   1 H        0.926     0.040     2.445     2.445
   114   1 H        0.926     0.037     2.487     2.466
   115   1 H        0.926     0.035     2.511     2.478
   116   1 H        0.926     0.031     2.578     2.511
   117   1 H        0.926     0.048     2.344     2.394
   118   1 H        0.926     0.044     2.395     2.420
   119   1 H        0.926     0.042     2.423     2.434

molecular dipole:
                 x           y           z       tot (Debye)
 q only:        0.001       1.665      -0.004
   full:        0.000       1.408      -0.004       3.578

 projected vibrational frequencies (cm⁻¹)
eigval :       -0.00    -0.00     0.00     0.00     0.00     0.00
eigval :        6.93    12.21    13.90    15.83    18.38    20.66
eigval :       21.00    22.10    26.22    30.19    31.55    36.29
eigval :       40.34    54.12    57.14    57.78    64.85    68.63
eigval :       88.28    92.91   101.51   103.36   105.47   105.94
eigval :      117.93   120.85   135.09   136.10   139.75   140.72
eigval :      145.74   146.81   155.55   166.86   190.16   192.86
eigval :      204.10   215.83   217.61   225.57   231.36   249.68
eigval :      254.10   258.11   258.31   271.24   272.40   273.35
eigval :      273.96   280.24   289.85   307.55   309.48   324.35
eigval :      339.42   363.16   365.70   365.92   376.54   379.27
eigval :      391.82   393.26   395.46   395.90   413.76   419.85
eigval :      420.37   422.54   422.60   431.00   434.42   434.94
eigval :      435.12   436.23   450.30   466.69   506.96   508.81
eigval :      509.78   516.53   516.95   517.05   517.20   533.84
eigval :      537.44   537.56   537.88   539.43   539.47   545.36
eigval :      561.84   566.76   570.05   573.13   576.63   585.40
eigval :      586.19   586.99   588.95   590.20   594.21   619.29
eigval :      619.69   620.52   636.43   641.18   641.88   644.98
eigval :      653.92   655.81   664.79   667.25   673.57   673.87
eigval :      674.40   674.48   703.29   708.70   708.91   709.35
eigval :      709.54   717.85   747.52   747.70   754.75   755.62
eigval :      766.35   766.87   767.86   767.93   768.45   769.79
eigval :      770.34   777.61   779.24   780.01   780.30   814.78
eigval :      816.04   818.26   830.75   848.00   850.88   861.91
eigval :      862.21   863.09   865.23   866.21   874.41   874.70
eigval :      875.20   876.74   880.69   885.85   892.70   894.24
eigval :      894.31   898.13   898.20   900.19   900.61   903.74
eigval :      903.90   904.80   905.62   906.01   907.16   908.17
eigval :      919.95   920.51   923.12   923.22   925.12   925.42
eigval :      925.57   928.23   928.36   928.74   930.51   977.02
eigval :      987.13   990.67   992.47  1002.37  1010.38  1010.47
eigval :     1011.80  1015.20  1027.79  1028.91  1064.66  1064.78
eigval :     1068.03  1068.32  1070.16  1070.37  1072.33  1072.80
eigval :     1075.06  1088.02  1107.30  1109.59  1112.89  1115.84
eigval :     1117.76  1124.61  1142.11  1142.29  1146.40  1146.79
eigval :     1152.28  1159.86  1160.29  1174.87  1175.12  1175.47
eigval :     1176.20  1176.95  1178.12  1179.05  1179.17  1179.50
eigval :     1186.09  1193.05  1201.85  1212.35  1215.31  1226.46
eigval :     1226.52  1230.19  1230.55  1232.25  1232.45  1234.12
eigval :     1234.67  1245.85  1267.00  1281.43  1286.41  1288.83
eigval :     1289.20  1290.38  1292.10  1292.19  1293.95  1300.52
eigval :     1321.62  1324.10  1326.52  1327.66  1333.73  1342.58
eigval :     1345.55  1347.42  1347.47  1348.57  1352.40  1355.36
eigval :     1355.78  1355.95  1357.33  1360.17  1387.48  1396.18
eigval :     1409.65  1410.71  1413.64  1414.57  1415.25  1415.96
eigval :     1421.96  1434.08  1435.37  1437.06  1441.19  1442.15
eigval :     1459.81  1464.89  1464.93  1465.14  1466.67  1471.48
eigval :     1482.25  1482.32  1482.71  1482.78  1509.06  1511.18
eigval :     1535.12  1558.09  1566.34  1566.40  1567.14  1568.00
eigval :     1580.50  1580.85  1581.58  1583.23  1583.80  1584.13
eigval :     1584.24  1584.55  1584.66  1591.17  1599.06  1601.53
eigval :     1602.35  1607.24  3072.88  3075.86  3076.02  3076.43
eigval :     3076.45  3076.65  3078.03  3078.13  3078.67  3078.76
eigval :     3081.88  3081.91  3084.35  3084.38  3085.04  3085.18
eigval :     3086.13  3086.42  3086.97  3089.02  3089.05  3090.36
eigval :     3090.80  3092.44  3092.55  3094.25  3094.35  3094.70
eigval :     3095.33  3095.42  3097.24  3097.99  3098.17  3098.34
eigval :     3099.83  3105.99  3106.15  3108.58  3108.83  3111.32
eigval :     3111.82  3116.35  3117.90

   temp. (K)  partition function   enthalpy   heat capacity  entropy
                                   cal/mol     cal/K/mol   cal/K/mol   J/K/mol
 298.15  VIB  0.176E+29            35140.103    221.166    218.711
         ROT  0.297E+09              888.752      2.981     41.751
         INT  0.524E+37            36028.855    224.147    260.462
         TR   0.292E+29             1481.254      4.968     46.470
         TOT                       37510.1088   229.1149   306.9324  1284.2053

       T/K    H(0)-H(T)+PV         H(T)/Eh          T*S/Eh         G(T)/Eh
   ------------------------------------------------------------------------
    298.15    0.597762E-01    0.957429E+00    0.145834E+00    0.811596E+00
   ------------------------------------------------------------------------

         :::::::::::::::::::::::::::::::::::::::::::::::::::::
         ::                  THERMODYNAMIC                  ::
         :::::::::::::::::::::::::::::::::::::::::::::::::::::
         :: total free energy        -189.518603946304 Eh   ::
         ::.................................................::
         :: total energy             -190.330199466932 Eh   ::
         :: zero point energy           0.897652861259 Eh   ::
         :: G(RRHO) w/o ZPVE           -0.086057340631 Eh   ::
         :: G(RRHO) contrib.            0.811595520628 Eh   ::
         :::::::::::::::::::::::::::::::::::::::::::::::::::::

           -------------------------------------------------
          | TOTAL ENERGY             -190.330199466932 Eh   |
          | TOTAL ENTHALPY           -189.372770442400 Eh   |
          | TOTAL FREE ENERGY        -189.518603946304 Eh   |
          | GRADIENT NORM               0.000073364356 Eh/α |
          | HOMO-LUMO GAP               0.187519809698 eV   |
           -------------------------------------------------

 * finished run on 2025/09/08 at 23:11:56.456
