   * xtb version 6.7.1 (edcfbbe) compiled by 'albert@albert-system' on 2024-07-22

   ID    Z sym.   atoms
    1    6 C      1-5, 7-10, 12-25, 27-39, 41-44, 46-59, 61-73, 75, 76
    2    7 N      6, 11, 26, 40, 45, 60, 74
    3    1 H      77-119

          program call               : xtb data2507/toluene/DDCzTrz/DDCzTrz.xyz --gfn 2 --gbsa toluene --ohess vtight --parallel 40 --molden --ceasefiles --namespace data2507/toluene/DDCzTrz/DDCzTrz_toluene_S0_preOpt
      * Solvation model:               GBSA
        Solvent                        toluene
        Solvent mass                       9.2140E+01 g/mol
          :  Hamiltonian                  GFN2-xTB          :
 * total energy  :  -190.3723877 Eh     change       -0.2433836E-08 Eh
 * total energy  :  -190.3942751 Eh     change       -0.2188746E-01 Eh
 * total energy  :  -190.4000618 Eh     change       -0.5786671E-02 Eh
 * total energy  :  -190.4015944 Eh     change       -0.1532592E-02 Eh
 * total energy  :  -190.4025681 Eh     change       -0.9736832E-03 Eh
 * total energy  :  -190.4028826 Eh     change       -0.3144814E-03 Eh
 * total energy  :  -190.4030149 Eh     change       -0.1323112E-03 Eh
 * total energy  :  -190.4030856 Eh     change       -0.7068423E-04 Eh
 * total energy  :  -190.4031336 Eh     change       -0.4801353E-04 Eh
 * total energy  :  -190.4031596 Eh     change       -0.2606640E-04 Eh
 * total energy  :  -190.4035870 Eh     change       -0.1403352E-05 Eh
 * total energy  :  -190.4035884 Eh     change       -0.1345591E-05 Eh
 * total energy  :  -190.4035896 Eh     change       -0.1226596E-05 Eh
 * total energy  :  -190.4035907 Eh     change       -0.1101829E-05 Eh
 * total energy  :  -190.4035917 Eh     change       -0.1009087E-05 Eh
 * total energy  :  -190.4035927 Eh     change       -0.9451244E-06 Eh
 * total energy  :  -190.4035936 Eh     change       -0.9243356E-06 Eh
 * total energy  :  -190.4035945 Eh     change       -0.9531195E-06 Eh
 * total energy  :  -190.4035945 Eh     change       -0.5396544E-08 Eh
   *** GEOMETRY OPTIMIZATION CONVERGED AFTER 68 ITERATIONS ***

 final structure:
================
119
 xtb: 6.7.1 (edcfbbe)
C            0.27994158875603       -7.71407472385358        0.47448472347347
C           -0.94305419964579       -7.06000711801355        0.46544122286358
C           -0.99026393846378       -5.68041842408856        0.41386340741661
C            0.19239851256775       -4.94154816930910        0.37269361418048
C            0.14526829944078       -3.48260033520246        0.31638771677771
N           -1.04964514716858       -2.89465719804815        0.27930008142771
C           -1.04413423087639       -1.56946934168696        0.19257278526796
C           -2.33476508287521       -0.88439716180467        0.08603708273882
C           -3.50731674085945       -1.56547552481577        0.39161034274422
C           -4.73571073484989       -0.92528992656861        0.26383086878495
N           -5.91536955101349       -1.62173506497160        0.54389342352406
C           -6.22532695497734       -2.89140404001962        0.08591379449889
C           -5.51769873406216       -3.72121546433155       -0.77216458802082
C           -6.07450548630913       -4.94516112414657       -1.09339050545773
C           -7.31213327277002       -5.33697334924452       -0.58766193604182
C           -8.03475030739997       -4.50313841473314        0.24258641322996
C           -7.49414495952820       -3.26900307384367        0.58068141489434
C           -7.96514633143401       -2.17277513210235        1.38175972263460
C           -9.11666888677425       -1.96436319148831        2.13007416927905
C           -9.25189823315833       -0.77612713658487        2.82069108791662
C           -8.24755580773356        0.18847889528536        2.78733292320553
C           -7.09272196541833        0.00069091258805        2.05157908425403
C           -6.96352810494131       -1.17700182493035        1.33062543839103
C           -4.78497337876760        0.39546532156333       -0.17666777250406
C           -3.60846793409385        1.08033443007186       -0.47142606043115
N           -3.65823799771119        2.39555343145907       -0.94699445245962
C           -3.02713181254115        2.85797352560415       -2.08851221996768
C           -2.25000763818142        2.17177241535106       -3.01066645847802
C           -1.76369811120477        2.87497549611143       -4.09731814026413
C           -2.04671267983069        4.22800964465706       -4.27448329379721
C           -2.83886443042065        4.91038526510274       -3.37232631105790
C           -3.33830236217930        4.22449506453916       -2.27262466678011
C           -4.19334438182021        4.60110385130346       -1.18095674772588
C           -4.80236205824355        5.79400568387169       -0.81266594371567
C           -5.56807545875934        5.81950130193529        0.33633335675707
C           -5.71248754864324        4.68053097259406        1.12549235312389
C           -5.11293149417482        3.48428043449595        0.77968668411900
C           -4.36873730148157        3.44326349320167       -0.38981495950569
C           -2.38134463164123        0.44212095572519       -0.32923790792841
N            0.05706630661707       -0.82495385256842        0.17714767164381
C            1.20599095090521       -1.49226191251710        0.24852623986106
C            2.44412722199791       -0.70988369732048        0.25171895745546
C            2.38274817008424        0.67182903070350        0.39510888184217
C            3.55068872391248        1.42707325644791        0.37271437682944
N            3.47885738257516        2.81864907832247        0.48571285648855
C            4.24250194533948        3.61582738431816        1.32142653876361
C            5.21468036751778        3.25990323664148        2.24414145669796
C            5.81201035030265        4.26532316231977        2.98092738110785
C            5.44761232279002        5.59968153582208        2.81762273349846
C            4.45898302163179        5.95886801981510        1.92288958690705
C            3.84593274396610        4.96415389654016        1.17202907683402
C            2.78992227566766        4.97565407798346        0.19764337350985
C            2.02110246953207        5.98899909372707       -0.36068963194191
C            1.07322804780392        5.65487992177200       -1.30737846842084
C            0.90398067752484        4.33362601349963       -1.71479625679522
C            1.66084423000773        3.31014679169443       -1.17556697078647
C            2.59100018118104        3.63382075369585       -0.19788505919150
C            4.77988145391100        0.79163625354695        0.20933673113914
C            4.84210735651233       -0.59517307444813        0.08960230719691
N            6.07495014282566       -1.23190843754821       -0.09132206867010
C            7.21472600291356       -1.03998121551636        0.66848088346633
C            7.40192347759765       -0.26273879083389        1.80165076577159
C            8.65066981513323       -0.26807233471913        2.39368464496699
C            9.69265845884106       -1.03847343711835        1.88235738910717
C            9.50440226553627       -1.83958622219741        0.77335569448345
C            8.25727658399160       -1.84832486033312        0.16155344047020
C            7.71294233825689       -2.56057728117025       -0.96164944730990
C            8.24702515093190       -3.47654226145130       -1.85909312314035
C            7.43638640944505       -3.97061506501128       -2.86180298888259
C            6.11404108365344       -3.54967063282593       -2.98500411125171
C            5.56128770252999       -2.63797803675737       -2.10490437314794
C            6.36346709199584       -2.15686077045965       -1.07998914195605
C            3.67276950832635       -1.34707113530685        0.11666493772588
N            1.29852326610757       -2.81598999277662        0.29894140971352
C            1.41942663522294       -5.60521554030790        0.38190585399193
C            1.45920323588258       -6.98521413450067        0.43218109329859
H            0.31387992270847       -8.79266727886383        0.51417179620728
H           -1.86106505006207       -7.62760770048128        0.49806180824962
H           -1.93283322814878       -5.15591919913557        0.40527728995250
H           -3.45002497647099       -2.58328732356788        0.74111471277709
H           -4.56692313933752       -3.42157296251057       -1.18660369299764
H           -5.53870234956161       -5.60959178466758       -1.75551558178955
H           -7.71229685927865       -6.30242895983330       -0.85978170114100
H           -9.00217415404822       -4.79777319708684        0.62019681572097
H           -9.88574694064834       -2.72081186565794        2.17153483148376
H          -10.14134712505642       -0.59256294057179        3.40508181464129
H           -8.37081028530015        1.10118564388751        3.35167914447166
H           -6.31120812472366        0.74390377311443        2.05350289515098
H           -5.73886248811274        0.87852352814421       -0.32408827815481
H           -2.03543922694012        1.12004724033825       -2.89298931142728
H           -1.15137855567400        2.36314391470803       -4.82569293207264
H           -1.64396035864314        4.74292343705872       -5.13425806626794
H           -3.07078370434002        5.95467800711173       -3.51697324979833
H           -4.67427360536828        6.68152240223171       -1.41376892756940
H           -6.05417861667565        6.73556190912828        0.63767830428758
H           -6.30206612633904        4.73361547798984        2.02897333752267
H           -5.21017477642768        2.61461929815196        1.41055548649999
H           -1.46213304695613        0.96447625245273       -0.53794934681137
H            1.42423975647324        1.14334485355273        0.53771981874185
H            5.48952476906380        2.22875955308816        2.39860447061416
H            6.57452827994335        4.00866105531744        3.70160147999137
H            5.93897381594154        6.35815472104223        3.40887006553909
H            4.16056951823641        6.99007542308441        1.80930218488106
H            2.16759587713755        7.01502167291264       -0.05875125460636
H            0.45941667648608        6.42506021088100       -1.74983553073412
H            0.16608226140660        4.10335083027148       -2.46862679981457
H            1.53423090140334        2.29382316997750       -1.51680931631374
H            5.68442141520929        1.37664990657324        0.14262853077382
H            6.59418448204677        0.31621518977879        2.22105960208807
H            8.81990923006581        0.33407462102673        3.27430592828274
H           10.65570398621427       -1.01465475572208        2.37049913912867
H           10.30574280230255       -2.45269813290380        0.38946298199253
H            9.27643017153709       -3.78990322026486       -1.77250089105627
H            7.83091073267928       -4.68614371986549       -3.56798537243807
H            5.50649360433391       -3.94168552188341       -3.78768739538819
H            4.53978633359174       -2.30794015238115       -2.22113950656443
H            3.70509687148160       -2.42133504181853        0.03818700142517
H            2.32705893768949       -5.02283844635427        0.34944892256177
H            2.41106851238999       -7.49505106513119        0.43823740331673

          :  Hamiltonian                  GFN2-xTB          :
         :: gradient norm              0.000064067313 Eh/a0 ::
         :: HOMO-LUMO gap              1.746792042207 eV    ::
         :: SCC energy              -193.937705144865 Eh    ::
         :: -> dispersion             -0.178736908486 Eh    ::
         :: -> Gsolv                  -0.079049465291 Eh    ::
         :: repulsion energy           3.534110601174 Eh    ::

    * Orbital Energies and Occupations

         #    Occupation            Energy/Eh            Energy/eV
      -------------------------------------------------------------
         1        2.0000           -0.7008306             -19.0706
       ...           ...                  ...                  ...
       165        2.0000           -0.4093320             -11.1385
       166        2.0000           -0.4093147             -11.1380
       167        2.0000           -0.4087327             -11.1222
       168        2.0000           -0.3906004             -10.6288
       169        2.0000           -0.3897868             -10.6066
       170        2.0000           -0.3831419             -10.4258
       171        2.0000           -0.3828686             -10.4184
       172        2.0000           -0.3828007             -10.4165
       173        2.0000           -0.3821086             -10.3977
       174        2.0000           -0.3706122             -10.0849
       175        2.0000           -0.3701629             -10.0726
       176        2.0000           -0.3681686             -10.0184
       177        2.0000           -0.3677111             -10.0059 (HOMO)
       178                         -0.3035177              -8.2591 (LUMO)
       179                         -0.3019316              -8.2160
       180                         -0.2610392              -7.1032
       181                         -0.2554668              -6.9516
       182                         -0.2550048              -6.9390
       183                         -0.2493523              -6.7852
       184                         -0.2485018              -6.7621
       185                         -0.2452939              -6.6748
       186                         -0.2446830              -6.6582
       187                         -0.2372897              -6.4570
       188                         -0.2264390              -6.1617
       ...                                ...                  ...
       347                          0.7412517              20.1705
      -------------------------------------------------------------
                  HL-Gap            0.0641934 Eh            1.7468 eV

     #   Z          covCN         q      C6AA      α(0)
     1   6 C        2.920    -0.020    28.513     8.756
     2   6 C        2.918    -0.026    28.656     8.778
     3   6 C        2.923    -0.025    28.624     8.774
     4   6 C        2.983    -0.009    28.245     8.718
     5   6 C        2.981     0.216    23.440     7.942
     6   7 N        1.844    -0.315    29.024     7.984
     7   6 C        2.986     0.218    23.403     7.935
     8   6 C        2.983    -0.005    28.135     8.701
     9   6 C        2.927    -0.046    29.148     8.854
    10   6 C        2.909     0.070    26.434     8.431
    11   7 N        2.801    -0.043    22.061     6.976
    12   6 C        3.071     0.045    26.915     8.506
    13   6 C        2.910    -0.051    29.276     8.872
    14   6 C        2.924    -0.034    28.844     8.807
    15   6 C        2.920    -0.041    29.017     8.833
    16   6 C        2.912    -0.034    28.837     8.806
    17   6 C        3.066    -0.016    28.347     8.730
    18   6 C        3.066    -0.016    28.351     8.731
    19   6 C        2.912    -0.033    28.832     8.805
    20   6 C        2.920    -0.041    29.015     8.833
    21   6 C        2.923    -0.034    28.835     8.806
    22   6 C        2.910    -0.051    29.268     8.871
    23   6 C        3.070     0.045    26.914     8.506
    24   6 C        2.925    -0.055    29.362     8.886
    25   6 C        2.909     0.070    26.437     8.431
    26   7 N        2.802    -0.043    22.074     6.978
    27   6 C        3.072     0.046    26.888     8.502
    28   6 C        2.910    -0.051    29.257     8.869
    29   6 C        2.924    -0.034    28.838     8.806
    30   6 C        2.919    -0.041    29.008     8.832
    31   6 C        2.912    -0.033    28.815     8.802
    32   6 C        3.067    -0.015    28.327     8.727
    33   6 C        3.066    -0.016    28.348     8.731
    34   6 C        2.912    -0.033    28.824     8.804
    35   6 C        2.920    -0.041    29.014     8.833
    36   6 C        2.924    -0.033    28.831     8.805
    37   6 C        2.910    -0.051    29.258     8.870
    38   6 C        3.072     0.046    26.902     8.504
    39   6 C        2.926    -0.046    29.137     8.852
    40   7 N        1.845    -0.318    29.087     7.993
    41   6 C        2.985     0.218    23.407     7.936
    42   6 C        2.983    -0.005    28.148     8.703
    43   6 C        2.927    -0.047    29.159     8.856
    44   6 C        2.909     0.070    26.435     8.431
    45   7 N        2.801    -0.043    22.063     6.976
    46   6 C        3.069     0.045    26.916     8.507
    47   6 C        2.910    -0.051    29.273     8.872
    48   6 C        2.923    -0.034    28.840     8.807
    49   6 C        2.920    -0.041    29.014     8.833
    50   6 C        2.913    -0.033    28.833     8.805
    51   6 C        3.066    -0.016    28.346     8.730
    52   6 C        3.066    -0.016    28.352     8.731
    53   6 C        2.912    -0.034    28.836     8.806
    54   6 C        2.920    -0.040    28.997     8.830
    55   6 C        2.923    -0.034    28.852     8.809
    56   6 C        2.910    -0.051    29.268     8.871
    57   6 C        3.070     0.045    26.917     8.507
    58   6 C        2.924    -0.055    29.366     8.887
    59   6 C        2.909     0.070    26.438     8.431
    60   7 N        2.802    -0.043    22.067     6.977
    61   6 C        3.072     0.045    26.907     8.505
    62   6 C        2.910    -0.051    29.260     8.870
    63   6 C        2.923    -0.033    28.834     8.806
    64   6 C        2.920    -0.041    29.016     8.833
    65   6 C        2.912    -0.033    28.830     8.805
    66   6 C        3.066    -0.016    28.353     8.731
    67   6 C        3.067    -0.016    28.346     8.730
    68   6 C        2.912    -0.034    28.836     8.805
    69   6 C        2.920    -0.041    29.019     8.834
    70   6 C        2.924    -0.034    28.845     8.808
    71   6 C        2.910    -0.051    29.273     8.872
    72   6 C        3.072     0.046    26.907     8.505
    73   6 C        2.926    -0.046    29.151     8.854
    74   7 N        1.843    -0.315    29.012     7.983
    75   6 C        2.923    -0.025    28.622     8.773
    76   6 C        2.918    -0.026    28.656     8.778
    77   1 H        0.926     0.053     2.287     2.365
    78   1 H        0.926     0.050     2.317     2.380
    79   1 H        0.926     0.052     2.295     2.369
    80   1 H        0.926     0.063     2.167     2.302
    81   1 H        0.926     0.028     2.615     2.529
    82   1 H        0.926     0.033     2.539     2.492
    83   1 H        0.926     0.033     2.543     2.494
    84   1 H        0.926     0.036     2.506     2.475
    85   1 H        0.926     0.035     2.512     2.479
    86   1 H        0.926     0.032     2.552     2.498
    87   1 H        0.926     0.034     2.529     2.487
    88   1 H        0.926     0.028     2.613     2.528
    89   1 H        0.926     0.063     2.164     2.301
    90   1 H        0.926     0.023     2.683     2.562
    91   1 H        0.926     0.031     2.576     2.510
    92   1 H        0.926     0.032     2.551     2.498
    93   1 H        0.926     0.036     2.500     2.473
    94   1 H        0.926     0.036     2.508     2.476
    95   1 H        0.926     0.033     2.548     2.496
    96   1 H        0.926     0.034     2.526     2.486
    97   1 H        0.926     0.027     2.624     2.533
    98   1 H        0.926     0.062     2.177     2.307
    99   1 H        0.926     0.063     2.165     2.301
   100   1 H        0.926     0.029     2.603     2.523
   101   1 H        0.926     0.034     2.526     2.485
   102   1 H        0.926     0.033     2.550     2.497
   103   1 H        0.926     0.035     2.512     2.478
   104   1 H        0.926     0.036     2.499     2.472
   105   1 H        0.926     0.033     2.548     2.496
   106   1 H        0.926     0.033     2.548     2.496
   107   1 H        0.926     0.026     2.644     2.543
   108   1 H        0.926     0.063     2.162     2.299
   109   1 H        0.926     0.027     2.625     2.534
   110   1 H        0.926     0.034     2.530     2.487
   111   1 H        0.926     0.032     2.552     2.498
   112   1 H        0.926     0.035     2.512     2.479
   113   1 H        0.926     0.036     2.502     2.474
   114   1 H        0.926     0.033     2.546     2.495
   115   1 H        0.926     0.032     2.557     2.501
   116   1 H        0.926     0.025     2.655     2.548
   117   1 H        0.926     0.063     2.160     2.298
   118   1 H        0.926     0.051     2.304     2.374
   119   1 H        0.926     0.050     2.322     2.383

molecular dipole:
                 x           y           z       tot (Debye)
 q only:       -0.028      -0.530       0.096
   full:       -0.043      -0.626       0.102       1.615

 projected vibrational frequencies (cm⁻¹)
eigval :       -0.00    -0.00    -0.00     0.00     0.00     0.00
eigval :        3.02     6.80    12.13    14.31    17.75    18.27
eigval :       19.98    22.28    24.29    30.25    30.62    34.33
eigval :       40.05    49.98    53.00    57.83    63.12    64.03
eigval :       82.74    90.88    96.79    99.42   101.39   105.42
eigval :      116.51   120.72   136.78   137.91   138.23   140.74
eigval :      147.10   147.73   155.76   173.77   182.23   190.44
eigval :      195.39   216.13   220.77   232.91   235.75   245.29
eigval :      248.06   257.57   261.70   271.22   271.79   272.74
eigval :      274.74   281.02   290.68   305.94   312.44   332.01
eigval :      340.03   361.27   361.69   365.80   384.16   390.37
eigval :      393.68   394.66   396.34   397.52   411.97   419.57
eigval :      421.87   422.29   423.38   434.89   435.76   436.46
eigval :      438.07   442.36   453.35   482.94   506.38   511.51
eigval :      512.04   518.46   519.08   519.52   519.72   530.58
eigval :      531.89   539.17   539.48   540.17   540.28   546.44
eigval :      565.04   572.97   574.31   586.16   587.36   587.66
eigval :      590.56   593.30   598.00   615.02   618.99   620.78
eigval :      627.54   643.27   644.62   645.99   647.56   664.46
eigval :      665.91   671.93   672.86   673.17   673.68   679.90
eigval :      685.92   702.00   706.39   707.11   707.40   708.49
eigval :      733.62   748.53   748.76   755.77   757.12   763.57
eigval :      764.01   764.29   767.30   768.79   769.40   769.71
eigval :      776.87   778.96   779.54   781.58   793.77   838.56
eigval :      841.21   855.37   858.29   858.62   862.77   865.78
eigval :      866.94   867.41   870.18   875.89   877.33   879.04
eigval :      889.58   893.59   894.97   895.23   897.06   897.21
eigval :      897.28   899.04   899.22   900.26   903.29   904.99
eigval :      905.56   907.52   909.94   911.58   913.18   918.21
eigval :      918.69   921.48   922.93   923.07   924.02   924.62
eigval :      930.26   932.30   934.62   942.85   989.28   990.43
eigval :      997.46  1006.89  1010.82  1011.03  1012.70  1023.03
eigval :     1031.61  1032.06  1051.94  1065.31  1065.55  1070.13
eigval :     1070.42  1072.80  1072.95  1073.95  1074.79  1075.89
eigval :     1105.86  1110.11  1114.02  1114.40  1117.06  1119.69
eigval :     1143.29  1147.08  1147.45  1152.10  1152.79  1158.05
eigval :     1162.69  1163.85  1175.21  1175.82  1177.33  1177.73
eigval :     1178.47  1179.58  1179.83  1180.22  1180.73  1188.93
eigval :     1204.27  1206.07  1208.19  1216.35  1217.22  1229.39
eigval :     1229.52  1234.05  1234.53  1234.59  1235.17  1248.80
eigval :     1252.89  1268.04  1293.38  1293.65  1295.03  1296.20
eigval :     1298.30  1298.43  1299.27  1300.03  1322.36  1323.30
eigval :     1326.33  1328.67  1331.26  1335.68  1348.48  1354.92
eigval :     1355.21  1355.72  1356.04  1359.88  1360.01  1360.29
eigval :     1361.18  1369.19  1394.90  1400.69  1415.84  1415.99
eigval :     1423.51  1425.13  1425.23  1425.69  1428.12  1428.88
eigval :     1437.27  1450.41  1451.40  1456.48  1457.97  1468.80
eigval :     1473.76  1474.09  1475.07  1475.39  1485.38  1485.64
eigval :     1485.74  1486.07  1509.36  1518.08  1565.21  1565.70
eigval :     1566.52  1568.84  1573.74  1574.05  1574.75  1575.04
eigval :     1580.84  1587.61  1587.67  1588.29  1588.41  1591.83
eigval :     1597.57  1597.81  1598.08  1598.30  1611.83  1611.95
eigval :     1612.68  1612.77  3073.15  3073.26  3074.46  3075.16
eigval :     3075.34  3075.35  3075.58  3079.18  3079.23  3080.01
eigval :     3080.06  3080.46  3081.25  3081.78  3081.81  3082.15
eigval :     3082.70  3085.04  3085.82  3086.01  3087.82  3089.58
eigval :     3089.68  3090.87  3091.02  3092.32  3093.68  3094.03
eigval :     3094.16  3094.92  3097.14  3098.08  3099.64  3099.73
eigval :     3102.26  3103.80  3104.11  3104.56  3106.97  3119.95
eigval :     3120.53  3120.67  3121.09

   temp. (K)  partition function   enthalpy   heat capacity  entropy
                                   cal/mol     cal/K/mol   cal/K/mol   J/K/mol
 298.15  VIB  0.156E+30            34969.930    218.660    219.910
         ROT  0.311E+09              888.752      2.981     41.845
         INT  0.485E+38            35858.683    221.641    261.755
         TR   0.292E+29             1481.254      4.968     46.470
         TOT                       37339.9365   226.6089   308.2247  1289.6123

       T/K    H(0)-H(T)+PV         H(T)/Eh          T*S/Eh         G(T)/Eh
   ------------------------------------------------------------------------
    298.15    0.595050E-01    0.962292E+00    0.146448E+00    0.815845E+00
   ------------------------------------------------------------------------

         :::::::::::::::::::::::::::::::::::::::::::::::::::::
         ::                  THERMODYNAMIC                  ::
         :::::::::::::::::::::::::::::::::::::::::::::::::::::
         :: total free energy        -189.587749870742 Eh   ::
         ::.................................................::
         :: total energy             -190.403594540801 Eh   ::
         :: zero point energy           0.902787213875 Eh   ::
         :: G(RRHO) w/o ZPVE           -0.086942543815 Eh   ::
         :: G(RRHO) contrib.            0.815844670060 Eh   ::
         :::::::::::::::::::::::::::::::::::::::::::::::::::::

           -------------------------------------------------
          | TOTAL ENERGY             -190.403594540801 Eh   |
          | TOTAL ENTHALPY           -189.441302350501 Eh   |
          | TOTAL FREE ENERGY        -189.587749870742 Eh   |
          | GRADIENT NORM               0.000064015394 Eh/α |
          | HOMO-LUMO GAP               1.746792105425 eV   |
           -------------------------------------------------

 * finished run on 2025/09/08 at 22:44:27.992
