   * xtb version 6.7.1 (edcfbbe) compiled by 'albert@albert-system' on 2024-07-22

   ID    Z sym.   atoms
    1    6 C      1-5, 7-10, 12-25, 27-39, 41-44, 46-59, 61-73, 75, 76
    2    7 N      6, 11, 26, 40, 45, 60, 74
    3    1 H      77-119

          program call               : xtb data2507/toluene/DDCzTrz/DDCzTrz_toluene_S0_crest.xyz --gfn 2 --gbsa toluene --ohess vtight --parallel 40 --molden --ceasefiles --namespace data2507/toluene/DDCzTrz/DDCzTrz_toluene_S0_finalOpt
      * Solvation model:               GBSA
        Solvent                        toluene
        Solvent mass                       9.2140E+01 g/mol
          :  Hamiltonian                  GFN2-xTB          :
 * total energy  :  -190.4043583 Eh     change       -0.1937480E-08 Eh
 * total energy  :  -190.4044337 Eh     change       -0.7540254E-04 Eh
 * total energy  :  -190.4045003 Eh     change       -0.6656928E-04 Eh
 * total energy  :  -190.4045421 Eh     change       -0.4186833E-04 Eh
 * total energy  :  -190.4045656 Eh     change       -0.2349777E-04 Eh
 * total energy  :  -190.4046066 Eh     change       -0.4094852E-04 Eh
 * total energy  :  -190.4046369 Eh     change       -0.3028415E-04 Eh
 * total energy  :  -190.4046662 Eh     change       -0.2929698E-04 Eh
 * total energy  :  -190.4046961 Eh     change       -0.2998679E-04 Eh
 * total energy  :  -190.4047145 Eh     change       -0.1834788E-04 Eh
 * total energy  :  -190.4047529 Eh     change       -0.4391821E-06 Eh
 * total energy  :  -190.4047533 Eh     change       -0.4373242E-06 Eh
 * total energy  :  -190.4047538 Eh     change       -0.4781958E-06 Eh
 * total energy  :  -190.4047543 Eh     change       -0.5429622E-06 Eh
 * total energy  :  -190.4047550 Eh     change       -0.6266728E-06 Eh
 * total energy  :  -190.4047557 Eh     change       -0.7157272E-06 Eh
 * total energy  :  -190.4047564 Eh     change       -0.7588442E-06 Eh
 * total energy  :  -190.4047571 Eh     change       -0.6880601E-06 Eh
 * total energy  :  -190.4047571 Eh     change       -0.9306291E-08 Eh
   *** GEOMETRY OPTIMIZATION CONVERGED AFTER 44 ITERATIONS ***

 final structure:
================
119
 xtb: 6.7.1 (edcfbbe)
C            0.06754474398942       -7.92381891537314       -0.23857658617509
C           -1.13997488585789       -7.24361101012586       -0.18532637686431
C           -1.15563529499589       -5.86358048396954       -0.12585329746517
C            0.04355292251461       -5.15071824089699       -0.11807387355728
C            0.02981096000211       -3.69089035157623       -0.06407449226271
N           -1.15487427015742       -3.07764741703788       -0.06038279963154
C           -1.11743661574352       -1.75120429254175       -0.03381104574351
C           -2.36425743852655       -0.98360399324239       -0.02199737154367
C           -3.59624457792976       -1.60018623708435        0.15936531688045
C           -4.74798996196577       -0.82245972886938        0.22856499896260
N           -5.98860388560739       -1.43317283804330        0.44389560059213
C           -7.14386393861034       -1.20658068608233       -0.28186546903284
C           -7.34043332496718       -0.41968306611346       -1.40684942972795
C           -8.60510742267291       -0.38778768360628       -1.96310342848392
C           -9.65353288050925       -1.13041208171906       -1.42432548359306
C           -9.45665585332149       -1.94155952868371       -0.32410380780976
C           -8.19326310350147       -1.98836776138050        0.25159201604604
C           -7.63624541407806       -2.72098714737945        1.35540314417405
C           -8.16873529132926       -3.62703561308645        2.26374863994829
C           -7.34325356411362       -4.14784110036536        3.24050473658882
C           -6.00679622967932       -3.76385292520205        3.32706203423881
C           -5.45512451486105       -2.86276232121067        2.43546650554405
C           -6.27328505978471       -2.35465208426024        1.43652436249456
C           -4.66582880128122        0.56510743264082        0.12122035897305
C           -3.43266399690724        1.17930058970778       -0.08665416621880
N           -3.31416041060458        2.56925231924738       -0.16680642497719
C           -4.09347604153613        3.42691563055727       -0.92398546248022
C           -5.13811427918676        3.14486213224591       -1.79147448477266
C           -5.73629399642513        4.20036117148866       -2.45411934052899
C           -5.30274768509111        5.51132937868786       -2.27206487441782
C           -4.24453923858232        5.79675543795681       -1.43179667539651
C           -3.62999448399349        4.75148031988451       -0.75458775364146
C           -2.51707758649252        4.68480872288205        0.15207131605474
C           -1.68012816367052        5.64661590845422        0.70229990687033
C           -0.69089548648443        5.24266274498522        1.57570203488011
C           -0.54587210451720        3.90097911260179        1.91709264233775
C           -1.37278156760605        2.92757186326337        1.38878527007232
C           -2.34921261010190        3.32247851993645        0.48528607339654
C           -2.28752508171905        0.39672011720512       -0.17216311233500
N            0.00386183921615       -1.04014738355558        0.00294725502095
C            1.13895846182649       -1.72983637130678        0.01034682978371
C            2.37192723068841       -0.94055877753613        0.02813380199227
C            2.26883048853968        0.44062144482152        0.15469960465781
C            3.40302607255555        1.24076689019552        0.08627350267849
N            3.26078344918875        2.62988633945309        0.13560659573763
C            4.01346185168263        3.51534442074351        0.88815328123242
C            5.04289789846160        3.26800453595276        1.78400550620893
C            5.61398546155650        4.34687158074956        2.43282206280505
C            5.16838018711395        5.64743013806688        2.20994628461536
C            4.12398876529741        5.89865143272801        1.34199704876956
C            3.53696260188069        4.82936323113672        0.67804234661277
C            2.44313632254745        4.72688396385715       -0.24812195864101
C            1.60423590623536        5.66501220665794       -0.83494242465102
C            0.63625576842338        5.22861121580398       -1.71647664689439
C            0.51632129407450        3.87803486269245       -2.03131138133365
C            1.34672035919467        2.92793858481104       -1.46708230164875
C            2.29976637597516        3.35521891753880       -0.55334704726691
C            4.65151381718397        0.64326540466933       -0.07489008565322
C            4.75918695872387       -0.74431682780868       -0.15486893297838
N            6.01501635330998       -1.33872844902274       -0.32178763075951
C            7.14375907296548       -1.08425141641864        0.43567954506766
C            7.29544672817567       -0.27363354515489        1.55070583394860
C            8.54129200059552       -0.21596360240985        2.14604690019386
C            9.61478530932936       -0.95608213258411        1.65533862364931
C            9.46231431346402       -1.79028659442330        0.56533685727170
C            8.21853820420714       -1.86336387231165       -0.04900680609848
C            7.70547485075882       -2.62383245420884       -1.15530680543716
C            8.27664632326162       -3.54109691970949       -2.02823509056058
C            7.48845740762262       -4.09010315599726       -3.02025513478475
C            6.15133059503946       -3.72325617939789       -3.15691172847378
C            5.56145493101437       -2.81181028972048       -2.30107259458643
C            6.34177606811901       -2.27544796513534       -1.28673429459847
C            3.61849918167654       -1.53954800854204       -0.10744685386465
N            1.20189691195193       -3.05535146766726       -0.02811878424255
C            1.25494676424297       -5.84073393353882       -0.16942402605329
C            1.26307192723539       -7.22080814008006       -0.23058527164146
H            0.07684121577484       -9.00259314279325       -0.28641169448235
H           -2.07044295505548       -7.79150076509474       -0.19068739030138
H           -2.08550964182485       -5.31792380952067       -0.08607580876497
H           -3.64744494394808       -2.67347902465518        0.24281590763682
H           -6.52769209356716        0.13690824564722       -1.84707884176778
H           -8.78238997176977        0.22176835968817       -2.83703894251995
H          -10.62909862004969       -1.07714889168734       -1.88450749838378
H          -10.26372359398216       -2.53369109865657        0.08016055925954
H           -9.20828142727939       -3.91224899112376        2.20572877583639
H           -7.73675560907653       -4.85588333286153        3.95477604906347
H           -5.38724188323593       -4.17637090111442        4.11005241512913
H           -4.42214518254680       -2.56095544352912        2.52372297899571
H           -5.55707773185285        1.16305262543766        0.23474345003969
H           -5.46964694399716        2.13277111682609       -1.96005854544160
H           -6.55489485818844        4.00211256474398       -3.13031843184683
H           -5.79656213609229        6.31018259273799       -2.80530240918974
H           -3.89551355344044        6.81022568566297       -1.30382087134412
H           -1.80709992129235        6.68867202041048        0.45177457239327
H           -0.02410147251737        5.97178101910628        2.01043068528216
H            0.22620275490506        3.61362529741205        2.61612514087230
H           -1.26396662391793        1.89549648725432        1.68657028628026
H           -1.32878150175820        0.85079530930323       -0.35848429462663
H            1.29790326252313        0.88112315361432        0.30715213672878
H            5.38340405946266        2.26484487756894        1.98472208335568
H            6.42086573046526        4.17561142330491        3.13017031841211
H            5.64149131998029        6.46515710669115        2.73321671591115
H            3.76444716726564        6.90395367002635        1.18243645037949
H            1.71309792247133        6.71395612049856       -0.60552861008893
H           -0.03278223235876        5.93868952422846       -2.17852722659237
H           -0.23907512856510        3.56483984925105       -2.73750183674415
H            1.25786515994075        1.88864185446136       -1.74562005453522
H            5.53598781230571        1.25358788850440       -0.17457590715892
H            6.46286385112976        0.28165722279982        1.95389693899947
H            8.68355349033271        0.41219747018304        3.01319434943473
H           10.57457484351860       -0.88231267349629        2.14494329987320
H           10.28841557069403       -2.38038525909153        0.19829790043578
H            9.31680207675036       -3.81326957188335       -1.93147803169624
H            7.91220347814777       -4.80717362301931       -3.70770162153473
H            5.56175207224875       -4.15774177887475       -3.95108013107614
H            4.52855134040246       -2.52358301654832       -2.42763139635566
H            3.68882836246783       -2.61300641255796       -0.17156686481040
H            2.17546667569982       -5.27807538724516       -0.16222244299675
H            2.20284949199797       -7.75098144219570       -0.27192286693486

          :  Hamiltonian                  GFN2-xTB          :
         :: gradient norm              0.000070163778 Eh/a0 ::
         :: HOMO-LUMO gap              1.729480447338 eV    ::
         :: SCC energy              -193.940526768034 Eh    ::
         :: -> dispersion             -0.185272715102 Eh    ::
         :: -> Gsolv                  -0.076452535691 Eh    ::
         :: repulsion energy           3.535769622878 Eh    ::

    * Orbital Energies and Occupations

         #    Occupation            Energy/Eh            Energy/eV
      -------------------------------------------------------------
         1        2.0000           -0.7005065             -19.0618
       ...           ...                  ...                  ...
       165        2.0000           -0.4092982             -11.1376
       166        2.0000           -0.4092581             -11.1365
       167        2.0000           -0.4068525             -11.0710
       168        2.0000           -0.3899233             -10.6104
       169        2.0000           -0.3896766             -10.6036
       170        2.0000           -0.3834025             -10.4329
       171        2.0000           -0.3828017             -10.4166
       172        2.0000           -0.3827652             -10.4156
       173        2.0000           -0.3812521             -10.3744
       174        2.0000           -0.3706911             -10.0870
       175        2.0000           -0.3696868             -10.0597
       176        2.0000           -0.3680348             -10.0147
       177        2.0000           -0.3671087              -9.9895 (HOMO)
       178                         -0.3035514              -8.2601 (LUMO)
       179                         -0.3018066              -8.2126
       180                         -0.2609927              -7.1020
       181                         -0.2550731              -6.9409
       182                         -0.2548196              -6.9340
       183                         -0.2492561              -6.7826
       184                         -0.2482325              -6.7548
       185                         -0.2446967              -6.6585
       186                         -0.2445434              -6.6544
       187                         -0.2371341              -6.4527
       188                         -0.2266596              -6.1677
       ...                                ...                  ...
       347                          0.7415738              20.1793
      -------------------------------------------------------------
                  HL-Gap            0.0635572 Eh            1.7295 eV

     #   Z          covCN         q      C6AA      α(0)
     1   6 C        2.920    -0.020    28.514     8.757
     2   6 C        2.918    -0.026    28.658     8.779
     3   6 C        2.923    -0.025    28.627     8.774
     4   6 C        2.983    -0.009    28.243     8.718
     5   6 C        2.985     0.217    23.432     7.940
     6   7 N        1.842    -0.316    29.034     7.985
     7   6 C        2.984     0.218    23.405     7.936
     8   6 C        2.984    -0.006    28.154     8.704
     9   6 C        2.924    -0.046    29.149     8.854
    10   6 C        2.910     0.070    26.442     8.432
    11   7 N        2.802    -0.043    22.070     6.977
    12   6 C        3.072     0.045    26.907     8.505
    13   6 C        2.910    -0.051    29.258     8.870
    14   6 C        2.923    -0.034    28.835     8.806
    15   6 C        2.920    -0.041    29.017     8.834
    16   6 C        2.912    -0.033    28.830     8.805
    17   6 C        3.066    -0.016    28.354     8.732
    18   6 C        3.067    -0.016    28.348     8.731
    19   6 C        2.912    -0.034    28.836     8.806
    20   6 C        2.920    -0.041    29.019     8.834
    21   6 C        2.924    -0.034    28.845     8.808
    22   6 C        2.910    -0.051    29.273     8.872
    23   6 C        3.071     0.046    26.906     8.505
    24   6 C        2.924    -0.055    29.373     8.888
    25   6 C        2.908     0.070    26.439     8.431
    26   7 N        2.801    -0.042    22.051     6.974
    27   6 C        3.068     0.046    26.909     8.506
    28   6 C        2.910    -0.051    29.273     8.872
    29   6 C        2.923    -0.034    28.840     8.807
    30   6 C        2.920    -0.041    29.013     8.833
    31   6 C        2.913    -0.033    28.825     8.804
    32   6 C        3.067    -0.015    28.328     8.727
    33   6 C        3.066    -0.015    28.323     8.727
    34   6 C        2.913    -0.032    28.802     8.800
    35   6 C        2.920    -0.039    28.969     8.826
    36   6 C        2.924    -0.033    28.824     8.804
    37   6 C        2.910    -0.052    29.282     8.873
    38   6 C        3.070     0.045    26.911     8.506
    39   6 C        2.931    -0.047    29.179     8.859
    40   7 N        1.851    -0.318    29.102     7.995
    41   6 C        2.984     0.218    23.408     7.936
    42   6 C        2.983    -0.006    28.159     8.705
    43   6 C        2.931    -0.048    29.186     8.860
    44   6 C        2.908     0.070    26.440     8.432
    45   7 N        2.801    -0.042    22.047     6.974
    46   6 C        3.067     0.046    26.909     8.506
    47   6 C        2.910    -0.051    29.272     8.872
    48   6 C        2.923    -0.034    28.840     8.807
    49   6 C        2.920    -0.041    29.012     8.833
    50   6 C        2.913    -0.033    28.824     8.804
    51   6 C        3.067    -0.015    28.326     8.727
    52   6 C        3.066    -0.015    28.319     8.726
    53   6 C        2.913    -0.032    28.799     8.800
    54   6 C        2.920    -0.039    28.970     8.826
    55   6 C        2.924    -0.033    28.827     8.805
    56   6 C        2.910    -0.052    29.281     8.873
    57   6 C        3.070     0.045    26.910     8.506
    58   6 C        2.924    -0.055    29.374     8.888
    59   6 C        2.910     0.070    26.443     8.432
    60   7 N        2.802    -0.043    22.071     6.978
    61   6 C        3.072     0.045    26.907     8.505
    62   6 C        2.910    -0.051    29.259     8.870
    63   6 C        2.923    -0.034    28.836     8.806
    64   6 C        2.920    -0.041    29.018     8.834
    65   6 C        2.912    -0.033    28.831     8.805
    66   6 C        3.066    -0.017    28.355     8.732
    67   6 C        3.067    -0.016    28.349     8.731
    68   6 C        2.912    -0.034    28.837     8.806
    69   6 C        2.920    -0.041    29.020     8.834
    70   6 C        2.924    -0.034    28.845     8.808
    71   6 C        2.910    -0.051    29.274     8.872
    72   6 C        3.071     0.046    26.906     8.505
    73   6 C        2.924    -0.046    29.153     8.854
    74   7 N        1.842    -0.316    29.033     7.985
    75   6 C        2.923    -0.025    28.626     8.774
    76   6 C        2.918    -0.026    28.658     8.779
    77   1 H        0.926     0.053     2.287     2.365
    78   1 H        0.926     0.050     2.322     2.383
    79   1 H        0.926     0.052     2.297     2.370
    80   1 H        0.926     0.062     2.180     2.309
    81   1 H        0.926     0.027     2.629     2.536
    82   1 H        0.926     0.034     2.529     2.487
    83   1 H        0.926     0.032     2.552     2.498
    84   1 H        0.926     0.035     2.514     2.479
    85   1 H        0.926     0.036     2.503     2.474
    86   1 H        0.926     0.033     2.548     2.496
    87   1 H        0.926     0.032     2.558     2.501
    88   1 H        0.926     0.025     2.657     2.549
    89   1 H        0.926     0.063     2.165     2.301
    90   1 H        0.926     0.029     2.595     2.519
    91   1 H        0.926     0.034     2.526     2.486
    92   1 H        0.926     0.033     2.549     2.497
    93   1 H        0.926     0.036     2.508     2.476
    94   1 H        0.926     0.038     2.480     2.463
    95   1 H        0.926     0.033     2.540     2.492
    96   1 H        0.926     0.029     2.604     2.523
    97   1 H        0.926     0.026     2.646     2.544
    98   1 H        0.926     0.064     2.150     2.293
    99   1 H        0.926     0.065     2.142     2.288
   100   1 H        0.926     0.030     2.593     2.518
   101   1 H        0.926     0.034     2.526     2.485
   102   1 H        0.926     0.033     2.549     2.497
   103   1 H        0.926     0.036     2.508     2.476
   104   1 H        0.926     0.038     2.479     2.462
   105   1 H        0.926     0.033     2.539     2.492
   106   1 H        0.926     0.029     2.602     2.523
   107   1 H        0.926     0.025     2.652     2.547
   108   1 H        0.926     0.063     2.165     2.301
   109   1 H        0.926     0.027     2.630     2.536
   110   1 H        0.926     0.034     2.530     2.487
   111   1 H        0.926     0.032     2.553     2.499
   112   1 H        0.926     0.035     2.514     2.480
   113   1 H        0.926     0.036     2.504     2.475
   114   1 H        0.926     0.033     2.548     2.496
   115   1 H        0.926     0.032     2.556     2.500
   116   1 H        0.926     0.025     2.652     2.547
   117   1 H        0.926     0.062     2.175     2.306
   118   1 H        0.926     0.052     2.298     2.371
   119   1 H        0.926     0.050     2.321     2.382

molecular dipole:
                 x           y           z       tot (Debye)
 q only:        0.004      -0.317      -0.034
   full:        0.006      -0.455      -0.031       1.159

 projected vibrational frequencies (cm⁻¹)
eigval :       -0.00    -0.00    -0.00    -0.00     0.00     0.00
eigval :        6.28     9.44    14.61    16.19    18.87    20.58
eigval :       21.48    22.76    25.73    28.28    31.02    32.09
eigval :       42.55    53.34    56.45    62.01    63.92    66.46
eigval :       85.91    90.51    92.61   101.63   103.02   105.71
eigval :      118.59   122.49   135.90   138.81   140.36   141.75
eigval :      147.46   148.50   156.80   174.05   177.34   193.21
eigval :      195.13   216.32   222.08   229.98   237.61   249.62
eigval :      250.92   261.10   262.04   272.78   273.51   274.63
eigval :      275.85   282.95   292.45   307.85   311.14   330.42
eigval :      344.80   363.52   365.24   368.17   386.02   393.24
eigval :      395.50   397.15   397.75   399.13   411.90   420.61
eigval :      421.86   423.50   423.69   435.64   436.11   437.28
eigval :      438.41   440.39   458.65   476.55   509.09   512.89
eigval :      513.30   518.50   519.19   520.05   520.21   531.61
eigval :      533.99   540.57   540.78   541.99   542.18   545.80
eigval :      566.93   573.55   575.05   585.75   587.41   587.72
eigval :      590.31   593.39   595.98   615.03   618.84   620.95
eigval :      627.27   644.70   645.25   646.32   647.20   665.96
eigval :      667.08   673.10   673.60   674.34   674.43   679.35
eigval :      686.38   699.84   707.98   708.25   708.57   709.24
eigval :      734.04   748.51   748.68   755.88   757.10   762.48
eigval :      766.97   768.01   768.83   769.29   770.48   771.34
eigval :      780.06   780.86   781.78   782.40   792.22   840.84
eigval :      841.78   854.70   860.60   861.40   863.49   867.38
eigval :      867.99   868.36   870.09   875.38   878.71   879.43
eigval :      892.89   893.83   895.09   896.02   898.08   898.43
eigval :      898.94   899.17   900.99   901.19   905.56   905.72
eigval :      907.66   908.25   911.47   912.75   912.98   921.03
eigval :      921.66   923.93   925.28   926.30   926.45   929.59
eigval :      930.33   931.96   933.52   943.00   989.49   990.35
eigval :      997.59  1007.00  1010.98  1011.24  1012.75  1024.15
eigval :     1031.31  1031.96  1052.83  1066.27  1066.53  1070.67
eigval :     1070.94  1073.36  1073.65  1074.89  1075.19  1076.68
eigval :     1105.09  1109.69  1112.90  1115.08  1118.73  1121.80
eigval :     1142.59  1147.73  1148.19  1153.08  1153.58  1158.25
eigval :     1162.44  1163.86  1176.62  1176.86  1178.22  1178.54
eigval :     1179.10  1180.50  1180.89  1181.35  1182.40  1189.23
eigval :     1205.26  1206.07  1208.79  1215.14  1217.68  1230.15
eigval :     1230.34  1234.26  1234.64  1235.14  1235.40  1249.00
eigval :     1253.02  1268.71  1293.63  1294.00  1294.40  1295.29
eigval :     1298.68  1298.86  1299.54  1300.20  1323.34  1324.92
eigval :     1326.82  1326.97  1330.80  1336.50  1350.71  1355.30
eigval :     1355.38  1356.95  1357.25  1360.50  1360.62  1360.74
eigval :     1362.76  1365.53  1396.40  1401.05  1416.05  1416.15
eigval :     1423.69  1425.28  1425.91  1426.32  1428.39  1429.69
eigval :     1437.16  1449.63  1452.21  1456.50  1459.46  1468.42
eigval :     1474.43  1474.44  1475.13  1475.93  1485.84  1485.90
eigval :     1486.30  1486.35  1510.40  1520.98  1566.26  1566.44
eigval :     1566.84  1569.60  1574.13  1574.28  1576.01  1576.24
eigval :     1580.88  1587.99  1588.06  1588.84  1588.96  1592.43
eigval :     1598.07  1598.10  1598.70  1598.78  1612.19  1612.23
eigval :     1612.96  1613.00  3072.72  3072.82  3072.88  3073.13
eigval :     3074.74  3075.16  3075.79  3075.88  3078.76  3079.35
eigval :     3080.01  3081.04  3081.45  3081.96  3082.28  3082.71
eigval :     3083.02  3085.04  3085.61  3085.74  3086.87  3087.23
eigval :     3089.24  3089.63  3091.84  3091.96  3093.40  3093.54
eigval :     3093.58  3096.40  3096.51  3096.77  3097.76  3101.90
eigval :     3102.50  3103.94  3104.41  3104.65  3105.45  3119.31
eigval :     3120.03  3125.75  3127.81

   temp. (K)  partition function   enthalpy   heat capacity  entropy
                                   cal/mol     cal/K/mol   cal/K/mol   J/K/mol
 298.15  VIB  0.219E+29            34860.665    218.648    217.708
         ROT  0.297E+09              888.752      2.981     41.753
         INT  0.653E+37            35749.418    221.629    259.462
         TR   0.292E+29             1481.254      4.968     46.470
         TOT                       37230.6716   226.5967   305.9316  1280.0178

       T/K    H(0)-H(T)+PV         H(T)/Eh          T*S/Eh         G(T)/Eh
   ------------------------------------------------------------------------
    298.15    0.593309E-01    0.962662E+00    0.145358E+00    0.817304E+00
   ------------------------------------------------------------------------

         :::::::::::::::::::::::::::::::::::::::::::::::::::::
         ::                  THERMODYNAMIC                  ::
         :::::::::::::::::::::::::::::::::::::::::::::::::::::
         :: total free energy        -189.587452878945 Eh   ::
         ::.................................................::
         :: total energy             -190.404757142941 Eh   ::
         :: zero point energy           0.903331389084 Eh   ::
         :: G(RRHO) w/o ZPVE           -0.086027125088 Eh   ::
         :: G(RRHO) contrib.            0.817304263996 Eh   ::
         :::::::::::::::::::::::::::::::::::::::::::::::::::::

           -------------------------------------------------
          | TOTAL ENERGY             -190.404757142941 Eh   |
          | TOTAL ENTHALPY           -189.442094902148 Eh   |
          | TOTAL FREE ENERGY        -189.587452878945 Eh   |
          | GRADIENT NORM               0.000070161551 Eh/α |
          | HOMO-LUMO GAP               1.729480763303 eV   |
           -------------------------------------------------

 * finished run on 2025/09/08 at 22:52:59.184
