   * xtb version 6.7.1 (edcfbbe) compiled by 'albert@albert-system' on 2024-07-22

   ID    Z sym.   atoms
    1    6 C      1-5, 7-10, 12-25, 27-39, 41-44, 46-59, 61-73, 75, 76
    2    7 N      6, 11, 26, 40, 45, 60, 74
    3    1 H      77-119

          program call               : xtb data2507/toluene/DDCzTrz/DDCzTrz_toluene_S0_finalOpt.xtbopt.xyz --gfn 2 --uhf 2 --gbsa toluene --ohess vtight --parallel 40 --molden --ceasefiles --namespace data2507/toluene/DDCzTrz/DDCzTrz_toluene_T1_preOpt
      * Solvation model:               GBSA
        Solvent                        toluene
        Solvent mass                       9.2140E+01 g/mol
          :  Hamiltonian                  GFN2-xTB          :
 * total energy  :  -190.3271987 Eh     change       -0.1373078E-07 Eh
 * total energy  :  -190.3288480 Eh     change       -0.1649314E-02 Eh
 * total energy  :  -190.3297247 Eh     change       -0.8767117E-03 Eh
 * total energy  :  -190.3299187 Eh     change       -0.1940111E-03 Eh
 * total energy  :  -190.3300915 Eh     change       -0.1727804E-03 Eh
 * total energy  :  -190.3301304 Eh     change       -0.3891975E-04 Eh
 * total energy  :  -190.3301436 Eh     change       -0.1319003E-04 Eh
 * total energy  :  -190.3301476 Eh     change       -0.3961074E-05 Eh
 * total energy  :  -190.3301512 Eh     change       -0.3620393E-05 Eh
 * total energy  :  -190.3301566 Eh     change       -0.5393693E-05 Eh
 * total energy  :  -190.3302068 Eh     change       -0.3998937E-06 Eh
 * total energy  :  -190.3302071 Eh     change       -0.3519533E-06 Eh
 * total energy  :  -190.3302074 Eh     change       -0.3179497E-06 Eh
 * total energy  :  -190.3302077 Eh     change       -0.3062482E-06 Eh
 * total energy  :  -190.3302080 Eh     change       -0.2962452E-06 Eh
 * total energy  :  -190.3302083 Eh     change       -0.2447598E-06 Eh
 * total energy  :  -190.3302085 Eh     change       -0.2020390E-06 Eh
 * total energy  :  -190.3302087 Eh     change       -0.2026499E-06 Eh
 * total energy  :  -190.3302087 Eh     change       -0.4501999E-09 Eh
   *** GEOMETRY OPTIMIZATION CONVERGED AFTER 44 ITERATIONS ***

 final structure:
================
119
 xtb: 6.7.1 (edcfbbe)
C            0.05876399708325       -7.96210432270132       -0.09379485640821
C           -1.14469621261568       -7.27872165399094       -0.01032185594654
C           -1.15730351712844       -5.89713334356567        0.01189515247809
C            0.03813018225224       -5.18419574247800       -0.04843962625098
C            0.02663996261261       -3.71566607922216       -0.02923935059054
N           -1.15298780014202       -3.11353406656285        0.00329760677314
C           -1.12936095470690       -1.74756283171692       -0.01220763455269
C           -2.35051842158279       -0.99102673778998       -0.00235063832604
C           -3.60480228532351       -1.59459203833815        0.16099209571693
C           -4.74509258296612       -0.81144550092010        0.23737058456791
N           -5.99315643573806       -1.42095023759108        0.44431049028022
C           -7.13597007454171       -1.20382403850751       -0.29694164067912
C           -7.31752170350431       -0.42640934449683       -1.43241438484346
C           -8.57597452740539       -0.39667417495781       -2.00302163018519
C           -9.63185074311642       -1.13106396322165       -1.46788526386631
C           -9.45046471160770       -1.93214388709253       -0.35509425696981
C           -8.19526481062053       -1.97626907627012        0.23479403541310
C           -7.65029979006944       -2.69514959667297        1.35542868009036
C           -8.18817806745050       -3.59045568601371        2.26879092430052
C           -7.36751618128424       -4.09961754525929        3.25869222502888
C           -6.03163299401600       -3.71523801715480        3.35110605492618
C           -5.47406643389678       -2.82269313267262        2.45447151325645
C           -6.28720202139076       -2.32532628758838        1.44446013570653
C           -4.66959746761742        0.58017567975289        0.14306274541142
C           -3.42375116718319        1.18186310979037       -0.05397206654912
N           -3.30292453787468        2.57694766418008       -0.13708445510511
C           -4.05574509874668        3.42533152060594       -0.92426278401705
C           -5.08330732356506        3.13528298301130       -1.81140585882864
C           -5.65987499636403        4.18393622098396       -2.50338726558720
C           -5.22254720293453        5.49492748482429       -2.33066205201546
C           -4.18207576499237        5.78888855275340       -1.46832576638340
C           -3.59008048610664        4.75180936496265       -0.76208886775324
C           -2.49851243273099        4.68982394481650        0.17232092182945
C           -1.66086910834810        5.64803838049078        0.72347928586118
C           -0.69132577065521        5.24286565393641        1.62188516340267
C           -0.56792096516395        3.90471946500309        1.98507707627326
C           -1.39752553562125        2.93368962136944        1.45602112829861
C           -2.35292191854889        3.32890029774844        0.52840551811831
C           -2.28421245611892        0.40422017656197       -0.13840760777894
N            0.00455113369090       -1.06537575053484       -0.01251301156971
C            1.15044091789243       -1.72851125144469       -0.01581773499328
C            2.35908392098671       -0.95344970430952       -0.01211249681732
C            2.27012328468670        0.44184661419506        0.11333097200323
C            3.39917097893738        1.23590101271301        0.04179119632186
N            3.25657136386489        2.62979026054221        0.10831715730964
C            3.98919110845157        3.49828866957026        0.89288111906248
C            5.00953781326844        3.23382775372831        1.79628135458121
C            5.56447681305715        4.29919901414107        2.48040106911299
C            5.11300949955860        5.60204660500718        2.28427557711697
C            4.07895615820748        5.87064555989573        1.40612804073661
C            3.50854898458064        4.81638309993830        0.70765046117542
C            2.42832110429793        4.72789188438880       -0.23765505946048
C            1.58391437539637        5.66807273166274       -0.80912231692385
C            0.62881288464394        5.23907267610850       -1.71193361510322
C            0.52768233154989        3.89518237718216       -2.06033188264934
C            1.36495754862076        2.94194507635466       -1.51125783114639
C            2.30465650387391        3.36074221026688       -0.57790029670430
C            4.65740335724855        0.65086406266212       -0.12583963727454
C            4.75502686040774       -0.74025529084178       -0.20641888279277
N            6.01655156779669       -1.33279971981051       -0.37886067203696
C            7.13641214028149       -1.09584433345030        0.39066736169865
C            7.27790474529182       -0.30807401267895        1.52469103010358
C            8.52009941662571       -0.25867010464010        2.12858677406813
C            9.59887241197945       -0.98365431245126        1.62735783546188
C            9.45716896020111       -1.79493994487229        0.51616077202560
C            8.21892540591848       -1.85888259898570       -0.10680795821277
C            7.71272484972265       -2.59303497807919       -1.23572445164746
C            8.28521075973199       -3.48885455654061       -2.12726823356513
C            7.49686559681783       -4.01602016170119       -3.13392579958397
C            6.15916491765080       -3.64923348522660       -3.26420849821047
C            5.56736569603690       -2.75668393485007       -2.38982172749351
C            6.34794477858889       -2.24105229905960       -1.36342122725399
C            3.62523483487363       -1.53960535634367       -0.14796399825149
N            1.19558737583419       -3.09397309872459       -0.04804547773031
C            1.24408875079526       -5.87697246373648       -0.13064080049207
C            1.25194577821473       -7.25858175872645       -0.15414210165821
H            0.06672217260666       -9.04204274047230       -0.11206409822353
H           -2.07520217884178       -7.82544672660547        0.03710059226920
H           -2.08509866835144       -5.34898293740037        0.07526848667193
H           -3.66703102259566       -2.66928668021320        0.22053813288229
H           -6.49660657456703        0.12326409180390       -1.86549005057086
H           -8.74246798959553        0.20442349420192       -2.88466593210179
H          -10.60219499560494       -1.08052183258424       -1.93896485635431
H          -10.26479158921615       -2.51645187414884        0.04557798231789
H           -9.22624068349832       -3.87969882120989        2.20677986852772
H           -7.76635371611616       -4.79995499546907        3.97740140183169
H           -5.41755201518516       -4.12035541943068        4.14198058125065
H           -4.44146765027036       -2.51978356001106        2.54120182102339
H           -5.55731691467553        1.18056582500928        0.26191462724217
H           -5.41575453018136        2.12189040487607       -1.96829752062070
H           -6.46397026124812        3.98060456881133       -3.19503584090171
H           -5.69859848095729        6.28845408779570       -2.88720405063615
H           -3.83195462390298        6.80271056199335       -1.34770193986332
H           -1.76856341104736        6.68800131928076        0.45658891702315
H           -0.02509966930196        5.97077292851878        2.05908280862773
H            0.18846699695035        3.61784468194780        2.70099333746696
H           -1.30819653966591        1.90313120452723        1.76480066415302
H           -1.32438240150227        0.85804164742571       -0.32238180720737
H            1.30060199332307        0.88225232585255        0.27798650042208
H            5.35319625818255        2.22727393028952        1.97155087788092
H            6.36270619531581        4.11560577433057        3.18425604367919
H            5.57272554892658        6.40913496014442        2.83500261987782
H            3.71728210755322        6.87806508769304        1.26734684587894
H            1.67516253359962        6.71257238440571       -0.55407796434010
H           -0.04318245315668        5.95243017218307       -2.16414904493450
H           -0.21744291735058        3.58946302769352       -2.78027143738282
H            1.29296209560229        1.90696941564185       -1.80946908175470
H            5.53861403112447        1.26285361907866       -0.23314325093277
H            6.43886937205342        0.23426747300473        1.93148453124595
H            8.65537878005023        0.35061683578915        3.00995525639720
H           10.55557120293038       -0.91777364751482        2.12376486634868
H           10.28893738836817       -2.37212552397550        0.14189703798581
H            9.32466958564141       -3.76490442803482       -2.03564358086123
H            7.92273556307600       -4.71708814860735       -3.83622021132359
H            5.57092650697857       -4.06855601766469       -4.06722251025707
H            4.53360788917281       -2.46749290345164       -2.50518015371305
H            3.70414255034907       -2.61367021474110       -0.19834447558319
H            2.16371931422707       -5.31348856766539       -0.17627625355267
H            2.19043364388378       -7.78957665183885       -0.21948094069667

          :  Hamiltonian                  GFN2-xTB          :
         :: gradient norm              0.000044467068 Eh/a0 ::
         :: HOMO-LUMO gap              0.187622952762 eV    ::
         :: SCC energy              -193.854049055713 Eh    ::
         :: -> dispersion             -0.184784549486 Eh    ::
         :: -> Gsolv                  -0.080005791182 Eh    ::
         :: repulsion energy           3.523840394823 Eh    ::

    * Orbital Energies and Occupations

         #    Occupation            Energy/Eh            Energy/eV
      -------------------------------------------------------------
         1        2.0000           -0.6846430             -18.6301
       ...           ...                  ...                  ...
       166        2.0000           -0.4053824             -11.0310
       167        2.0000           -0.4044730             -11.0063
       168        2.0000           -0.3870060             -10.5310
       169        2.0000           -0.3859662             -10.5027
       170        2.0000           -0.3859603             -10.5025
       171        2.0000           -0.3849553             -10.4752
       172        1.9952           -0.3723520             -10.1322
       173        1.9922           -0.3718909             -10.1197
       174        1.9319           -0.3697759             -10.0621
       175        1.7519           -0.3683438             -10.0231
       176        1.6736           -0.3679789             -10.0132
       177        1.6553           -0.3679010             -10.0111
       178        0.9741           -0.2870373              -7.8107 (HOMO)
       179        0.0259           -0.2801423              -7.6231 (LUMO)
       180                         -0.2533694              -6.8945
       181                         -0.2527904              -6.8788
       182                         -0.2522811              -6.8649
       183                         -0.2519486              -6.8559
       184                         -0.2474275              -6.7328
       185                         -0.2392090              -6.5092
       186                         -0.2389262              -6.5015
       187                         -0.2307149              -6.2781
       188                         -0.2295005              -6.2450
       189                         -0.2294920              -6.2448
       ...                                ...                  ...
       347                          0.7386249              20.0990
      -------------------------------------------------------------
                  HL-Gap            0.0068950 Eh            0.1876 eV

     #   Z          covCN         q      C6AA      α(0)
     1   6 C        2.920    -0.027    28.664     8.780
     2   6 C        2.918    -0.030    28.739     8.791
     3   6 C        2.924    -0.028    28.711     8.787
     4   6 C        2.984    -0.008    28.219     8.714
     5   6 C        2.940     0.220    23.369     7.928
     6   7 N        1.841    -0.341    29.700     8.077
     7   6 C        2.947     0.186    24.033     8.041
     8   6 C        2.981    -0.012    28.320     8.729
     9   6 C        2.922    -0.051    29.262     8.871
    10   6 C        2.909     0.062    26.607     8.458
    11   7 N        2.803    -0.031    21.837     6.940
    12   6 C        3.075     0.048    26.856     8.497
    13   6 C        2.910    -0.046    29.146     8.853
    14   6 C        2.923    -0.032    28.809     8.802
    15   6 C        2.920    -0.037    28.931     8.820
    16   6 C        2.912    -0.031    28.781     8.797
    17   6 C        3.066    -0.015    28.310     8.725
    18   6 C        3.067    -0.015    28.307     8.724
    19   6 C        2.912    -0.032    28.788     8.798
    20   6 C        2.920    -0.037    28.928     8.820
    21   6 C        2.923    -0.032    28.810     8.802
    22   6 C        2.909    -0.046    29.143     8.852
    23   6 C        3.075     0.048    26.849     8.496
    24   6 C        2.922    -0.071    29.768     8.947
    25   6 C        2.907     0.062    26.612     8.459
    26   7 N        2.802    -0.029    21.806     6.935
    27   6 C        3.071     0.048    26.861     8.498
    28   6 C        2.910    -0.047    29.157     8.854
    29   6 C        2.923    -0.033    28.810     8.802
    30   6 C        2.920    -0.037    28.923     8.819
    31   6 C        2.912    -0.031    28.776     8.796
    32   6 C        3.066    -0.014    28.283     8.720
    33   6 C        3.066    -0.014    28.288     8.721
    34   6 C        2.912    -0.030    28.753     8.793
    35   6 C        2.920    -0.036    28.887     8.814
    36   6 C        2.923    -0.032    28.799     8.800
    37   6 C        2.910    -0.046    29.143     8.852
    38   6 C        3.074     0.047    26.859     8.497
    39   6 C        2.930    -0.052    29.297     8.877
    40   7 N        1.854    -0.297    28.558     7.921
    41   6 C        2.946     0.185    24.046     8.043
    42   6 C        2.981    -0.013    28.326     8.730
    43   6 C        2.930    -0.052    29.303     8.877
    44   6 C        2.907     0.062    26.614     8.459
    45   7 N        2.802    -0.029    21.801     6.935
    46   6 C        3.071     0.048    26.861     8.498
    47   6 C        2.910    -0.047    29.156     8.854
    48   6 C        2.923    -0.033    28.810     8.802
    49   6 C        2.920    -0.037    28.922     8.819
    50   6 C        2.912    -0.031    28.775     8.796
    51   6 C        3.066    -0.013    28.281     8.720
    52   6 C        3.066    -0.014    28.286     8.721
    53   6 C        2.912    -0.030    28.751     8.793
    54   6 C        2.920    -0.036    28.886     8.814
    55   6 C        2.923    -0.032    28.800     8.801
    56   6 C        2.910    -0.046    29.142     8.852
    57   6 C        3.074     0.047    26.859     8.497
    58   6 C        2.922    -0.071    29.776     8.948
    59   6 C        2.909     0.062    26.609     8.458
    60   7 N        2.803    -0.031    21.836     6.940
    61   6 C        3.075     0.048    26.855     8.496
    62   6 C        2.910    -0.046    29.145     8.852
    63   6 C        2.923    -0.032    28.809     8.802
    64   6 C        2.920    -0.037    28.930     8.820
    65   6 C        2.912    -0.031    28.781     8.797
    66   6 C        3.066    -0.015    28.310     8.725
    67   6 C        3.067    -0.015    28.308     8.724
    68   6 C        2.912    -0.032    28.788     8.798
    69   6 C        2.920    -0.037    28.928     8.820
    70   6 C        2.923    -0.032    28.809     8.802
    71   6 C        2.909    -0.046    29.142     8.852
    72   6 C        3.075     0.048    26.848     8.495
    73   6 C        2.922    -0.051    29.266     8.871
    74   7 N        1.841    -0.340    29.678     8.074
    75   6 C        2.924    -0.028    28.711     8.787
    76   6 C        2.918    -0.030    28.740     8.791
    77   1 H        0.926     0.044     2.391     2.418
    78   1 H        0.926     0.042     2.423     2.434
    79   1 H        0.926     0.044     2.395     2.420
    80   1 H        0.926     0.048     2.342     2.393
    81   1 H        0.926     0.032     2.554     2.499
    82   1 H        0.926     0.038     2.474     2.460
    83   1 H        0.926     0.037     2.489     2.467
    84   1 H        0.926     0.039     2.459     2.452
    85   1 H        0.926     0.040     2.445     2.445
    86   1 H        0.926     0.037     2.487     2.466
    87   1 H        0.926     0.035     2.512     2.478
    88   1 H        0.926     0.031     2.579     2.511
    89   1 H        0.926     0.049     2.326     2.385
    90   1 H        0.926     0.034     2.525     2.485
    91   1 H        0.926     0.038     2.474     2.460
    92   1 H        0.926     0.037     2.485     2.465
    93   1 H        0.926     0.040     2.445     2.445
    94   1 H        0.926     0.043     2.410     2.428
    95   1 H        0.926     0.039     2.466     2.455
    96   1 H        0.926     0.033     2.548     2.496
    97   1 H        0.926     0.031     2.571     2.507
    98   1 H        0.926     0.052     2.296     2.370
    99   1 H        0.926     0.052     2.296     2.369
   100   1 H        0.926     0.035     2.522     2.483
   101   1 H        0.926     0.038     2.474     2.460
   102   1 H        0.926     0.037     2.484     2.465
   103   1 H        0.926     0.040     2.445     2.445
   104   1 H        0.926     0.043     2.409     2.427
   105   1 H        0.926     0.039     2.465     2.455
   106   1 H        0.926     0.033     2.547     2.496
   107   1 H        0.926     0.031     2.570     2.507
   108   1 H        0.926     0.049     2.328     2.386
   109   1 H        0.926     0.032     2.555     2.500
   110   1 H        0.926     0.038     2.474     2.460
   111   1 H        0.926     0.037     2.488     2.467
   112   1 H        0.926     0.039     2.459     2.452
   113   1 H        0.926     0.040     2.445     2.445
   114   1 H        0.926     0.037     2.486     2.466
   115   1 H        0.926     0.035     2.511     2.478
   116   1 H        0.926     0.031     2.577     2.510
   117   1 H        0.926     0.048     2.344     2.394
   118   1 H        0.926     0.044     2.396     2.421
   119   1 H        0.926     0.042     2.423     2.434

molecular dipole:
                 x           y           z       tot (Debye)
 q only:       -0.010       1.664       0.007
   full:       -0.007       1.408       0.006       3.579

 projected vibrational frequencies (cm⁻¹)
eigval :       -0.00    -0.00    -0.00     0.00     0.00     0.00
eigval :        7.32    11.45    13.25    14.38    16.86    19.02
eigval :       21.30    22.36    26.20    30.39    32.14    36.29
eigval :       40.04    53.30    57.35    57.95    64.45    68.55
eigval :       86.78    91.75   101.11   102.79   104.92   105.66
eigval :      117.91   120.54   136.72   138.88   139.18   140.15
eigval :      145.70   146.13   155.99   167.76   189.86   192.79
eigval :      204.00   216.06   218.02   225.79   232.24   249.64
eigval :      253.38   257.54   258.19   271.16   272.38   272.89
eigval :      274.55   279.99   289.45   307.81   309.84   325.87
eigval :      339.66   363.27   365.43   366.13   374.15   379.19
eigval :      391.60   393.17   395.49   395.64   413.93   420.64
eigval :      421.21   422.36   422.54   430.98   434.34   434.89
eigval :      435.15   436.33   449.52   467.09   506.38   508.70
eigval :      509.66   516.53   516.79   517.02   517.17   533.66
eigval :      537.36   537.67   537.93   539.14   539.23   545.27
eigval :      561.84   566.74   569.45   573.11   576.66   585.74
eigval :      586.21   586.80   588.83   590.21   593.97   619.38
eigval :      619.74   620.54   636.40   640.97   641.78   645.01
eigval :      653.95   655.64   665.90   667.52   673.70   673.88
eigval :      674.21   674.31   703.35   708.86   709.12   709.38
eigval :      709.45   717.80   747.58   747.83   754.72   755.63
eigval :      765.40   766.69   767.03   768.10   768.78   769.03
eigval :      770.04   778.38   779.30   780.21   780.58   814.84
eigval :      815.94   819.97   830.60   846.47   851.16   858.92
eigval :      861.14   863.17   865.81   867.17   873.62   874.29
eigval :      875.62   877.24   880.76   886.10   892.16   894.32
eigval :      894.75   898.29   898.33   899.22   900.18   903.25
eigval :      903.92   905.31   906.12   906.83   908.33   908.60
eigval :      919.08   919.45   922.10   922.19   925.34   925.76
eigval :      925.94   928.36   928.64   929.33   930.61   977.32
eigval :      986.53   991.30   992.69  1002.56  1010.21  1010.41
eigval :     1011.74  1015.40  1027.72  1028.96  1062.20  1064.40
eigval :     1067.72  1068.51  1069.55  1070.69  1072.41  1073.67
eigval :     1074.96  1087.91  1107.16  1109.74  1112.82  1116.00
eigval :     1117.74  1124.67  1141.18  1142.35  1146.44  1147.17
eigval :     1151.69  1160.10  1160.89  1174.46  1174.96  1175.84
eigval :     1176.61  1178.11  1178.27  1178.43  1179.19  1179.66
eigval :     1186.23  1192.10  1201.94  1212.57  1215.62  1224.58
eigval :     1226.02  1230.45  1231.08  1231.46  1232.33  1234.26
eigval :     1236.41  1246.53  1267.29  1281.56  1286.77  1288.46
eigval :     1289.05  1290.08  1292.06  1292.26  1293.73  1300.01
eigval :     1321.87  1324.33  1326.50  1327.67  1333.04  1342.53
eigval :     1345.55  1347.38  1347.45  1348.67  1352.13  1355.41
eigval :     1355.86  1356.18  1357.41  1360.30  1387.97  1396.16
eigval :     1409.62  1410.60  1413.15  1414.03  1414.79  1415.77
eigval :     1422.53  1434.50  1435.21  1437.25  1441.13  1442.38
eigval :     1459.69  1464.77  1465.00  1465.12  1466.65  1471.48
eigval :     1482.18  1482.32  1482.67  1482.83  1509.19  1511.29
eigval :     1535.21  1558.16  1566.28  1566.37  1567.09  1567.95
eigval :     1580.57  1580.92  1581.70  1583.22  1583.75  1584.02
eigval :     1584.26  1584.41  1584.66  1591.17  1599.05  1601.62
eigval :     1602.17  1607.21  3073.15  3076.01  3076.47  3076.54
eigval :     3076.60  3077.05  3077.86  3078.06  3078.19  3078.72
eigval :     3081.81  3082.43  3084.10  3084.29  3084.96  3085.16
eigval :     3086.01  3086.35  3086.89  3088.80  3089.08  3090.03
eigval :     3090.53  3092.25  3092.55  3093.84  3094.49  3094.90
eigval :     3095.31  3095.69  3097.34  3097.90  3097.99  3098.27
eigval :     3099.86  3105.10  3105.30  3108.45  3108.68  3111.56
eigval :     3111.93  3115.95  3117.38

   temp. (K)  partition function   enthalpy   heat capacity  entropy
                                   cal/mol     cal/K/mol   cal/K/mol   J/K/mol
 298.15  VIB  0.239E+29            35150.653    221.142    219.017
         ROT  0.297E+09              888.752      2.981     41.754
         INT  0.710E+37            36039.405    224.123    260.771
         TR   0.292E+29             1481.254      4.968     46.470
         TOT                       37520.6590   229.0907   307.2406  1285.4946

       T/K    H(0)-H(T)+PV         H(T)/Eh          T*S/Eh         G(T)/Eh
   ------------------------------------------------------------------------
    298.15    0.597930E-01    0.957408E+00    0.145980E+00    0.811428E+00
   ------------------------------------------------------------------------

         :::::::::::::::::::::::::::::::::::::::::::::::::::::
         ::                  THERMODYNAMIC                  ::
         :::::::::::::::::::::::::::::::::::::::::::::::::::::
         :: total free energy        -189.518780351830 Eh   ::
         ::.................................................::
         :: total energy             -190.330208673472 Eh   ::
         :: zero point energy           0.897615255531 Eh   ::
         :: G(RRHO) w/o ZPVE           -0.086186933889 Eh   ::
         :: G(RRHO) contrib.            0.811428321642 Eh   ::
         :::::::::::::::::::::::::::::::::::::::::::::::::::::

           -------------------------------------------------
          | TOTAL ENERGY             -190.330208673472 Eh   |
          | TOTAL ENTHALPY           -189.372800441860 Eh   |
          | TOTAL FREE ENERGY        -189.518780351830 Eh   |
          | GRADIENT NORM               0.000036683931 Eh/α |
          | HOMO-LUMO GAP               0.187622484532 eV   |
           -------------------------------------------------

 * finished run on 2025/09/08 at 22:53:22.606
