   * xtb version 6.7.1 (edcfbbe) compiled by 'albert@albert-system' on 2024-07-22

   ID    Z sym.   atoms
    1    6 C      1-24, 26-31, 33-47, 49, 50
    2    7 N      25, 32, 48
    3    1 H      51-79

          program call               : xtb data2507/gas/SFCz/SFCz_gas_T1_crest.xyz --gfn 2 --spinpol --tblite --uhf 2 --ohess vtight --parallel 40 --molden --ceasefiles --namespace data2507/gas/SFCz/SFCz_gas_T1_finalOpt
 * total energy  :  -124.1921567 Eh     change       -0.3757698E-07 Eh
 * total energy  :  -124.1921962 Eh     change       -0.3954314E-04 Eh
 * total energy  :  -124.1922239 Eh     change       -0.2767107E-04 Eh
 * total energy  :  -124.1922263 Eh     change       -0.2393264E-05 Eh
 * total energy  :  -124.1922287 Eh     change       -0.2366264E-05 Eh
 * total energy  :  -124.1922300 Eh     change       -0.1322516E-05 Eh
 * total energy  :  -124.1922313 Eh     change       -0.1312520E-05 Eh
 * total energy  :  -124.1922330 Eh     change       -0.1706674E-05 Eh
 * total energy  :  -124.1922349 Eh     change       -0.1928698E-05 Eh
 * total energy  :  -124.1922365 Eh     change       -0.1559685E-05 Eh
 * total energy  :  -124.1922391 Eh     change       -0.6488807E-06 Eh
 * total energy  :  -124.1922397 Eh     change       -0.6701127E-06 Eh
 * total energy  :  -124.1922404 Eh     change       -0.6841886E-06 Eh
 * total energy  :  -124.1922409 Eh     change       -0.4804844E-06 Eh
 * total energy  :  -124.1922412 Eh     change       -0.3259246E-06 Eh
 * total energy  :  -124.1922415 Eh     change       -0.3013102E-06 Eh
 * total energy  :  -124.1922418 Eh     change       -0.2897979E-06 Eh
 * total energy  :  -124.1922423 Eh     change       -0.4252163E-06 Eh
 * total energy  :  -124.1922423 Eh     change       -0.2581558E-08 Eh
   *** GEOMETRY OPTIMIZATION CONVERGED AFTER 22 ITERATIONS ***

 final structure:
================
79
 xtb: 6.7.1 (edcfbbe)
C           -5.84164008241652       -1.31757409724817       -4.19002512712147
C           -5.88144953534763        0.04095596138976       -3.91367658955126
C           -5.88285354862716        0.50054981052329       -2.60358645175569
C           -5.84363952717878       -0.42498372117199       -1.58410565070678
C           -5.80270732152139       -1.80008611546807       -1.85730848310904
C           -5.80159724111329       -2.25120893037560       -3.16693696048176
C           -5.76946226622490       -2.51966743008087       -0.59407177480824
C           -5.72466848867639       -3.87566369447887       -0.31502809509448
C           -5.70210642277656       -4.27965935125361        1.01023362722216
C           -5.72353748100381       -3.34977512812139        2.03906442171782
C           -5.76855105841658       -1.98907183335667        1.76708839545220
C           -5.79140022122285       -1.58396940552033        0.45062704114065
C           -5.84188542128159       -0.17859959991297       -0.09545627410619
C           -7.04059820682293        0.60694577575559        0.37969593743814
C           -8.37292406722338        0.29795582514532        0.23956572451832
C           -9.31634554578115        1.17798146659699        0.75865836439815
C           -8.92110318667873        2.34264233381437        1.40383330489229
C           -7.58245661115210        2.65922572561578        1.54775050911846
C           -6.63008096730977        1.78587735648028        1.03252680015046
C           -5.19246218200763        1.83993833850098        1.02826683348669
C           -4.29800119058669        2.78379540419054        1.53837193111853
C           -2.95101402475533        2.57547939972824        1.39205081185592
C           -2.44812551632477        1.42532903898900        0.73680760796996
C           -1.05585450598843        1.22728613902247        0.60630114404553
N           -0.16227688286862        2.11189632931616        1.12154478216436
C            1.10715620056465        1.93739317274777        1.01938414390388
C            1.70693929884785        0.81471597142394        0.37396096324297
C            3.11248707365777        0.59727163009643        0.26909522007059
C            4.03769966649631        1.65305754420647        0.42053781164719
C            5.38959428987799        1.44170545040406        0.32914401525120
C            5.89398581338523        0.16150615180810        0.07729134366288
N            7.27038051137245       -0.05568059248928       -0.01340188254306
C            8.15780550237292        0.68420552075545       -0.76921843565655
C            7.91443752077297        1.74467154206434       -1.63144081757824
C            8.99354716347341        2.29619523188065       -2.29607928395748
C           10.28451777394797        1.80366641426124       -2.12114643302994
C           10.52918153920954        0.73015585469107       -1.28547906638406
C            9.46201868689364        0.16062202791875       -0.60668799691578
C            9.34534846507561       -0.94967124034297        0.29904660073113
C           10.26229487785512       -1.83435332756294        0.84728364446696
C            9.80743030605802       -2.79614357774023        1.72971218027438
C            8.46115826425815       -2.86908806572755        2.07903785795241
C            7.52918586111027       -1.99834324569030        1.54649586148519
C            7.97536648752215       -1.04825656455673        0.63790215438255
C            4.99458561984603       -0.89823915509049       -0.08079485789329
C            3.64316787023144       -0.68611159443784        0.01380714249379
C            0.71006560737644       -0.06345801212110       -0.14770031735328
N           -0.55387270537579        0.14075578232709       -0.03574662715623
C           -3.35850664468546        0.47205182587049        0.22006368153599
C           -4.69626293548461        0.68976710440001        0.37047558193374
H           -5.84225723301274       -1.65140881013134       -5.21769296584564
H           -5.91234199653715        0.75006010916744       -4.72798856463255
H           -5.91415035894409        1.55855241734104       -2.38725210936205
H           -5.77093887800990       -3.30811028012319       -3.38744020280899
H           -5.70778540058054       -4.60383528228007       -1.11257640453613
H           -5.66743767893166       -5.33346609967794        1.24658617201871
H           -5.70519947418190       -3.68869583483746        3.06459024444461
H           -5.78514133582567       -1.26392669480028        2.56773814815496
H           -8.67997969141816       -0.60812501318973       -0.26280313933432
H          -10.36796570640021        0.95325768020342        0.65879708207183
H           -9.67316792510972        3.01045847731584        1.79903582137206
H           -7.28091177162038        3.56600529089236        2.05076475472963
H           -4.66689757230390        3.66345123396525        2.04541442313537
H           -2.23561233915789        3.28350698344462        1.78223524664722
H            1.72640355109872        2.67393604568398        1.51537904320742
H            3.67645357101779        2.65193264003667        0.61244213385280
H            6.07833936908826        2.26047382796646        0.47663039564053
H            6.91487060705513        2.11925518155061       -1.79068408970114
H            8.83085454846117        3.12425738649838       -2.96979328297402
H           11.10176164566851        2.26309366490177       -2.65664129956032
H           11.52717384581127        0.33690185305644       -1.16486471090324
H           11.30881039669680       -1.76628414580004        0.59164319000270
H           10.50444375806228       -3.49606542190306        2.16559853949138
H            8.13858551149179       -3.61931683448910        2.78554185629783
H            6.49193002534585       -2.04888244602021        1.84036983380920
H            5.37527240149671       -1.88440411355828       -0.30234219195499
H            2.97233818790288       -1.52292726919820       -0.10772483823543
H            0.99905266707069       -0.92989405341710       -0.72885601936080
H           -2.97460934598985       -0.40193911757699       -0.28395932058588

 projected vibrational frequencies (cm⁻¹)
eigval :       -0.00    -0.00    -0.00    -0.00    -0.00     0.00
eigval :        8.19     9.67    15.97    21.89    29.20    38.09
eigval :       40.28    49.23    57.34    67.38    77.93    90.12
eigval :       97.94   101.06   104.65   112.55   129.08   136.63
eigval :      144.07   150.87   174.31   197.68   207.97   230.91
eigval :      232.20   235.37   247.83   271.05   276.32   286.24
eigval :      303.57   327.10   340.64   351.16   380.68   385.93
eigval :      389.30   394.28   398.43   413.25   414.15   415.33
eigval :      416.75   420.93   427.28   438.17   444.11   464.67
eigval :      467.99   474.99   495.70   496.79   504.20   517.10
eigval :      523.54   536.81   538.41   538.66   550.41   578.99
eigval :      579.41   589.17   591.18   602.12   607.91   610.83
eigval :      620.21   630.37   652.01   656.18   669.70   674.14
eigval :      677.93   678.09   691.70   700.59   708.95   717.36
eigval :      735.37   736.85   753.75   757.02   765.85   768.61
eigval :      769.19   779.16   785.82   791.13   796.90   797.44
eigval :      808.62   817.30   842.22   857.63   869.61   871.19
eigval :      871.61   878.38   879.42   895.65   897.00   901.59
eigval :      901.98   903.18   906.18   908.85   909.92   909.99
eigval :      911.97   917.27   919.66   921.80   923.70   926.07
eigval :      926.71   927.62   929.85   948.09   997.77  1003.93
eigval :     1008.95  1011.21  1043.06  1047.88  1057.98  1069.41
eigval :     1072.64  1073.02  1073.70  1078.29  1080.09  1115.45
eigval :     1126.56  1141.44  1143.53  1146.02  1149.04  1161.54
eigval :     1165.78  1173.76  1175.00  1178.35  1179.74  1180.54
eigval :     1181.10  1195.42  1208.42  1210.69  1214.78  1225.17
eigval :     1233.28  1243.06  1244.75  1249.58  1259.71  1261.87
eigval :     1264.50  1275.07  1279.25  1286.89  1293.28  1295.97
eigval :     1321.62  1327.97  1335.21  1336.56  1350.10  1353.24
eigval :     1356.24  1361.13  1366.65  1383.96  1414.01  1419.07
eigval :     1423.36  1425.17  1428.65  1430.23  1441.69  1451.11
eigval :     1462.57  1462.72  1466.23  1471.84  1483.60  1485.75
eigval :     1488.34  1501.51  1513.11  1544.06  1564.79  1570.38
eigval :     1579.34  1583.71  1584.49  1587.16  1592.63  1595.62
eigval :     1601.33  1602.68  1604.05  1610.36  3034.29  3038.09
eigval :     3071.06  3071.14  3071.76  3074.94  3076.22  3076.22
eigval :     3077.23  3079.86  3080.39  3080.60  3081.97  3082.70
eigval :     3084.42  3084.82  3085.18  3086.58  3089.96  3090.73
eigval :     3090.94  3091.62  3092.22  3093.29  3093.48  3093.89
eigval :     3094.47  3098.21  3099.43

   temp. (K)  partition function   enthalpy   heat capacity  entropy
                                   cal/mol     cal/K/mol   cal/K/mol   J/K/mol
 298.15  VIB  0.142E+18            22155.014    143.721    136.990
         ROT  0.131E+09              888.752      2.981     40.117
         INT  0.185E+26            23043.767    146.702    177.107
         TR   0.155E+29             1481.254      4.968     45.211
         TOT                       24525.0206   151.6698   222.3174   930.1761

       T/K    H(0)-H(T)+PV         H(T)/Eh          T*S/Eh         G(T)/Eh
   ------------------------------------------------------------------------
    298.15    0.390831E-01    0.637090E+00    0.105630E+00    0.531460E+00
   ------------------------------------------------------------------------

         :::::::::::::::::::::::::::::::::::::::::::::::::::::
         ::                  THERMODYNAMIC                  ::
         :::::::::::::::::::::::::::::::::::::::::::::::::::::
         :: total free energy        -123.660782284483 Eh   ::
         ::.................................................::
         :: total energy             -124.192242248768 Eh   ::
         :: zero point energy           0.598007035638 Eh   ::
         :: G(RRHO) w/o ZPVE           -0.066547071353 Eh   ::
         :: G(RRHO) contrib.            0.531459964285 Eh   ::
         :::::::::::::::::::::::::::::::::::::::::::::::::::::

           -------------------------------------------------
          | TOTAL ENERGY             -124.192242248768 Eh   |
          | TOTAL ENTHALPY           -123.555152105115 Eh   |
          | TOTAL FREE ENERGY        -123.660782284483 Eh   |
          | GRADIENT NORM               0.000069527821 Eh/α |
           -------------------------------------------------

 * finished run on 2025/09/03 at 18:38:19.786
