   * xtb version 6.7.1 (edcfbbe) compiled by 'albert@albert-system' on 2024-07-22

   ID    Z sym.   atoms
    1    6 C      1-24, 26-31, 33-47, 49, 50
    2    7 N      25, 32, 48
    3    1 H      51-79

          program call               : xtb data2507/gas/SFCz/SFCz_gas_S0_crest.xyz --gfn 2 --ohess vtight --parallel 40 --molden --ceasefiles --namespace data2507/gas/SFCz/SFCz_gas_S0_finalOpt
          :  Hamiltonian                  GFN2-xTB          :
 * total energy  :  -124.2667211 Eh     change       -0.2853710E-08 Eh
 * total energy  :  -124.2667230 Eh     change       -0.1947990E-05 Eh
 * total energy  :  -124.2667253 Eh     change       -0.2291194E-05 Eh
 * total energy  :  -124.2667302 Eh     change       -0.4854560E-05 Eh
 * total energy  :  -124.2667352 Eh     change       -0.5023642E-05 Eh
 * total energy  :  -124.2667401 Eh     change       -0.4942639E-05 Eh
 * total energy  :  -124.2667463 Eh     change       -0.6157598E-05 Eh
 * total energy  :  -124.2667524 Eh     change       -0.6096483E-05 Eh
 * total energy  :  -124.2667561 Eh     change       -0.3682716E-05 Eh
 * total energy  :  -124.2667582 Eh     change       -0.2102705E-05 Eh
 * total energy  :  -124.2667674 Eh     change       -0.1873077E-05 Eh
 * total energy  :  -124.2667689 Eh     change       -0.1505511E-05 Eh
 * total energy  :  -124.2667703 Eh     change       -0.1462610E-05 Eh
 * total energy  :  -124.2667718 Eh     change       -0.1468572E-05 Eh
 * total energy  :  -124.2667732 Eh     change       -0.1382871E-05 Eh
 * total energy  :  -124.2667745 Eh     change       -0.1281357E-05 Eh
 * total energy  :  -124.2667757 Eh     change       -0.1228141E-05 Eh
 * total energy  :  -124.2667768 Eh     change       -0.1135202E-05 Eh
 * total energy  :  -124.2667769 Eh     change       -0.7938311E-08 Eh
   *** GEOMETRY OPTIMIZATION CONVERGED AFTER 22 ITERATIONS ***

 final structure:
================
79
 xtb: 6.7.1 (edcfbbe)
C           -5.79469501445578       -2.58830989208090       -3.51056407946352
C           -5.82163846841120       -1.21487335624535       -3.70018192450241
C           -5.83120072347226       -0.34737766550517       -2.61602210047414
C           -5.81327099655124       -0.88413616001554       -1.34776528564424
C           -5.78579278828758       -2.27180681692813       -1.14922491911277
C           -5.77638013053454       -3.13091647439713       -2.23560694177380
C           -5.77378487590990       -2.53255416581075        0.28160282737313
C           -5.74893615429609       -3.72010837335309        0.99383412590979
C           -5.74475172719505       -3.66308927175767        2.37837832760044
C           -5.76469366750026       -2.44529292792161        3.04133606397851
C           -5.78972129326941       -1.25061823396402        2.33403446059205
C           -5.79423751901112       -1.30417496234665        0.95776542415524
C           -5.82245331715819       -0.15762939736639       -0.02345105337632
C           -7.01380694017405        0.75366158464380        0.14322895534392
C           -8.35166198123814        0.42742880924431        0.10753863788515
C           -9.28387897026275        1.44136948030886        0.28305114893032
C           -8.87900751017014        2.75221302548944        0.48817272584537
C           -7.53460204948824        3.08431600139394        0.52426427188595
C           -6.59812119961186        2.07759301803126        0.35095418490225
C           -5.14634555636311        2.11135476512038        0.34240919621055
C           -4.25378248998547        3.16168976361829        0.49989138117466
C           -2.89920569821535        2.89614454929401        0.44876314877154
C           -2.42659168894609        1.59646596246558        0.24877529258660
C           -0.99025539135934        1.34262442061036        0.20906850478486
N           -0.16600310739717        2.39036755434898        0.27118635105203
C            1.12673083976045        2.15716932631996        0.22945586607644
C            1.66673605807156        0.87001539738320        0.14385501490791
C            3.10437242668361        0.61596943483414        0.10968170166007
C            3.98476014287619        1.40681595164540        0.84827642452827
C            5.34286830916335        1.16830455406368        0.81962357715612
C            5.85702071865650        0.13541884016541        0.03891359522616
N            7.23473062186394       -0.10306369541509        0.00146571415562
C            8.21293319435023        0.84436383776110       -0.23267035159857
C            8.08376570702870        2.19386254524055       -0.52744212601664
C            9.23876698348921        2.91830864380763       -0.75237814024272
C           10.49551616812973        2.32010167727391       -0.69586868519735
C           10.62873132987785        0.97262299321264       -0.42683644783032
C            9.48234385220272        0.22346900073524       -0.19733069227824
C            9.24983878597018       -1.16650179087314        0.08024655354818
C           10.08916605581987       -2.25901113310713        0.25357130048201
C            9.52645995592076       -3.48624671734081        0.54182133810165
C            8.14693141336948       -3.62868632564055        0.67249084627654
C            7.29144163843713       -2.55660584297672        0.50444698408636
C            7.84962756487753       -1.32588165650206        0.19065364047671
C            4.98499668709319       -0.65671223587045       -0.70459345954776
C            3.62666092533105       -0.42111106430933       -0.66341647072461
C            0.71262952475798       -0.15124136481577        0.09254276916111
N           -0.58157719212034        0.07600112444114        0.11455403008613
C           -3.32529859323440        0.53659943342966        0.08829424989414
C           -4.67102763390437        0.80602461424655        0.13323331020364
H           -5.78798358736264       -3.24349317070299       -4.36962340237503
H           -5.83558382031616       -0.81487168056373       -4.70340211394736
H           -5.85240780371500        0.72280030348072       -2.76294634748764
H           -5.75527267014437       -4.20125079275203       -2.09338987491552
H           -5.73322737152837       -4.67099098760348        0.48207799527486
H           -5.72570149471505       -4.57956004687438        2.95022848018540
H           -5.76073618239739       -2.42571133818674        4.12126371611312
H           -5.80523335806142       -0.30156023119617        2.85007741452557
H           -8.66677921328519       -0.59341384383039       -0.05268049316005
H          -10.33784012303330        1.20653303746046        0.25943637979136
H           -9.62336402691367        3.52368992070962        0.62175779330149
H           -7.22355935355654        4.10593302997812        0.68453501852551
H           -4.61067644147260        4.16837184861744        0.65928817896786
H           -2.17681196855626        3.68871774660612        0.56558463469683
H            1.76321214532999        3.03404320687972        0.24710377469565
H            3.59685404378766        2.19686315394114        1.47405054534730
H            6.01388343179315        1.76862008808077        1.41550670637108
H            7.11362971229555        2.66316383275119       -0.59256979231161
H            9.16475283247367        3.97123367636386       -0.98132299630780
H           11.37436836101155        2.92123069672554       -0.87554849203453
H           11.60139444651538        0.50506709947093       -0.39958233810195
H           11.15929034689633       -2.14464259689751        0.16885140532636
H           10.16111717091303       -4.34910435824657        0.67859612211243
H            7.73654848754423       -4.59794719609622        0.91469537709945
H            6.22516695109266       -2.67384487461332        0.62673931467910
H            5.38242206333910       -1.44384701782862       -1.32766049852949
H            2.96319079095570       -1.02806059476433       -1.26142943423249
H            1.00579714260892       -1.19360966806043        0.05028028738412
H           -2.94873866250151       -0.46220551723095       -0.06722986392740

          :  Hamiltonian                  GFN2-xTB          :
         :: gradient norm              0.000068257968 Eh/a0 ::
         :: HOMO-LUMO gap              2.105088320510 eV    ::
         :: SCC energy              -126.619569322241 Eh    ::
         :: -> dispersion             -0.112199391294 Eh    ::
         :: repulsion energy           2.352792468363 Eh    ::

    * Orbital Energies and Occupations

         #    Occupation            Energy/Eh            Energy/eV
      -------------------------------------------------------------
         1        2.0000           -0.6776237             -18.4391
       ...           ...                  ...                  ...
       104        2.0000           -0.4125899             -11.2271
       105        2.0000           -0.4118423             -11.2068
       106        2.0000           -0.4061691             -11.0524
       107        2.0000           -0.4056718             -11.0389
       108        2.0000           -0.4026485             -10.9566
       109        2.0000           -0.4002256             -10.8907
       110        2.0000           -0.3960825             -10.7780
       111        2.0000           -0.3942005             -10.7267
       112        2.0000           -0.3820097             -10.3950
       113        2.0000           -0.3789721             -10.3124
       114        2.0000           -0.3770822             -10.2609
       115        2.0000           -0.3642669              -9.9122
       116        2.0000           -0.3602058              -9.8017 (HOMO)
       117                         -0.2828453              -7.6966 (LUMO)
       118                         -0.2616180              -7.1190
       119                         -0.2510267              -6.8308
       120                         -0.2502921              -6.8108
       121                         -0.2438156              -6.6346
       122                         -0.2382255              -6.4824
       123                         -0.2263895              -6.1604
       124                         -0.2258020              -6.1444
       125                         -0.2244630              -6.1079
       126                         -0.2224526              -6.0532
       127                         -0.2221875              -6.0460
       ...                                ...                  ...
       229                          0.7456386              20.2899
      -------------------------------------------------------------
                  HL-Gap            0.0773606 Eh            2.1051 eV

     #   Z          covCN         q      C6AA      α(0)
     1   6 C        2.921    -0.032    28.802     8.801
     2   6 C        2.923    -0.031    28.779     8.797
     3   6 C        2.914    -0.032    28.807     8.801
     4   6 C        3.057     0.007    27.806     8.648
     5   6 C        3.036     0.002    27.945     8.671
     6   6 C        2.915    -0.033    28.829     8.805
     7   6 C        3.037     0.002    27.945     8.671
     8   6 C        2.915    -0.033    28.827     8.804
     9   6 C        2.921    -0.032    28.799     8.800
    10   6 C        2.923    -0.031    28.775     8.797
    11   6 C        2.914    -0.032    28.801     8.800
    12   6 C        3.056     0.007    27.810     8.648
    13   6 C        3.979     0.009    20.357     6.410
    14   6 C        3.057     0.008    27.776     8.643
    15   6 C        2.913    -0.032    28.799     8.800
    16   6 C        2.923    -0.030    28.756     8.794
    17   6 C        2.921    -0.032    28.797     8.800
    18   6 C        2.914    -0.033    28.814     8.802
    19   6 C        3.036     0.002    27.947     8.671
    20   6 C        3.037     0.005    27.864     8.658
    21   6 C        2.913    -0.033    28.827     8.804
    22   6 C        2.925    -0.030    28.757     8.794
    23   6 C        2.986    -0.001    28.041     8.686
    24   6 C        2.963     0.178    24.175     8.065
    25   7 N        1.839    -0.250    27.362     7.752
    26   6 C        2.926     0.075    26.328     8.415
    27   6 C        2.965    -0.016    28.402     8.742
    28   6 C        2.974     0.004    27.939     8.670
    29   6 C        2.924    -0.033    28.821     8.804
    30   6 C        2.920    -0.042    29.048     8.838
    31   6 C        2.913     0.065    26.540     8.448
    32   7 N        2.802    -0.043    22.077     6.979
    33   6 C        3.075     0.046    26.880     8.500
    34   6 C        2.910    -0.051    29.260     8.870
    35   6 C        2.924    -0.033    28.827     8.805
    36   6 C        2.920    -0.040    29.005     8.832
    37   6 C        2.913    -0.033    28.811     8.802
    38   6 C        3.068    -0.016    28.351     8.731
    39   6 C        3.068    -0.016    28.351     8.731
    40   6 C        2.913    -0.033    28.812     8.802
    41   6 C        2.920    -0.040    29.005     8.832
    42   6 C        2.924    -0.033    28.827     8.805
    43   6 C        2.910    -0.051    29.260     8.870
    44   6 C        3.075     0.047    26.880     8.500
    45   6 C        2.920    -0.042    29.047     8.838
    46   6 C        2.924    -0.033    28.820     8.804
    47   6 C        2.926     0.075    26.321     8.413
    48   7 N        1.839    -0.249    27.351     7.750
    49   6 C        2.918    -0.031    28.767     8.795
    50   6 C        3.054     0.008    27.783     8.644
    51   1 H        0.926     0.031     2.572     2.508
    52   1 H        0.926     0.031     2.570     2.507
    53   1 H        0.926     0.028     2.617     2.530
    54   1 H        0.926     0.032     2.556     2.500
    55   1 H        0.926     0.032     2.557     2.501
    56   1 H        0.926     0.031     2.572     2.508
    57   1 H        0.926     0.031     2.569     2.507
    58   1 H        0.926     0.028     2.615     2.529
    59   1 H        0.926     0.030     2.588     2.516
    60   1 H        0.926     0.033     2.551     2.498
    61   1 H        0.926     0.032     2.556     2.500
    62   1 H        0.926     0.033     2.539     2.492
    63   1 H        0.926     0.037     2.485     2.465
    64   1 H        0.926     0.058     2.223     2.332
    65   1 H        0.925     0.038     2.481     2.463
    66   1 H        0.926     0.038     2.473     2.459
    67   1 H        0.926     0.044     2.400     2.423
    68   1 H        0.926     0.027     2.632     2.537
    69   1 H        0.926     0.030     2.593     2.518
    70   1 H        0.926     0.029     2.605     2.524
    71   1 H        0.926     0.031     2.565     2.505
    72   1 H        0.926     0.031     2.565     2.505
    73   1 H        0.926     0.029     2.606     2.524
    74   1 H        0.926     0.030     2.593     2.518
    75   1 H        0.926     0.027     2.632     2.537
    76   1 H        0.926     0.044     2.401     2.423
    77   1 H        0.926     0.038     2.473     2.459
    78   1 H        0.925     0.037     2.483     2.464
    79   1 H        0.926     0.055     2.262     2.352

molecular dipole:
                 x           y           z       tot (Debye)
 q only:       -0.488       0.000       0.005
   full:       -0.106      -0.054      -0.003       0.303

 projected vibrational frequencies (cm⁻¹)
eigval :       -0.00    -0.00    -0.00    -0.00     0.00     0.00
eigval :        7.76     8.88    14.53    23.09    27.71    38.52
eigval :       40.69    50.73    51.41    57.02    77.66    86.45
eigval :       98.78   102.23   108.55   111.30   126.10   138.42
eigval :      144.76   151.76   176.17   199.09   208.66   231.70
eigval :      232.43   239.95   249.54   271.61   274.96   288.49
eigval :      303.88   334.59   361.61   362.97   377.56   384.21
eigval :      385.61   387.84   396.27   410.31   413.55   414.32
eigval :      422.04   425.04   433.88   441.22   461.20   469.54
eigval :      476.27   493.86   497.21   505.65   517.57   525.06
eigval :      528.80   536.97   538.84   541.16   569.94   582.51
eigval :      590.71   595.97   603.42   606.96   616.10   621.24
eigval :      631.64   634.58   658.41   673.92   687.02   688.81
eigval :      691.68   702.44   706.30   709.27   721.79   740.10
eigval :      754.11   755.89   758.71   766.23   769.69   773.08
eigval :      777.11   780.98   786.23   817.32   820.34   836.36
eigval :      866.01   870.05   874.34   878.09   878.69   879.25
eigval :      879.82   887.44   898.26   901.94   902.48   903.04
eigval :      908.87   910.35   912.41   919.20   919.45   920.58
eigval :      922.81   923.32   926.42   927.17   928.03   928.21
eigval :      931.64   934.20   951.26  1003.27  1008.95  1009.87
eigval :     1012.21  1029.14  1070.48  1072.83  1073.90  1074.04
eigval :     1076.55  1078.97  1084.78  1101.64  1118.19  1132.97
eigval :     1137.79  1143.82  1146.65  1152.82  1170.78  1176.72
eigval :     1177.89  1178.24  1181.33  1181.89  1184.12  1199.66
eigval :     1205.25  1207.47  1209.79  1216.62  1225.81  1236.60
eigval :     1245.23  1245.52  1253.56  1260.40  1261.89  1269.47
eigval :     1276.90  1285.33  1289.44  1300.57  1302.48  1315.33
eigval :     1327.28  1327.55  1333.13  1357.30  1361.89  1363.53
eigval :     1367.00  1369.19  1383.01  1410.57  1414.02  1422.67
eigval :     1428.22  1429.22  1432.10  1434.61  1438.17  1453.49
eigval :     1462.39  1472.36  1473.37  1476.16  1488.09  1502.12
eigval :     1514.00  1558.00  1559.33  1574.13  1575.46  1585.82
eigval :     1589.42  1592.44  1593.91  1596.70  1597.59  1599.32
eigval :     1603.05  1604.30  1604.78  1615.08  3034.31  3037.89
eigval :     3072.69  3073.28  3074.23  3076.56  3076.87  3076.91
eigval :     3077.61  3078.56  3081.42  3082.51  3082.60  3083.40
eigval :     3083.81  3084.92  3085.76  3086.46  3088.48  3090.10
eigval :     3091.57  3092.65  3093.27  3095.57  3096.08  3096.72
eigval :     3097.33  3106.83  3108.14

   temp. (K)  partition function   enthalpy   heat capacity  entropy
                                   cal/mol     cal/K/mol   cal/K/mol   J/K/mol
 298.15  VIB  0.172E+18            21907.850    141.401    136.008
         ROT  0.129E+09              888.752      2.981     40.096
         INT  0.222E+26            22796.603    144.382    176.104
         TR   0.155E+29             1481.254      4.968     45.211
         TOT                       24277.8568   149.3499   221.3149   925.9815

       T/K    H(0)-H(T)+PV         H(T)/Eh          T*S/Eh         G(T)/Eh
   ------------------------------------------------------------------------
    298.15    0.386892E-01    0.640997E+00    0.105154E+00    0.535843E+00
   ------------------------------------------------------------------------

         :::::::::::::::::::::::::::::::::::::::::::::::::::::
         ::                  THERMODYNAMIC                  ::
         :::::::::::::::::::::::::::::::::::::::::::::::::::::
         :: total free energy        -123.730933473584 Eh   ::
         ::.................................................::
         :: total energy             -124.266776853879 Eh   ::
         :: zero point energy           0.602308003658 Eh   ::
         :: G(RRHO) w/o ZPVE           -0.066464623364 Eh   ::
         :: G(RRHO) contrib.            0.535843380295 Eh   ::
         :::::::::::::::::::::::::::::::::::::::::::::::::::::

           -------------------------------------------------
          | TOTAL ENERGY             -124.266776853879 Eh   |
          | TOTAL ENTHALPY           -123.625779622803 Eh   |
          | TOTAL FREE ENERGY        -123.730933473584 Eh   |
          | GRADIENT NORM               0.000068259074 Eh/α |
          | HOMO-LUMO GAP               2.105088188899 eV   |
           -------------------------------------------------

 * finished run on 2025/09/03 at 18:32:25.655
