   * xtb version 6.7.1 (edcfbbe) compiled by 'albert@albert-system' on 2024-07-22

   ID    Z sym.   atoms
    1    6 C      1-24, 26-31, 33-47, 49, 50
    2    7 N      25, 32, 48
    3    1 H      51-79

          program call               : xtb data2507/gas/SFCz/SFCz_gas_S0_finalOpt.xtbopt.xyz --gfn 2 --spinpol --tblite --uhf 2 --ohess vtight --parallel 40 --molden --ceasefiles --namespace data2507/gas/SFCz/SFCz_gas_T1_preOpt
 * total energy  :  -124.1829652 Eh     change       -0.3059681E-07 Eh
 * total energy  :  -124.1886689 Eh     change       -0.5703684E-02 Eh
 * total energy  :  -124.1909322 Eh     change       -0.2263312E-02 Eh
 * total energy  :  -124.1911323 Eh     change       -0.2000473E-03 Eh
 * total energy  :  -124.1914471 Eh     change       -0.3148915E-03 Eh
 * total energy  :  -124.1915418 Eh     change       -0.9466999E-04 Eh
 * total energy  :  -124.1916155 Eh     change       -0.7365946E-04 Eh
 * total energy  :  -124.1916467 Eh     change       -0.3123471E-04 Eh
 * total energy  :  -124.1916607 Eh     change       -0.1398081E-04 Eh
 * total energy  :  -124.1916722 Eh     change       -0.1152981E-04 Eh
 * total energy  :  -124.1917661 Eh     change       -0.1119514E-05 Eh
 * total energy  :  -124.1917675 Eh     change       -0.1337970E-05 Eh
 * total energy  :  -124.1917690 Eh     change       -0.1487874E-05 Eh
 * total energy  :  -124.1917706 Eh     change       -0.1606322E-05 Eh
 * total energy  :  -124.1917722 Eh     change       -0.1640585E-05 Eh
 * total energy  :  -124.1917737 Eh     change       -0.1508537E-05 Eh
 * total energy  :  -124.1917750 Eh     change       -0.1255894E-05 Eh
 * total energy  :  -124.1917760 Eh     change       -0.1041810E-05 Eh
 * total energy  :  -124.1917760 Eh     change       -0.5242569E-08 Eh
   *** GEOMETRY OPTIMIZATION CONVERGED AFTER 44 ITERATIONS ***

 final structure:
================
79
 xtb: 6.7.1 (edcfbbe)
C           -5.78261815404453       -2.55609170319910       -3.55923229181562
C           -5.80240346854683       -1.18063298030313       -3.73634282171140
C           -5.82088543572663       -0.32302151722919       -2.64466634810330
C           -5.81903807810939       -0.87049929229539       -1.38054636580708
C           -5.79865536209746       -2.26082365671779       -1.19529246141187
C           -5.78026609539642       -3.11024296715669       -2.28923081488958
C           -5.80425666689253       -2.53533657360454        0.23270190816641
C           -5.79129593833311       -3.72945093135007        0.93458128174586
C           -5.80318530839954       -3.68489035464426        2.31944083812365
C           -5.82719467842856       -2.47280907474299        2.99317586445042
C           -5.84038460066590       -1.27199046404233        2.29649910187082
C           -5.82898526447418       -1.31284680350372        0.91964875704197
C           -5.84225638162910       -0.15756757738233       -0.05157493138917
C           -7.03594299462987        0.75024259010745        0.12355363411672
C           -8.37029247632149        0.43017130173423        0.04193271878239
C           -9.30806267749393        1.43726578018361        0.24412165115513
C           -8.90498849645661        2.73702037458061        0.52336882516692
C           -7.56449115923835        3.06559559425117        0.60747220873673
C           -6.61713062945921        2.06613164756415        0.40574945142498
C           -5.18045862317260        2.10007185380552        0.42394952095760
C           -4.27920650519682        3.14313384571372        0.65588324367547
C           -2.93420574604260        2.88688278951634        0.60947395785120
C           -2.43747311905562        1.58968234764907        0.32752465719097
C           -1.04761478882835        1.35099441221649        0.27932678133519
N           -0.14946950151340        2.34712392477079        0.50125497578101
C            1.11947850007254        2.14084136149341        0.46351232332483
C            1.71000087471100        0.87442231257894        0.17806371582094
C            3.11630552461396        0.63081872374874        0.12642195750669
C            4.03483732755472        1.47461697380898        0.78571657321013
C            5.38589260880344        1.23937344400305        0.73786838339967
C            5.89190486312318        0.14500505933390        0.02960907360457
N            7.26699747674113       -0.09857895491717       -0.01482435304289
C            8.24474260737857        0.83349536460076       -0.30068536234987
C            8.11661912005148        2.16880303046443       -0.65855359089157
C            9.27189437526567        2.88017905025474       -0.92188441472654
C           10.52770866820460        2.28277177862986       -0.84409853267066
C           10.66019280901849        0.94645000800343       -0.51729990819605
C            9.51459967226503        0.21197930792297       -0.24803102949302
C            9.28050861081034       -1.16502010685371        0.09104886151424
C           10.11751570098094       -2.25106569059636        0.30153616108939
C            9.55307270796603       -3.46365352569417        0.64957811790226
C            8.17519014062265       -3.59390438767016        0.80599697111688
C            7.32154568029550       -2.52626397140415        0.60236276293187
C            7.87977280692182       -1.31281224069270        0.22363363082966
C            4.99810260966968       -0.70282401180779       -0.63197286233734
C            3.64748285050410       -0.46518897021505       -0.58573920605117
C            0.71026803283719       -0.11765161058513       -0.04753107218431
N           -0.55324174019364        0.11439738620393        0.00788656055707
C           -3.35479194451193        0.53534037502435        0.09384736217454
C           -4.69066544045696        0.80055016735660        0.14723047110787
H           -5.76925824321276       -3.20351245187321       -4.42422608659060
H           -5.80408881927279       -0.77181649415137       -4.73621316096190
H           -5.83666816970639        0.74846601847141       -2.78177917113474
H           -5.76510662882869       -4.18203693068126       -2.15650714024703
H           -5.77264027989020       -4.67598619127401        0.41468161829445
H           -5.79375916572555       -4.60654216838893        2.88335386663569
H           -5.83601306112641       -2.46318351976581        4.07331153903989
H           -5.85905584991073       -0.32732760591725        2.82035384619472
H           -8.68363328789297       -0.58100199690173       -0.17475701220011
H          -10.36124976760299        1.20610032077241        0.18355560732439
H           -9.65289005388388        3.50181451720937        0.67657881952083
H           -7.25679350218092        4.07777526691409        0.82416897962556
H           -4.64326464502336        4.13808756582221        0.86678875882507
H           -2.21406305792223        3.67254104374982        0.78093343089019
H            1.74424837817766        3.01258044368400        0.61004774225790
H            3.66911865882397        2.30793270353762        1.36606211910161
H            6.06724487954448        1.88130103536544        1.27652193478337
H            7.14727320250173        2.63570648078229       -0.74308572495517
H            9.19856916959171        3.92141276347594       -1.19857151757779
H           11.40702554778330        2.87314494208178       -1.05384925182297
H           11.63223140821006        0.47884085106203       -0.47620228777663
H           11.18694511474032       -2.14554769248883        0.19961157374136
H           10.18654694297883       -4.32226338349731        0.81458766588527
H            7.76459806535790       -4.54919502117785        1.09741871944881
H            6.25743927403612       -2.63252107867327        0.74776221355638
H            5.38334154347137       -1.53090378246457       -1.20847659951106
H            2.98221936669347       -1.11724626111774       -1.13087815993076
H            0.99416777405996       -1.14685343250935       -0.22584279685576
H           -2.97566373900093       -0.45349047596809       -0.11509819260053

 projected vibrational frequencies (cm⁻¹)
eigval :       -0.00    -0.00    -0.00    -0.00     0.00     0.00
eigval :        8.46     9.56    15.16    22.41    28.70    37.86
eigval :       40.27    49.48    56.13    67.88    78.26    88.07
eigval :       98.17   102.14   107.07   113.73   128.07   135.63
eigval :      144.77   151.79   171.39   197.75   209.23   230.55
eigval :      231.77   234.55   253.71   271.18   273.45   286.45
eigval :      299.34   331.74   332.17   367.90   376.71   377.51
eigval :      386.91   392.60   402.41   404.70   409.74   414.38
eigval :      414.83   420.87   430.41   439.02   446.82   464.38
eigval :      468.20   473.89   495.94   497.18   504.06   517.16
eigval :      523.24   536.61   538.28   538.64   549.61   577.65
eigval :      578.32   589.11   591.01   601.85   607.73   610.47
eigval :      618.59   629.93   652.90   656.02   672.76   674.10
eigval :      677.18   677.81   691.53   700.23   708.82   717.05
eigval :      735.09   737.15   753.46   757.07   765.36   767.80
eigval :      769.28   776.54   779.69   786.00   792.42   799.85
eigval :      811.78   816.96   845.12   856.80   868.87   871.55
eigval :      871.81   878.58   879.62   896.28   896.89   902.17
eigval :      902.28   903.00   906.61   908.67   909.63   910.18
eigval :      914.64   917.99   919.18   921.59   924.52   926.92
eigval :      927.77   928.45   929.85   946.64   998.17  1003.71
eigval :     1008.93  1011.36  1042.83  1048.59  1057.16  1069.74
eigval :     1072.29  1072.99  1073.81  1077.77  1079.71  1115.62
eigval :     1126.15  1141.90  1143.63  1145.97  1149.54  1161.07
eigval :     1168.61  1173.66  1174.72  1178.49  1179.90  1180.49
eigval :     1181.22  1194.97  1207.75  1210.69  1214.31  1225.14
eigval :     1233.53  1243.23  1244.59  1249.96  1259.22  1261.89
eigval :     1263.43  1274.86  1279.02  1286.71  1293.46  1296.31
eigval :     1322.88  1327.98  1335.47  1340.63  1350.64  1353.29
eigval :     1356.46  1361.38  1366.51  1382.60  1412.78  1419.04
eigval :     1422.30  1425.34  1428.81  1429.90  1441.41  1451.50
eigval :     1462.49  1462.58  1466.73  1471.53  1483.36  1485.65
eigval :     1489.79  1500.40  1509.50  1542.27  1565.26  1570.25
eigval :     1577.74  1583.72  1584.58  1587.46  1591.44  1595.64
eigval :     1599.86  1602.47  1604.14  1609.35  3036.89  3040.19
eigval :     3071.36  3071.60  3072.05  3075.38  3076.49  3076.56
eigval :     3077.48  3079.94  3080.36  3081.58  3082.97  3083.01
eigval :     3084.90  3085.14  3085.16  3086.63  3090.30  3091.23
eigval :     3091.68  3091.87  3092.51  3093.62  3094.13  3094.82
eigval :     3095.73  3098.30  3099.48

   temp. (K)  partition function   enthalpy   heat capacity  entropy
                                   cal/mol     cal/K/mol   cal/K/mol   J/K/mol
 298.15  VIB  0.147E+18            22166.226    143.754    137.047
         ROT  0.130E+09              888.752      2.981     40.112
         INT  0.192E+26            23054.979    146.735    177.159
         TR   0.155E+29             1481.254      4.968     45.211
         TOT                       24536.2327   151.7029   222.3700   930.3961

       T/K    H(0)-H(T)+PV         H(T)/Eh          T*S/Eh         G(T)/Eh
   ------------------------------------------------------------------------
    298.15    0.391010E-01    0.637074E+00    0.105655E+00    0.531418E+00
   ------------------------------------------------------------------------

         :::::::::::::::::::::::::::::::::::::::::::::::::::::
         ::                  THERMODYNAMIC                  ::
         :::::::::::::::::::::::::::::::::::::::::::::::::::::
         :: total free energy        -123.660357567145 Eh   ::
         ::.................................................::
         :: total energy             -124.191776010930 Eh   ::
         :: zero point energy           0.597972630137 Eh   ::
         :: G(RRHO) w/o ZPVE           -0.066554186352 Eh   ::
         :: G(RRHO) contrib.            0.531418443785 Eh   ::
         :::::::::::::::::::::::::::::::::::::::::::::::::::::

           -------------------------------------------------
          | TOTAL ENERGY             -124.191776010930 Eh   |
          | TOTAL ENTHALPY           -123.554702405038 Eh   |
          | TOTAL FREE ENERGY        -123.660357567145 Eh   |
          | GRADIENT NORM               0.000049360645 Eh/α |
           -------------------------------------------------

 * finished run on 2025/09/03 at 18:32:36.821
