   * xtb version 6.7.1 (edcfbbe) compiled by 'albert@albert-system' on 2024-07-22

   ID    Z sym.   atoms
    1    6 C      1-24, 26-31, 33-47, 49, 50
    2    7 N      25, 32, 48
    3    1 H      51-79

          program call               : xtb data2507/gas/SFCz/SFCz.xyz --gfn 2 --ohess vtight --parallel 40 --molden --ceasefiles --namespace data2507/gas/SFCz/SFCz_gas_S0_preOpt
          :  Hamiltonian                  GFN2-xTB          :
 * total energy  :  -124.2480851 Eh     change       -0.2510589E-08 Eh
 * total energy  :  -124.2612532 Eh     change       -0.1316819E-01 Eh
 * total energy  :  -124.2642981 Eh     change       -0.3044907E-02 Eh
 * total energy  :  -124.2652170 Eh     change       -0.9188568E-03 Eh
 * total energy  :  -124.2659883 Eh     change       -0.7712474E-03 Eh
 * total energy  :  -124.2663019 Eh     change       -0.3136477E-03 Eh
 * total energy  :  -124.2664669 Eh     change       -0.1650387E-03 Eh
 * total energy  :  -124.2665563 Eh     change       -0.8940803E-04 Eh
 * total energy  :  -124.2666067 Eh     change       -0.5039747E-04 Eh
 * total energy  :  -124.2666448 Eh     change       -0.3802796E-04 Eh
 * total energy  :  -124.2667053 Eh     change       -0.1465444E-05 Eh
 * total energy  :  -124.2667068 Eh     change       -0.1496208E-05 Eh
 * total energy  :  -124.2667080 Eh     change       -0.1277104E-05 Eh
 * total energy  :  -124.2667089 Eh     change       -0.8823304E-06 Eh
 * total energy  :  -124.2667095 Eh     change       -0.6031507E-06 Eh
 * total energy  :  -124.2667099 Eh     change       -0.4241530E-06 Eh
 * total energy  :  -124.2667103 Eh     change       -0.3924712E-06 Eh
 * total energy  :  -124.2667107 Eh     change       -0.4090860E-06 Eh
 * total energy  :  -124.2667107 Eh     change       -0.3175145E-08 Eh
   *** GEOMETRY OPTIMIZATION CONVERGED AFTER 44 ITERATIONS ***

 final structure:
================
79
 xtb: 6.7.1 (edcfbbe)
C           -5.74412692960982        3.18103325825609       -2.98264398679522
C           -5.77957304205977        3.53579909242876       -1.64254948171119
C           -5.81254118575436        2.56488535626032       -0.65040270601667
C           -5.80917562346411        1.24077297165622       -1.02945018652032
C           -5.77301041501813        0.87557772825069       -2.38282069799548
C           -5.74029869810142        1.84963969524381       -3.36689077551184
C           -5.77972758985778       -0.57630561696742       -2.46905197861588
C           -5.75546424583157       -1.42759290174593       -3.56131552306011
C           -5.77176061240262       -2.79496384740838       -3.33705464064243
C           -5.81123961929776       -3.30527324197826       -2.04825514690897
C           -5.83580920934165       -2.45810496117708       -0.94836033123078
C           -5.81998746725438       -1.09860351131912       -1.16842834088684
C           -5.84344037634800        0.01501648463384       -0.14874008370234
C           -7.04416417805319       -0.03641069440163        0.76397270868861
C           -8.37867402613330       -0.00590714653627        0.42381595662741
C           -9.32141780420699       -0.06693705118986        1.44135858698195
C           -8.93005823044419       -0.15682960803533        2.76916320999604
C           -7.58904343564843       -0.18808080788787        3.11521052439822
C           -6.64209035794987       -0.12740321238837        2.10519075474501
C           -5.19062782453190       -0.13832656628366        2.15130147695283
C           -4.30849302983474       -0.21530585236695        3.21932443203142
C           -2.95122417966585       -0.20438575636425        2.96270904387060
C           -2.46560133892799       -0.11599074177074        1.65545244167208
C           -1.02699853988032       -0.10314861835562        1.41175149510608
N           -0.60851619581621        0.02753233600941        0.15149150316558
C            0.68733261093269        0.03679454482144       -0.06704800457854
C            1.63262102309825       -0.07435146460329        0.95711911814488
C            3.07263543059266       -0.05614702362569        0.71102776088258
C            3.61786411124859        0.79176385098895       -0.25249990317861
C            4.97714601036309        0.81204152997672       -0.48668995861147
C            5.82605101328303       -0.01873500036089        0.24097927739331
N            7.20524616134269        0.00071843131902        0.00608450058297
C            8.00267161708554       -1.10445197864059       -0.22143115844266
C            7.65051799710497       -2.44247399809419       -0.32417585183841
C            8.65362237304510       -3.35474795588630       -0.59044796276029
C            9.97649551736308       -2.95273021275990       -0.76056667179962
C           10.32871554527157       -1.62012232464858       -0.68417141920540
C            9.33806096156801       -0.68429900313811       -0.41766098593490
C            9.33865908550408        0.74664269694772       -0.29376721898061
C           10.33546536802553        1.71081727127961       -0.36407510324932
C            9.99136038725394        3.03344545241618       -0.16918668271654
C            8.67573294783841        3.39779943762274        0.10815526315776
C            7.66659508874492        2.45683403969067        0.18280847725708
C            8.00213479191871        1.12865253487617       -0.03677375245961
C            5.28877335466269       -0.86866924661911        1.20496620354590
C            3.92867810731126       -0.88529523169747        1.43499413326575
C            1.08391667711282       -0.20334478800170        2.23646853601982
N           -0.21106346998568       -0.22205351058210        2.46112008931864
C           -3.35381217748632       -0.03889865986815        0.57749472306964
C           -4.70210322195132       -0.05203889966002        0.83698402180212
H           -5.71911255071991        3.95424214892598       -3.73684670022728
H           -5.78168380160793        4.58017762967318       -1.36700278325411
H           -5.84024741673864        2.84058277572403        0.39387065077223
H           -5.71235147676277        1.57855395037781       -4.41189402083044
H           -5.72442598008282       -1.03529240978616       -4.56701172465168
H           -5.75342717980677       -3.47386401128757       -4.17731696234121
H           -5.82314413028410       -4.37482181127784       -1.89801617837721
H           -5.86664074296314       -2.85494194165129        0.05606746302109
H           -8.68319345491684        0.06400815955052       -0.61033535742970
H          -10.37298686875149       -0.04415499835871        1.19595434276333
H           -9.68242362714622       -0.20296815572671        3.54305170302161
H           -7.28859724802870       -0.25802853366093        4.15008942980386
H           -4.67540017155785       -0.28238927871031        4.23277202519121
H           -2.23683247442051       -0.26262376450148        3.76889178664649
H            0.98984863274818        0.11796295869903       -1.10450249643913
H            2.97007299295075        1.44940084598360       -0.81312309081267
H            5.38938954410395        1.46091122915450       -1.24481376598592
H            6.62545336963064       -2.76270733331091       -0.21284437485050
H            8.40526050067140       -4.40268684249753       -0.67234398309902
H           10.73184582851218       -3.69693562362261       -0.96460377689908
H           11.35091217164163       -1.30630214684679       -0.83270066256511
H           11.35777129144907        1.42618838673484       -0.56232749802838
H           10.75084111336920        3.79924676881481       -0.22173100440583
H            8.43930429511215        4.43878225064524        0.27253563649745
H            6.65364132727952        2.74800465842503        0.41698898025552
H            5.94611427715412       -1.50308982798943        1.78039643407263
H            3.52130044611623       -1.55751673714625        2.17567660560351
H            1.71577819076932       -0.27535890480730        3.11399495552606
H           -2.96731901352757        0.02778328014673       -0.42736431830929

          :  Hamiltonian                  GFN2-xTB          :
         :: gradient norm              0.000040533639 Eh/a0 ::
         :: HOMO-LUMO gap              2.095954155270 eV    ::
         :: SCC energy              -126.619535589418 Eh    ::
         :: -> dispersion             -0.112152847325 Eh    ::
         :: repulsion energy           2.352824844782 Eh    ::

    * Orbital Energies and Occupations

         #    Occupation            Energy/Eh            Energy/eV
      -------------------------------------------------------------
         1        2.0000           -0.6778272             -18.4446
       ...           ...                  ...                  ...
       104        2.0000           -0.4126270             -11.2282
       105        2.0000           -0.4119012             -11.2084
       106        2.0000           -0.4064057             -11.0589
       107        2.0000           -0.4054904             -11.0340
       108        2.0000           -0.4027391             -10.9591
       109        2.0000           -0.4002918             -10.8925
       110        2.0000           -0.3961499             -10.7798
       111        2.0000           -0.3942455             -10.7280
       112        2.0000           -0.3820560             -10.3963
       113        2.0000           -0.3787593             -10.3066
       114        2.0000           -0.3771261             -10.2621
       115        2.0000           -0.3649266              -9.9302
       116        2.0000           -0.3596317              -9.7861 (HOMO)
       117                         -0.2826068              -7.6901 (LUMO)
       118                         -0.2618364              -7.1249
       119                         -0.2510632              -6.8318
       120                         -0.2499814              -6.8023
       121                         -0.2436899              -6.6311
       122                         -0.2383002              -6.4845
       123                         -0.2264532              -6.1621
       124                         -0.2259798              -6.1492
       125                         -0.2245220              -6.1096
       126                         -0.2228190              -6.0632
       127                         -0.2219867              -6.0406
       ...                                ...                  ...
       229                          0.7458212              20.2948
      -------------------------------------------------------------
                  HL-Gap            0.0770249 Eh            2.0960 eV

     #   Z          covCN         q      C6AA      α(0)
     1   6 C        2.921    -0.032    28.800     8.801
     2   6 C        2.923    -0.031    28.777     8.797
     3   6 C        2.914    -0.032    28.803     8.801
     4   6 C        3.056     0.007    27.809     8.648
     5   6 C        3.036     0.002    27.944     8.671
     6   6 C        2.915    -0.033    28.827     8.804
     7   6 C        3.036     0.002    27.945     8.671
     8   6 C        2.915    -0.033    28.827     8.804
     9   6 C        2.921    -0.032    28.800     8.801
    10   6 C        2.923    -0.031    28.777     8.797
    11   6 C        2.914    -0.032    28.805     8.801
    12   6 C        3.057     0.007    27.808     8.648
    13   6 C        3.979     0.009    20.357     6.410
    14   6 C        3.057     0.008    27.775     8.643
    15   6 C        2.913    -0.032    28.799     8.800
    16   6 C        2.923    -0.030    28.755     8.794
    17   6 C        2.921    -0.032    28.797     8.800
    18   6 C        2.914    -0.033    28.814     8.802
    19   6 C        3.036     0.002    27.947     8.671
    20   6 C        3.037     0.006    27.864     8.658
    21   6 C        2.913    -0.033    28.827     8.804
    22   6 C        2.925    -0.030    28.758     8.794
    23   6 C        2.986    -0.001    28.043     8.687
    24   6 C        2.963     0.178    24.175     8.065
    25   7 N        1.840    -0.249    27.346     7.750
    26   6 C        2.926     0.075    26.319     8.413
    27   6 C        2.965    -0.016    28.398     8.741
    28   6 C        2.974     0.004    27.937     8.670
    29   6 C        2.924    -0.033    28.819     8.804
    30   6 C        2.920    -0.042    29.046     8.838
    31   6 C        2.913     0.065    26.541     8.448
    32   7 N        2.802    -0.044    22.082     6.979
    33   6 C        3.075     0.047    26.880     8.500
    34   6 C        2.910    -0.051    29.262     8.870
    35   6 C        2.924    -0.033    28.827     8.805
    36   6 C        2.920    -0.040    29.006     8.832
    37   6 C        2.913    -0.033    28.812     8.802
    38   6 C        3.068    -0.017    28.353     8.731
    39   6 C        3.068    -0.017    28.353     8.731
    40   6 C        2.913    -0.033    28.812     8.802
    41   6 C        2.920    -0.040    29.006     8.832
    42   6 C        2.924    -0.033    28.827     8.805
    43   6 C        2.910    -0.051    29.262     8.870
    44   6 C        3.075     0.047    26.880     8.500
    45   6 C        2.920    -0.042    29.047     8.838
    46   6 C        2.924    -0.033    28.820     8.804
    47   6 C        2.926     0.075    26.326     8.414
    48   7 N        1.839    -0.250    27.357     7.751
    49   6 C        2.918    -0.031    28.768     8.795
    50   6 C        3.054     0.008    27.783     8.644
    51   1 H        0.926     0.031     2.572     2.508
    52   1 H        0.926     0.031     2.570     2.507
    53   1 H        0.926     0.028     2.616     2.529
    54   1 H        0.926     0.032     2.556     2.500
    55   1 H        0.926     0.032     2.556     2.500
    56   1 H        0.926     0.031     2.572     2.508
    57   1 H        0.926     0.031     2.570     2.507
    58   1 H        0.926     0.028     2.617     2.530
    59   1 H        0.926     0.030     2.588     2.516
    60   1 H        0.926     0.033     2.551     2.497
    61   1 H        0.926     0.032     2.555     2.500
    62   1 H        0.926     0.033     2.539     2.492
    63   1 H        0.926     0.037     2.485     2.465
    64   1 H        0.926     0.058     2.222     2.331
    65   1 H        0.925     0.038     2.481     2.463
    66   1 H        0.926     0.038     2.476     2.461
    67   1 H        0.926     0.044     2.399     2.422
    68   1 H        0.926     0.027     2.633     2.538
    69   1 H        0.926     0.029     2.595     2.519
    70   1 H        0.926     0.029     2.607     2.525
    71   1 H        0.926     0.031     2.566     2.505
    72   1 H        0.926     0.031     2.566     2.505
    73   1 H        0.926     0.029     2.607     2.525
    74   1 H        0.926     0.029     2.595     2.519
    75   1 H        0.926     0.027     2.633     2.538
    76   1 H        0.926     0.044     2.399     2.422
    77   1 H        0.926     0.038     2.476     2.461
    78   1 H        0.925     0.038     2.479     2.462
    79   1 H        0.926     0.055     2.260     2.351

molecular dipole:
                 x           y           z       tot (Debye)
 q only:       -0.515       0.001       0.000
   full:       -0.133       0.003      -0.051       0.362

 projected vibrational frequencies (cm⁻¹)
eigval :       -0.00    -0.00     0.00     0.00     0.00     0.00
eigval :        7.59     8.44    14.81    23.02    28.01    38.21
eigval :       41.79    49.27    50.64    58.96    76.47    90.17
eigval :       96.22   101.76   105.86   113.02   127.36   139.83
eigval :      144.81   149.51   179.81   199.38   205.96   231.09
eigval :      232.03   232.64   253.25   271.63   276.83   288.14
eigval :      306.14   331.87   353.92   363.22   375.33   381.64
eigval :      386.32   392.40   398.29   410.86   414.02   416.78
eigval :      418.56   427.13   435.93   441.45   458.85   470.54
eigval :      477.20   494.28   496.86   505.64   517.88   525.68
eigval :      527.85   535.91   538.73   541.15   569.69   582.89
eigval :      590.64   596.71   603.47   607.01   617.33   620.65
eigval :      631.47   634.62   658.37   673.84   687.03   688.81
eigval :      691.25   702.47   706.31   709.24   721.89   740.12
eigval :      754.10   755.89   758.81   766.24   769.74   773.12
eigval :      777.16   781.02   786.24   817.47   820.38   836.58
eigval :      866.50   871.06   874.93   878.70   878.87   879.27
eigval :      879.82   887.67   897.87   902.04   902.57   903.11
eigval :      908.87   910.35   912.44   919.15   919.59   920.88
eigval :      922.84   924.50   926.35   927.17   928.05   928.21
eigval :      931.37   934.50   951.31  1003.40  1008.96  1009.91
eigval :     1012.11  1029.22  1070.55  1072.87  1073.90  1074.09
eigval :     1076.54  1078.99  1085.14  1101.84  1118.09  1132.94
eigval :     1137.10  1143.81  1146.56  1152.97  1170.64  1176.74
eigval :     1177.92  1178.27  1181.32  1181.88  1183.73  1199.51
eigval :     1204.48  1207.07  1209.85  1216.43  1225.77  1236.62
eigval :     1244.78  1245.47  1252.22  1260.84  1261.49  1268.40
eigval :     1276.46  1285.15  1289.11  1300.69  1302.68  1315.38
eigval :     1327.28  1327.47  1333.15  1357.21  1361.92  1363.53
eigval :     1366.94  1369.20  1383.31  1409.92  1413.99  1422.60
eigval :     1428.24  1429.25  1432.13  1434.80  1438.25  1453.41
eigval :     1462.51  1472.34  1473.31  1476.23  1488.12  1502.00
eigval :     1514.08  1558.94  1560.20  1574.16  1575.41  1585.82
eigval :     1589.39  1592.44  1594.60  1596.89  1597.94  1599.27
eigval :     1603.08  1604.32  1604.76  1615.11  3033.98  3037.48
eigval :     3072.68  3073.27  3074.24  3076.44  3076.79  3076.86
eigval :     3077.59  3078.57  3081.27  3082.35  3082.59  3082.82
eigval :     3083.81  3084.34  3085.77  3086.46  3088.34  3089.97
eigval :     3091.56  3092.66  3093.28  3095.44  3095.95  3096.58
eigval :     3097.25  3107.07  3108.19

   temp. (K)  partition function   enthalpy   heat capacity  entropy
                                   cal/mol     cal/K/mol   cal/K/mol   J/K/mol
 298.15  VIB  0.181E+18            21911.192    141.407    136.083
         ROT  0.129E+09              888.752      2.981     40.101
         INT  0.234E+26            22799.944    144.388    176.183
         TR   0.155E+29             1481.254      4.968     45.211
         TOT                       24281.1978   149.3561   221.3943   926.3139

       T/K    H(0)-H(T)+PV         H(T)/Eh          T*S/Eh         G(T)/Eh
   ------------------------------------------------------------------------
    298.15    0.386946E-01    0.640993E+00    0.105192E+00    0.535801E+00
   ------------------------------------------------------------------------

         :::::::::::::::::::::::::::::::::::::::::::::::::::::
         ::                  THERMODYNAMIC                  ::
         :::::::::::::::::::::::::::::::::::::::::::::::::::::
         :: total free energy        -123.730909292461 Eh   ::
         ::.................................................::
         :: total energy             -124.266710744636 Eh   ::
         :: zero point energy           0.602298488542 Eh   ::
         :: G(RRHO) w/o ZPVE           -0.066497036366 Eh   ::
         :: G(RRHO) contrib.            0.535801452176 Eh   ::
         :::::::::::::::::::::::::::::::::::::::::::::::::::::

           -------------------------------------------------
          | TOTAL ENERGY             -124.266710744636 Eh   |
          | TOTAL ENTHALPY           -123.625717704368 Eh   |
          | TOTAL FREE ENERGY        -123.730909292461 Eh   |
          | GRADIENT NORM               0.000040532201 Eh/α |
          | HOMO-LUMO GAP               2.095954179910 eV   |
           -------------------------------------------------

 * finished run on 2025/09/03 at 18:28:49.465
