   * xtb version 6.7.1 (edcfbbe) compiled by 'albert@albert-system' on 2024-07-22

   ID    Z sym.   atoms
    1    6 C      1-4, 6-16, 18-22, 24-37, 39-43, 45-58, 60-63
    2    7 N      5, 17, 23, 38, 44, 59
    3    1 H      64-105

          program call               : xtb data2507/gas/TDPA–TRZ/TDPA–TRZ_gas_T1_crest.xyz --gfn 2 --spinpol --tblite --uhf 2 --ohess vtight --parallel 40 --molden --ceasefiles --namespace data2507/gas/TDPA–TRZ/TDPA–TRZ_gas_T1_finalOpt
 * total energy  :  -160.9715481 Eh     change       -0.1972791E-07 Eh
 * total energy  :  -160.9716058 Eh     change       -0.5764402E-04 Eh
 * total energy  :  -160.9716808 Eh     change       -0.7503958E-04 Eh
 * total energy  :  -160.9717378 Eh     change       -0.5705450E-04 Eh
 * total energy  :  -160.9717214 Eh     change        0.1641578E-04 Eh
 * total energy  :  -160.9706845 Eh     change        0.1036944E-02 Eh
 * total energy  :  -160.9718616 Eh     change       -0.1177119E-02 Eh
 * total energy  :  -160.9719146 Eh     change       -0.5301872E-04 Eh
 * total energy  :  -160.9719388 Eh     change       -0.2412944E-04 Eh
 * total energy  :  -160.9719482 Eh     change       -0.9460937E-05 Eh
 * total energy  :  -160.9719796 Eh     change        0.1459525E-05 Eh
 * total energy  :  -160.9719800 Eh     change       -0.4244528E-06 Eh
 * total energy  :  -160.9719804 Eh     change       -0.3749454E-06 Eh
 * total energy  :  -160.9719805 Eh     change       -0.1633826E-06 Eh
 * total energy  :  -160.9719809 Eh     change       -0.3839979E-06 Eh
 * total energy  :  -160.9719811 Eh     change       -0.1520024E-06 Eh
 * total energy  :  -160.9719815 Eh     change       -0.3807698E-06 Eh
 * total energy  :  -160.9719814 Eh     change        0.8166296E-07 Eh
 * total energy  :  -160.9719814 Eh     change       -0.2754928E-07 Eh
   *** GEOMETRY OPTIMIZATION CONVERGED AFTER 44 ITERATIONS ***

 final structure:
================
105
 xtb: 6.7.1 (edcfbbe)
C           -5.47960939441540        7.84172319850008        1.88944175118748
C           -5.08647285423204        8.44620422666786        0.70655313280674
C           -3.91857863801178        8.06050843636212        0.07789006805294
C           -3.11915869155600        7.06201438725278        0.63368602135578
N           -1.93037311495951        6.67285041544870        0.00390563249032
C           -1.13123526237428        7.63606411378218       -0.62465655193722
C           -0.47596651752212        7.34007354613725       -1.81980781916093
C            0.31120397184121        8.29359234691431       -2.43526600040962
C            0.45181940126998        9.55420048923948       -1.87805244172720
C           -0.20063627909240        9.85433659525962       -0.69340050205537
C           -0.98398633952594        8.90533407294675       -0.06591740000701
C           -1.54383345609539        5.33310450931856        0.00289370441063
C           -2.50128529941618        4.31773245469674       -0.08187885191428
C           -2.11719970453851        2.99624848849301       -0.08078063632720
C           -0.76895502589800        2.64872810500637        0.00083851475085
C           -0.36347626427590        1.24557300224425       -0.00031539698181
N           -1.30525071131407        0.32262631146425       -0.07877226034334
C           -0.90600179254514       -0.98822052559658       -0.06309466948756
C           -1.90209274460283       -2.01404626301821       -0.12249102476192
C           -1.53940833367395       -3.37258269427982       -0.13279052122904
C           -2.49556427907657       -4.35396566500526       -0.18957665481303
C           -3.85511256057933       -4.01962767121744       -0.24207577418670
N           -4.83107019139044       -5.02365107833005       -0.30426708909203
C           -4.61023944051311       -6.15242859077976       -1.09347921490504
C           -5.07273001165012       -7.40641146649070       -0.68777909259251
C           -4.84421183888798       -8.51895176448901       -1.47245663152490
C           -4.14916896370896       -8.40659506010963       -2.66628615861101
C           -3.68256045572155       -7.16581111333607       -3.07100426275021
C           -3.90946443970410       -6.04569824727212       -2.29692261536916
C           -6.01364180838635       -4.88338211442697        0.42184968068749
C           -7.22482672848413       -5.35211568598594       -0.09232316340973
C           -8.39114241632002       -5.20388090932149        0.63113943279886
C           -8.37568855247689       -4.58387584853747        1.87060665426664
C           -7.17776509391804       -4.11128447425622        2.38319759887055
C           -6.00462338354255       -4.25832790418504        1.67085083158445
C           -4.22453804131949       -2.66933565451980       -0.23255191123884
C           -3.26853643342264       -1.68689983797899       -0.17211575407975
N            0.37647054423151       -1.31215674408334       -0.00283791536484
C            1.28802835516814       -0.35368875784440        0.05878984872189
C            2.67805602815296       -0.68892285363155        0.11719916492303
C            3.09765200122144       -2.03100812413356        0.12412505418959
C            4.43031762361225       -2.34951097186266        0.18049263824398
C            5.40071083295577       -1.34045099714651        0.23609796658359
N            6.76222618313370       -1.66747650225282        0.29854017944077
C            7.17847774776521       -2.74117082380912        1.08576874881295
C            6.52775383396251       -3.02886320616411        2.28767944355748
C            6.93434013782426       -4.09840088989794        3.05976373183665
C            7.99308400334603       -4.89591719303087        2.65468797759861
C            8.64200358975671       -4.61606813535708        1.46241197071371
C            8.24071678697015       -3.55216279535710        0.67963018118648
C            7.68729137873263       -0.91480261434759       -0.42484101024061
C            8.96087100155918       -0.66433811217145        0.09124513418609
C            9.86801373482692        0.08605624798331       -0.62962772128907
C            9.52479054856782        0.60446996743152       -1.86832175368793
C            8.26028688203162        0.36457095217843       -2.38270441836628
C            7.34679599390385       -0.38855205345053       -1.67300786194598
C            4.99120312238018       -0.00173667948683        0.22966013116934
C            3.65815579466800        0.31775011980386        0.16947293103431
N            0.92560710776995        0.96777815500496        0.07707996092183
C            0.18668417599608        3.66122330668477        0.08347770783829
C           -0.19251694660386        4.98407207174513        0.08658891534579
C           -3.51682586804065        6.45962006961892        1.82716260377726
C           -4.69042333756049        6.84707050753328        2.44373766269265
H           -6.39447762905167        8.14383830208040        2.37604051042568
H           -5.69816761089889        9.21890097458160        0.26461671086552
H           -3.61888880656998        8.52611979771038       -0.84960065809638
H           -0.59318869186225        6.36135023162750       -2.26135128560845
H            0.81154200240057        8.05272422321998       -3.36160238942847
H            1.06540716337875       10.29759255197063       -2.36376657217802
H           -0.09246760300996       10.83286046802804       -0.24918540455601
H           -1.48393560767825        9.13810265806687        0.86290943484838
H           -3.54630621456353        4.58073129528062       -0.15785457889422
H           -2.85201598964430        2.20970298919072       -0.15400750440110
H           -0.49185820576101       -3.62526207807503       -0.08462406910871
H           -2.21036447568274       -5.39640162045808       -0.18306765975717
H           -5.60047074992376       -7.49994711970596        0.25006909203512
H           -5.20362148448136       -9.48340953349051       -1.14495660282532
H           -3.97128121962035       -9.27955581291395       -3.27554846265186
H           -3.14365380790182       -7.06841713877850       -4.00184502718825
H           -3.55489929737281       -5.07783335091730       -2.61883901961906
H           -7.24278126770124       -5.82116490921570       -1.06519228544346
H           -9.32154000551811       -5.56714389769907        0.22002682377608
H           -9.29039286485691       -4.46863776058162        2.43181187812559
H           -7.15587891035891       -3.63070979514825        3.35013563550903
H           -5.07023333757158       -3.89961504406273        2.07628101558549
H           -5.27243126553711       -2.40994688488450       -0.28549280815374
H           -3.54808486914170       -0.64501665336238       -0.17284857244319
H            2.34739286826406       -2.80437428572285        0.07377313037176
H            4.74643727448848       -3.38297039079833        0.17152106948685
H            5.70987368233623       -2.40174087776750        2.60999480439120
H            6.42563583188529       -4.30669940705926        3.98938800777643
H            8.30911537831033       -5.72998557061538        3.26243367757538
H            9.46220803241765       -5.23767990736964        1.13458289109361
H            8.73791177128881       -3.34659336445452       -0.25703819522944
H            9.22580956143986       -1.05322828519757        1.06354524287130
H           10.84803017590983        0.27564299004839       -0.21702926879234
H           10.23677170385676        1.19210088224979       -2.42750488525510
H            7.98584028500791        0.76115918979354       -3.34903520693165
H            6.36578197555682       -0.58400471369383       -2.07986905883314
H            5.73817611730603        0.77746217249380        0.28474563546993
H            3.33753991947456        1.34772795484822        0.17261858024375
H            1.22764970477686        3.38714739389694        0.15589765081282
H            0.55162832184256        5.76340949396093        0.16331488481310
H           -2.89726003513157        5.69174375179636        2.26659695015077
H           -4.98616839688054        6.37440006897776        3.36870974543855

 projected vibrational frequencies (cm⁻¹)
eigval :       -0.00    -0.00    -0.00    -0.00     0.00     0.00
eigval :        3.40     6.58     8.08     9.79    14.16    14.53
eigval :       26.39    26.63    35.17    40.09    40.66    44.70
eigval :       48.25    49.74    56.75    60.36    63.42    63.80
eigval :       67.96    75.84    76.89    93.30    95.99   100.39
eigval :      104.64   107.74   126.57   136.17   157.14   160.02
eigval :      171.72   176.46   185.31   212.37   213.45   220.23
eigval :      230.74   233.04   234.73   274.52   285.46   291.77
eigval :      299.72   309.40   310.35   314.24   316.00   334.56
eigval :      348.12   355.24   376.06   376.54   376.90   377.04
eigval :      377.77   377.85   381.45   384.74   385.01   387.81
eigval :      389.83   391.46   400.52   410.41   411.79   448.66
eigval :      461.05   463.99   474.59   477.87   484.93   497.76
eigval :      499.26   501.30   549.37   554.01   557.29   570.73
eigval :      573.64   580.58   583.77   585.38   587.29   588.78
eigval :      589.99   590.93   592.77   594.31   600.66   608.22
eigval :      611.82   624.85   625.92   653.75   657.43   659.14
eigval :      660.90   661.90   662.86   665.90   672.57   677.53
eigval :      687.02   689.07   693.59   721.93   755.36   755.42
eigval :      757.38   758.56   758.90   760.59   805.77   807.13
eigval :      807.68   815.83   821.60   850.08   852.14   867.36
eigval :      870.90   870.93   873.84   874.46   874.57   875.37
eigval :      890.72   890.76   892.75   893.45   893.49   894.04
eigval :      905.23   906.16   908.22   909.91   909.93   910.13
eigval :      915.05   916.57   918.39   920.61   923.87   925.79
eigval :      926.27   926.30   927.48   927.62   927.65   927.69
eigval :      927.72   929.24   929.40   929.50   929.79   929.89
eigval :      949.14   979.90   982.63   985.61   999.81  1002.22
eigval :     1002.25  1004.74  1008.55  1015.19  1037.33  1081.53
eigval :     1081.63  1082.41  1082.43  1082.43  1083.51  1106.54
eigval :     1113.12  1121.03  1121.65  1121.71  1123.69  1123.87
eigval :     1124.43  1124.50  1130.88  1131.28  1171.30  1174.80
eigval :     1179.53  1179.92  1180.05  1180.06  1180.30  1180.52
eigval :     1180.56  1184.45  1185.34  1188.72  1193.40  1193.43
eigval :     1194.81  1198.58  1210.17  1212.24  1219.36  1255.99
eigval :     1257.66  1257.77  1270.64  1276.87  1276.88  1277.78
eigval :     1278.37  1280.88  1282.50  1307.28  1311.43  1312.20
eigval :     1312.77  1313.91  1318.24  1319.05  1320.73  1320.76
eigval :     1326.73  1328.41  1328.50  1331.56  1333.56  1336.16
eigval :     1348.81  1353.99  1398.71  1417.49  1422.33  1424.88
eigval :     1434.82  1435.24  1436.54  1441.86  1442.54  1442.74
eigval :     1455.55  1464.85  1465.55  1466.31  1466.32  1469.06
eigval :     1473.65  1475.25  1489.56  1507.50  1508.60  1553.84
eigval :     1559.59  1568.05  1568.10  1571.61  1572.70  1573.50
eigval :     1576.33  1580.08  1585.03  1585.09  1586.13  1591.09
eigval :     1592.62  1592.97  1597.79  3074.25  3074.32  3075.67
eigval :     3075.73  3077.00  3077.02  3077.17  3077.74  3077.77
eigval :     3077.86  3078.71  3078.97  3079.76  3079.82  3079.99
eigval :     3080.09  3082.17  3083.34  3087.17  3087.50  3087.53
eigval :     3088.17  3088.82  3088.91  3090.84  3091.44  3092.27
eigval :     3092.31  3092.63  3092.72  3098.28  3098.34  3098.45
eigval :     3098.81  3098.83  3099.43  3101.12  3101.49  3102.42
eigval :     3103.18  3103.25  3104.49

   temp. (K)  partition function   enthalpy   heat capacity  entropy
                                   cal/mol     cal/K/mol   cal/K/mol   J/K/mol
 298.15  VIB  0.352E+28            31444.403    191.865    202.206
         ROT  0.172E+09              888.752      2.981     40.664
         INT  0.604E+36            32333.156    194.846    242.870
         TR   0.223E+29             1481.254      4.968     45.936
         TOT                       33814.4094   199.8140   288.8058  1208.3637

       T/K    H(0)-H(T)+PV         H(T)/Eh          T*S/Eh         G(T)/Eh
   ------------------------------------------------------------------------
    298.15    0.538867E-01    0.860994E+00    0.137221E+00    0.723773E+00
   ------------------------------------------------------------------------

         :::::::::::::::::::::::::::::::::::::::::::::::::::::
         ::                  THERMODYNAMIC                  ::
         :::::::::::::::::::::::::::::::::::::::::::::::::::::
         :: total free energy        -160.248208514299 Eh   ::
         ::.................................................::
         :: total energy             -160.971981439487 Eh   ::
         :: zero point energy           0.807107210413 Eh   ::
         :: G(RRHO) w/o ZPVE           -0.083334285225 Eh   ::
         :: G(RRHO) contrib.            0.723772925188 Eh   ::
         :::::::::::::::::::::::::::::::::::::::::::::::::::::

           -------------------------------------------------
          | TOTAL ENERGY             -160.971981439487 Eh   |
          | TOTAL ENTHALPY           -160.110987537614 Eh   |
          | TOTAL FREE ENERGY        -160.248208514299 Eh   |
          | GRADIENT NORM               0.000108643894 Eh/α |
           -------------------------------------------------

 * finished run on 2025/09/05 at 10:38:26.545
