   * xtb version 6.7.1 (edcfbbe) compiled by 'albert@albert-system' on 2024-07-22

   ID    Z sym.   atoms
    1    6 C      1-4, 6-16, 18-22, 24-37, 39-43, 45-58, 60-63
    2    7 N      5, 17, 23, 38, 44, 59
    3    1 H      64-105

          program call               : xtb data2507/gas/TDPA–TRZ/TDPA–TRZ.xyz --gfn 2 --ohess vtight --parallel 40 --molden --ceasefiles --namespace data2507/gas/TDPA–TRZ/TDPA–TRZ_gas_S0_preOpt
          :  Hamiltonian                  GFN2-xTB          :
 * total energy  :  -161.0118555 Eh     change       -0.1566377E-08 Eh
 * total energy  :  -161.0292706 Eh     change       -0.1741511E-01 Eh
 * total energy  :  -161.0376613 Eh     change       -0.8390701E-02 Eh
 * total energy  :  -161.0417049 Eh     change       -0.4043581E-02 Eh
 * total energy  :  -161.0443838 Eh     change       -0.2678829E-02 Eh
 * total energy  :  -161.0456909 Eh     change       -0.1307189E-02 Eh
 * total energy  :  -161.0463014 Eh     change       -0.6104877E-03 Eh
 * total energy  :  -161.0465646 Eh     change       -0.2632094E-03 Eh
 * total energy  :  -161.0467049 Eh     change       -0.1402146E-03 Eh
 * total energy  :  -161.0468765 Eh     change       -0.1716574E-03 Eh
 * total energy  :  -161.0476457 Eh     change       -0.4285514E-06 Eh
 * total energy  :  -161.0476462 Eh     change       -0.4632835E-06 Eh
 * total energy  :  -161.0476466 Eh     change       -0.4274323E-06 Eh
 * total energy  :  -161.0476470 Eh     change       -0.3333683E-06 Eh
 * total energy  :  -161.0476472 Eh     change       -0.2684006E-06 Eh
 * total energy  :  -161.0476475 Eh     change       -0.2170070E-06 Eh
 * total energy  :  -161.0476477 Eh     change       -0.2470881E-06 Eh
 * total energy  :  -161.0476481 Eh     change       -0.3829332E-06 Eh
 * total energy  :  -161.0476481 Eh     change       -0.2403311E-08 Eh
   *** GEOMETRY OPTIMIZATION CONVERGED AFTER 122 ITERATIONS ***

 final structure:
================
105
 xtb: 6.7.1 (edcfbbe)
C            1.99174869293165       -9.30645605779816       -2.13005750489821
C            2.60790295115502       -9.49039029615532       -0.90311394717784
C            3.08903962196957       -8.40797637926597       -0.19233446333092
C            2.96553043458816       -7.11871398720813       -0.70852505293591
N            3.46341517054779       -6.01921073699106        0.00367609185024
C            4.66883674643357       -6.14291003389450        0.70777304283192
C            4.82813779327097       -5.52887045464146        1.94956955244595
C            6.01727447838557       -5.65689560955991        2.64057957074991
C            7.05902657672592       -6.40227788029829        2.11303687170189
C            6.90362581136185       -7.01806304501236        0.88197059512667
C            5.72130388144357       -6.88913815822808        0.17924805951791
C            2.76794969007216       -4.81255381523159        0.00884856360450
C            1.36975936390034       -4.79795836016091       -0.01532864542415
C            0.68473481765932       -3.60462942884430       -0.01132644400959
C            1.37249246213816       -2.39110498557197        0.01509577179825
C            0.64507086278343       -1.12747449139700        0.01368346806646
N           -0.68503949090085       -1.17225806115431        0.03653932535376
C           -1.30715196565409        0.00467087176377        0.03517980869976
C           -2.76414254638616        0.00743009717074        0.08491610060428
C           -3.47263990349949        1.20851075180005        0.04116425024314
C           -4.84750797428815        1.21323390849579        0.09398038725819
C           -5.55739178411469        0.01246177493002        0.19611831052045
N           -6.94840011021456        0.01535938658637        0.25494744676145
C           -7.62786096814903        1.06041049399343        0.89614116136932
C           -8.82400912284743        1.54873613425397        0.37209781067443
C           -9.49759798064873        2.57080410986234        1.01240017470294
C           -8.98909621854998        3.12572207052241        2.17530281450730
C           -7.79940746810679        2.64570872755914        2.69814742987241
C           -7.12273691215138        1.61829759717996        2.06999338748700
C           -7.68395959172700       -1.02875697596388       -0.32264482431408
C           -8.83068473227390       -1.51375723081812        0.30476998031473
C           -9.55975221327897       -2.53525625958459       -0.27256580744618
C           -9.15603700841752       -3.09285020837435       -1.47462845679260
C           -8.01565471670281       -2.61614305782256       -2.10026574950802
C           -7.28452470098674       -1.58936601979375       -1.53527204463618
C           -4.84613967166712       -1.19103716480994        0.23938516087924
C           -3.47143635624766       -1.19117393475424        0.18302273038075
N           -0.68140533176717        1.17886596246497       -0.00805335741953
C            0.64855123762454        1.12895992728599       -0.03229123917261
C            1.38024777642851        2.38892514009628       -0.08535797213706
C            0.69702804637255        3.60493547397603       -0.11592908359594
C            1.38639964649062        4.79445242179765       -0.17177951307861
C            2.78463091946098        4.80274921665579       -0.19843292266480
N            3.48454002111699        6.00532294466369       -0.25714318172274
C            2.96537052411268        7.09116080194238       -0.97512582743214
C            2.30154171372363        6.88697571228434       -2.18431181487716
C            1.79532560825743        7.96161286116987       -2.88917928602068
C            1.94906278335048        9.25172352136420       -2.40844264257856
C            2.61214752363024        9.45984697756098       -1.21016463930548
C            3.11458947695488        8.39105382016810       -0.49353663001258
C            4.71633973371099        6.13845726682585        0.39800854041069
C            5.75179961288608        6.86587563618749       -0.18726105472670
C            6.96055520788659        7.00401805057124        0.46708845681380
C            7.15934229154727        6.41613019003019        1.70552866954905
C            6.13450112570372        5.68958151536653        2.28945432853119
C            4.91938936451789        5.55266658970577        1.64704154189250
C            3.46862435947227        3.58337731474597       -0.16581055166568
C            2.77518486484450        2.39633034055397       -0.11047584464895
N            1.35283032652516       -0.00044932435499       -0.01181220613926
C            2.76735027406414       -2.40471957800539        0.03947548088228
C            3.45642814930930       -3.59564562905382        0.03750359007879
C            2.34888233146615       -6.93894107810064       -1.94623467267158
C            1.86355450223848       -8.02691652544984       -2.64529909404074
H            1.61467637297373      -10.15446190522082       -2.68124603685796
H            2.70809350875736      -10.48398558186310       -0.49163686290060
H            3.56176559778402       -8.55252457724849        0.76815462812244
H            4.01301718172866       -4.95632916512643        2.36728583102604
H            6.12749370248707       -5.17827870477803        3.60252648479928
H            7.98538090601794       -6.50304130140450        2.65784984680348
H            7.71223114726785       -7.59723216763655        0.46089306706047
H            5.60500846116398       -7.36299698081667       -0.78451471351468
H            0.83112242760630       -5.73428822322994       -0.02805624610674
H           -0.39357361161771       -3.58891875260683       -0.02189541215991
H           -2.92211733027045        2.13191973542238       -0.04446757989253
H           -5.38992434886254        2.14632636750387        0.04837924994486
H           -9.21772461471372        1.12268374926604       -0.53915844329898
H          -10.42231637058965        2.94165958730584        0.59534449987491
H           -9.51667773738374        3.92628432244112        2.67115019081940
H           -7.39882979291808        3.06824075783432        3.60784722780750
H           -6.20102642052699        1.23780166319744        2.48515614787107
H           -9.14220451906002       -1.08579422976193        1.24642875906441
H          -10.44509104809635       -2.90366662788599        0.22444853845912
H           -9.72656731228424       -3.89300196697690       -1.92112721017102
H           -7.69701936732468       -3.04087301102881       -3.04081157179420
H           -6.40171054601459       -1.21151511883224       -2.02980049074065
H           -5.38645045177493       -2.12220373093360        0.32847440349900
H           -2.91910341028510       -2.11647318795187        0.22608298952716
H           -0.38098371922209        3.59440501119625       -0.08638386651027
H            0.85150006804094        5.73289445741149       -0.18638666251088
H            2.19054196808102        5.88274008629110       -2.56626711435364
H            1.28504183642509        7.79047026024160       -3.82559948396005
H            1.55541308870044       10.08916530188445       -2.96417132147518
H            2.73268314886683       10.46190898047514       -0.82555201748966
H            3.62407267647744        8.55461077220981        0.44485714845100
H            5.60150241720008        7.31782629848169       -1.15682677079967
H            7.75559409555543        7.56832773950992        0.00227514451385
H            8.10621425872916        6.52390614868242        2.21240794732528
H            6.27864362475168        5.23284020900608        3.25753098807995
H            4.11775363797933        4.99491662957235        2.10856298858498
H            4.54849165840491        3.58152102079675       -0.19526483606245
H            3.29848162039792        1.45346449091842       -0.09581557439615
H            3.29446697226206       -1.46394034704347        0.05148683820054
H            4.53665099239819       -3.59901827722029        0.04750103995754
H            2.25800649378067       -5.94312042669707       -2.35463382176472
H            1.38998372854012       -7.87471914660180       -3.60401392412507

          :  Hamiltonian                  GFN2-xTB          :
         :: gradient norm              0.000034501002 Eh/a0 ::
         :: HOMO-LUMO gap              2.135795860446 eV    ::
         :: SCC energy              -164.027777590670 Eh    ::
         :: -> dispersion             -0.143323245129 Eh    ::
         :: repulsion energy           2.980129508101 Eh    ::

    * Orbital Energies and Occupations

         #    Occupation            Energy/Eh            Energy/eV
      -------------------------------------------------------------
         1        2.0000           -0.6670903             -18.1525
       ...           ...                  ...                  ...
       138        2.0000           -0.4060232             -11.0485
       139        2.0000           -0.4058771             -11.0445
       140        2.0000           -0.4041334             -10.9970
       141        2.0000           -0.4041170             -10.9966
       142        2.0000           -0.4040694             -10.9953
       143        2.0000           -0.4033890             -10.9768
       144        2.0000           -0.4006072             -10.9011
       145        2.0000           -0.4005569             -10.8997
       146        2.0000           -0.3556765              -9.6784
       147        2.0000           -0.3556665              -9.6782
       148        2.0000           -0.3514748              -9.5641
       149        2.0000           -0.3513932              -9.5619
       150        2.0000           -0.3503231              -9.5328 (HOMO)
       151                         -0.2718341              -7.3970 (LUMO)
       152                         -0.2717868              -7.3957
       153                         -0.2385965              -6.4925
       154                         -0.2316575              -6.3037
       155                         -0.2314878              -6.2991
       156                         -0.2314577              -6.2983
       157                         -0.2277089              -6.1963
       158                         -0.2275697              -6.1925
       159                         -0.2275436              -6.1918
       160                         -0.2228075              -6.0629
       161                         -0.2226499              -6.0586
       ...                                ...                  ...
       294                          0.7069597              19.2374
      -------------------------------------------------------------
                  HL-Gap            0.0784891 Eh            2.1358 eV

     #   Z          covCN         q      C6AA      α(0)
     1   6 C        2.919    -0.037    28.929     8.820
     2   6 C        2.920    -0.029    28.723     8.789
     3   6 C        2.922    -0.047    29.156     8.855
     4   6 C        2.925     0.065    26.547     8.449
     5   7 N        2.752    -0.070    22.605     7.061
     6   6 C        2.925     0.065    26.547     8.449
     7   6 C        2.922    -0.046    29.152     8.854
     8   6 C        2.920    -0.029    28.718     8.788
     9   6 C        2.919    -0.037    28.929     8.820
    10   6 C        2.920    -0.029    28.723     8.789
    11   6 C        2.922    -0.047    29.156     8.855
    12   6 C        2.924     0.069    26.458     8.435
    13   6 C        2.920    -0.049    29.206     8.862
    14   6 C        2.923    -0.025    28.630     8.775
    15   6 C        2.984    -0.010    28.262     8.720
    16   6 C        2.980     0.200    23.753     7.995
    17   7 N        1.844    -0.305    28.745     7.946
    18   6 C        2.980     0.200    23.754     7.995
    19   6 C        2.984    -0.010    28.265     8.721
    20   6 C        2.923    -0.025    28.630     8.775
    21   6 C        2.920    -0.049    29.212     8.863
    22   6 C        2.924     0.069    26.458     8.435
    23   7 N        2.752    -0.070    22.601     7.061
    24   6 C        2.925     0.065    26.547     8.450
    25   6 C        2.922    -0.046    29.154     8.854
    26   6 C        2.920    -0.029    28.723     8.789
    27   6 C        2.919    -0.037    28.927     8.820
    28   6 C        2.920    -0.029    28.717     8.788
    29   6 C        2.922    -0.046    29.149     8.854
    30   6 C        2.925     0.065    26.547     8.450
    31   6 C        2.922    -0.046    29.153     8.854
    32   6 C        2.920    -0.029    28.722     8.789
    33   6 C        2.919    -0.037    28.927     8.820
    34   6 C        2.920    -0.029    28.718     8.788
    35   6 C        2.922    -0.046    29.149     8.854
    36   6 C        2.920    -0.049    29.212     8.863
    37   6 C        2.923    -0.025    28.630     8.775
    38   7 N        1.844    -0.305    28.743     7.946
    39   6 C        2.980     0.200    23.754     7.995
    40   6 C        2.984    -0.010    28.263     8.721
    41   6 C        2.923    -0.025    28.630     8.775
    42   6 C        2.920    -0.049    29.207     8.862
    43   6 C        2.924     0.069    26.458     8.435
    44   7 N        2.752    -0.070    22.604     7.061
    45   6 C        2.925     0.065    26.547     8.450
    46   6 C        2.922    -0.046    29.152     8.854
    47   6 C        2.920    -0.029    28.717     8.788
    48   6 C        2.919    -0.037    28.929     8.820
    49   6 C        2.920    -0.029    28.723     8.789
    50   6 C        2.922    -0.047    29.156     8.855
    51   6 C        2.925     0.065    26.547     8.449
    52   6 C        2.922    -0.047    29.155     8.855
    53   6 C        2.920    -0.029    28.723     8.789
    54   6 C        2.919    -0.037    28.928     8.820
    55   6 C        2.920    -0.029    28.718     8.788
    56   6 C        2.922    -0.046    29.151     8.854
    57   6 C        2.920    -0.049    29.207     8.862
    58   6 C        2.923    -0.025    28.630     8.775
    59   7 N        1.845    -0.305    28.746     7.946
    60   6 C        2.923    -0.025    28.630     8.775
    61   6 C        2.920    -0.049    29.206     8.862
    62   6 C        2.922    -0.046    29.152     8.854
    63   6 C        2.920    -0.029    28.718     8.788
    64   1 H        0.926     0.031     2.566     2.505
    65   1 H        0.926     0.032     2.551     2.498
    66   1 H        0.926     0.032     2.552     2.498
    67   1 H        0.926     0.034     2.530     2.488
    68   1 H        0.926     0.033     2.542     2.493
    69   1 H        0.926     0.031     2.566     2.505
    70   1 H        0.926     0.033     2.551     2.498
    71   1 H        0.926     0.032     2.552     2.498
    72   1 H        0.926     0.035     2.510     2.477
    73   1 H        0.926     0.056     2.250     2.346
    74   1 H        0.926     0.056     2.252     2.347
    75   1 H        0.926     0.035     2.511     2.478
    76   1 H        0.926     0.032     2.552     2.498
    77   1 H        0.926     0.033     2.550     2.497
    78   1 H        0.926     0.032     2.565     2.504
    79   1 H        0.926     0.033     2.540     2.492
    80   1 H        0.926     0.034     2.527     2.486
    81   1 H        0.926     0.032     2.552     2.498
    82   1 H        0.926     0.033     2.550     2.497
    83   1 H        0.926     0.032     2.565     2.504
    84   1 H        0.926     0.033     2.540     2.492
    85   1 H        0.926     0.034     2.527     2.486
    86   1 H        0.926     0.035     2.511     2.478
    87   1 H        0.926     0.056     2.251     2.346
    88   1 H        0.926     0.056     2.250     2.346
    89   1 H        0.926     0.035     2.510     2.477
    90   1 H        0.926     0.034     2.530     2.487
    91   1 H        0.926     0.033     2.541     2.493
    92   1 H        0.926     0.031     2.566     2.505
    93   1 H        0.926     0.033     2.551     2.498
    94   1 H        0.926     0.032     2.552     2.498
    95   1 H        0.926     0.032     2.552     2.498
    96   1 H        0.926     0.033     2.551     2.498
    97   1 H        0.926     0.031     2.566     2.505
    98   1 H        0.926     0.033     2.541     2.493
    99   1 H        0.926     0.034     2.530     2.487
   100   1 H        0.926     0.035     2.510     2.478
   101   1 H        0.926     0.056     2.249     2.345
   102   1 H        0.926     0.056     2.250     2.346
   103   1 H        0.926     0.035     2.510     2.477
   104   1 H        0.926     0.034     2.531     2.488
   105   1 H        0.926     0.033     2.542     2.493

molecular dipole:
                 x           y           z       tot (Debye)
 q only:       -0.017       0.003      -0.001
   full:       -0.017       0.003      -0.001       0.043

 projected vibrational frequencies (cm⁻¹)
eigval :       -0.00    -0.00     0.00     0.00     0.00     0.00
eigval :        5.39     6.33     6.36    10.43    14.94    15.26
eigval :       26.57    27.70    35.14    40.78    41.03    44.14
eigval :       46.73    47.37    57.25    61.21    63.54    64.72
eigval :       66.45    75.25    75.41    92.91    93.23   100.30
eigval :      102.73   102.97   130.52   136.72   159.69   160.44
eigval :      168.74   180.55   180.98   215.92   217.22   221.21
eigval :      235.40   236.63   236.84   281.70   282.78   295.86
eigval :      297.86   308.61   313.83   314.87   329.33   334.29
eigval :      365.36   367.35   376.05   376.85   377.13   378.04
eigval :      378.08   378.22   380.87   386.33   386.77   390.47
eigval :      398.25   400.34   408.60   434.93   435.69   471.06
eigval :      471.18   487.31   490.70   491.67   492.08   497.57
eigval :      497.86   504.07   554.13   581.11   581.34   583.20
eigval :      585.03   585.11   586.16   592.39   592.47   593.21
eigval :      605.90   606.21   613.80   614.09   614.42   627.23
eigval :      631.91   632.23   659.88   660.70   660.80   665.56
eigval :      665.64   667.76   679.25   703.00   703.08   704.89
eigval :      704.98   726.27   757.69   757.72   757.83   760.37
eigval :      760.38   761.56   776.94   826.17   826.23   826.43
eigval :      843.87   843.88   868.77   870.71   870.94   875.13
eigval :      875.17   875.29   876.33   876.56   876.59   893.66
eigval :      893.70   893.81   893.89   894.34   894.46   910.10
eigval :      910.16   910.18   915.90   920.26   920.35   922.69
eigval :      926.09   927.37   927.82   927.91   927.95   928.02
eigval :      928.93   928.98   929.43   929.70   929.76   929.90
eigval :      930.31   930.48   930.58   931.28   931.52   982.19
eigval :      986.87   986.88  1005.22  1005.24  1005.25  1009.53
eigval :     1019.90  1019.97  1045.24  1082.78  1082.82  1082.83
eigval :     1083.92  1083.94  1083.94  1088.94  1121.18  1121.54
eigval :     1121.57  1123.61  1123.69  1123.78  1125.27  1130.55
eigval :     1130.82  1162.49  1162.80  1180.64  1180.65  1180.65
eigval :     1180.73  1180.74  1180.76  1185.82  1186.15  1186.21
eigval :     1190.42  1195.13  1195.16  1195.21  1200.84  1200.88
eigval :     1210.87  1213.67  1220.52  1220.67  1259.07  1261.78
eigval :     1261.96  1278.02  1278.08  1278.11  1281.44  1281.46
eigval :     1281.47  1312.76  1313.16  1313.30  1318.82  1319.14
eigval :     1319.18  1322.63  1322.79  1323.61  1326.70  1326.89
eigval :     1326.92  1335.59  1335.71  1337.67  1368.53  1368.81
eigval :     1389.93  1415.16  1415.20  1417.16  1436.40  1436.43
eigval :     1436.76  1442.32  1442.35  1442.96  1469.27  1469.31
eigval :     1471.61  1475.19  1475.35  1475.49  1488.82  1488.95
eigval :     1496.18  1501.34  1501.58  1556.24  1560.85  1561.02
eigval :     1577.80  1577.90  1577.92  1581.60  1581.62  1581.68
eigval :     1591.43  1591.45  1592.40  1594.32  1594.42  1594.51
eigval :     1600.58  1600.76  1600.78  3076.57  3076.58  3076.61
eigval :     3077.13  3077.16  3077.20  3078.02  3078.05  3078.11
eigval :     3078.33  3078.36  3078.41  3082.58  3082.71  3082.86
eigval :     3083.75  3083.87  3084.21  3086.72  3086.75  3086.76
eigval :     3087.68  3087.71  3087.73  3090.17  3090.23  3090.33
eigval :     3090.75  3090.79  3090.88  3097.88  3097.92  3097.94
eigval :     3098.33  3098.38  3098.47  3108.35  3108.70  3108.81
eigval :     3110.31  3110.43  3111.01

   temp. (K)  partition function   enthalpy   heat capacity  entropy
                                   cal/mol     cal/K/mol   cal/K/mol   J/K/mol
 298.15  VIB  0.178E+28            30999.442    188.514    199.651
         ROT  0.344E+09              888.752      2.981     42.042
         INT  0.612E+36            31888.194    191.495    241.693
         TR   0.223E+29             1481.254      4.968     45.936
         TOT                       33369.4480   196.4633   287.6295  1203.4419

       T/K    H(0)-H(T)+PV         H(T)/Eh          T*S/Eh         G(T)/Eh
   ------------------------------------------------------------------------
    298.15    0.531776E-01    0.866924E+00    0.136662E+00    0.730262E+00
   ------------------------------------------------------------------------

         :::::::::::::::::::::::::::::::::::::::::::::::::::::
         ::                  THERMODYNAMIC                  ::
         :::::::::::::::::::::::::::::::::::::::::::::::::::::
         :: total free energy        -160.317386217226 Eh   ::
         ::.................................................::
         :: total energy             -161.047648082568 Eh   ::
         :: zero point energy           0.813746330309 Eh   ::
         :: G(RRHO) w/o ZPVE           -0.083484464967 Eh   ::
         :: G(RRHO) contrib.            0.730261865342 Eh   ::
         :::::::::::::::::::::::::::::::::::::::::::::::::::::

           -------------------------------------------------
          | TOTAL ENERGY             -161.047648082568 Eh   |
          | TOTAL ENTHALPY           -160.180724152039 Eh   |
          | TOTAL FREE ENERGY        -160.317386217226 Eh   |
          | GRADIENT NORM               0.000034502364 Eh/α |
          | HOMO-LUMO GAP               2.135795767855 eV   |
           -------------------------------------------------

 * finished run on 2025/09/05 at 09:56:48.723
