   * xtb version 6.7.1 (edcfbbe) compiled by 'albert@albert-system' on 2024-07-22

   ID    Z sym.   atoms
    1    6 C      1-4, 6-16, 18-22, 24-37, 39-43, 45-58, 60-63
    2    7 N      5, 17, 23, 38, 44, 59
    3    1 H      64-105

          program call               : xtb data2507/gas/TDPA–TRZ/TDPA–TRZ_gas_S0_finalOpt.xtbopt.xyz --gfn 2 --spinpol --tblite --uhf 2 --ohess vtight --parallel 40 --molden --ceasefiles --namespace data2507/gas/TDPA–TRZ/TDPA–TRZ_gas_T1_preOpt
 * total energy  :  -160.9689983 Eh     change       -0.2496586E-07 Eh
 * total energy  :  -160.9706170 Eh     change       -0.1618763E-02 Eh
 * total energy  :  -160.9712122 Eh     change       -0.5951913E-03 Eh
 * total energy  :  -160.9712543 Eh     change       -0.4208177E-04 Eh
 * total energy  :  -160.9713034 Eh     change       -0.4909387E-04 Eh
 * total energy  :  -160.9713340 Eh     change       -0.3058081E-04 Eh
 * total energy  :  -160.9713837 Eh     change       -0.4970328E-04 Eh
 * total energy  :  -160.9714679 Eh     change       -0.8418600E-04 Eh
 * total energy  :  -160.9715780 Eh     change       -0.1101495E-03 Eh
 * total energy  :  -160.9716666 Eh     change       -0.8857189E-04 Eh
 * total energy  :  -160.9719741 Eh     change       -0.9927806E-06 Eh
 * total energy  :  -160.9719743 Eh     change       -0.1527867E-06 Eh
 * total energy  :  -160.9719745 Eh     change       -0.2605301E-06 Eh
 * total energy  :  -160.9719748 Eh     change       -0.2432853E-06 Eh
 * total energy  :  -160.9719750 Eh     change       -0.1835604E-06 Eh
 * total energy  :  -160.9719745 Eh     change        0.4425331E-06 Eh
 * total energy  :  -160.9719747 Eh     change       -0.1626130E-06 Eh
 * total energy  :  -160.9719747 Eh     change       -0.3456205E-07 Eh
 * total energy  :  -160.9719747 Eh     change       -0.9785026E-08 Eh
   *** GEOMETRY OPTIMIZATION CONVERGED AFTER 81 ITERATIONS ***

 final structure:
================
105
 xtb: 6.7.1 (edcfbbe)
C            2.24434994444018       -9.21579230882626       -2.13471188776910
C            2.93106794310234       -9.39829367856878       -0.94474649718664
C            3.41373877897080       -8.31308280623454       -0.24117596620573
C            3.22021716950193       -7.01756691237884       -0.72622755220911
N            3.69925786267527       -5.91469432089354       -0.01934120431264
C            4.90225359414022       -5.98761185879457        0.68304087584883
C            5.05926690156897       -5.29716650761838        1.88695857769564
C            6.25431458807670       -5.36174672584477        2.57472369406360
C            7.30938105881913       -6.11363104581790        2.08221056814336
C            7.15989153660995       -6.80012598682974        0.88751554794245
C            5.97104893068883       -6.73868921975769        0.18854250437565
C            2.96424207032327       -4.72145256158914       -0.01355064480164
C            1.56729267873131       -4.74799909928309        0.07564732259994
C            0.84804784201503       -3.57958404103478        0.07975273137421
C            1.49648561927122       -2.33459211872276        0.00005625973114
C            0.74473626042605       -1.11698682593515        0.00978508166261
N           -0.62075845528706       -1.18437886377802        0.10633411667036
C           -1.28866074262477       -0.04490511277392        0.08718809813801
C           -2.74708196014921       -0.09714272604932        0.14523872053730
C           -3.49994872846343        1.07570703490814        0.09314815181985
C           -4.87442838556578        1.02891120325780        0.14181089387141
C           -5.53767914620948       -0.19725843757455        0.25026583617753
N           -6.92981223126575       -0.24706435255084        0.30242247929931
C           -7.64798121877879        0.76767484092815        0.94794428659526
C           -8.86204501881193        1.21358005296996        0.42635282425761
C           -9.57122005782259        2.20914649138153        1.06969900707722
C           -9.08181491753919        2.77945520273340        2.23347337068522
C           -7.87472595190871        2.34180911149775        2.75387509729898
C           -7.16174248320002        1.34146811072643        2.12246444730687
C           -7.62017780611843       -1.31211936180424       -0.29009917033759
C           -8.75747667384993       -1.84133313749070        0.31928836982460
C           -9.44034093175479       -2.88638051463358       -0.27191054951979
C           -8.99978633113526       -3.42395796993880       -1.47027856612650
C           -7.86871441210482       -2.90356648359508       -2.07794070158737
C           -7.18328357695701       -1.85349962579715       -1.49891541200221
C           -4.78210526437618       -1.37249637356161        0.30527668938770
C           -3.40804165246914       -1.32074405979695        0.25006641416862
N           -0.70690823004925        1.13942272829042        0.02963969449153
C            0.66089212989827        1.16730430880742       -0.05191276209061
C            1.32232791086704        2.43456416382279       -0.11802896280427
C            0.58539772243791        3.63158987887041       -0.08917294322949
C            1.21801435634273        4.84780131621443       -0.14594719029595
C            2.61305192600415        4.91882322043010       -0.24036524075027
N            3.25937065540764        6.16089215261249       -0.30067600542259
C            2.69798682242424        7.19616845782289       -1.04824575484906
C            2.01479192447027        6.91986852612239       -2.23471291829576
C            1.45003789789494        7.94481831176214       -2.96672363193524
C            1.55689520337989        9.25805234144040       -2.53646097102245
C            2.23317142065863        9.53842546837944       -1.35962541217889
C            2.79749849373073        8.52090431909609       -0.61673032038695
C            4.45734107868546        6.35024511575624        0.38858222182311
C            5.46613857335655        7.15531634289790       -0.14539329965352
C            6.65102293494555        7.33189457592562        0.54060225876146
C            6.85621003243362        6.70875606571360        1.76146548849047
C            5.86100888158869        5.90406050124612        2.29354660720748
C            4.67021300487830        5.72441727653843        1.61893755108487
C            3.35433989895870        3.73035573896640       -0.27291419288743
C            2.72318457561066        2.51448965367147       -0.21002792186841
N            1.36785639116581        0.04795369794475       -0.07841656439716
C            2.89982217736651       -2.31646733017534       -0.08731528121770
C            3.61771393984678       -3.48484279965619       -0.09630512079268
C            2.52653924655350       -6.83999224448362       -1.92544894138158
C            2.04392229492787       -7.93222780476232       -2.61783192464105
H            1.86712669548535      -10.06720886553428       -2.68033776449636
H            3.08416352255958      -10.39442898750008       -0.55630619510708
H            3.93414809789757       -8.45775056415949        0.69426092467191
H            4.23440333887217       -4.71991439557289        2.27745859660492
H            6.36066158052735       -4.82695714260118        3.50696050366454
H            8.24142934961717       -6.16307859458452        2.62420183986854
H            7.97981615731584       -7.38126595148898        0.49178050791825
H            5.86328056325198       -7.26149319685357       -0.75053705556022
H            1.06284054959430       -5.70073618121272        0.15288501892721
H           -0.22790098613117       -3.59477822990871        0.15591294483505
H           -2.98468854180198        2.01924433656430        0.00235959385522
H           -5.45194155496084        1.94020149328634        0.08711048092558
H           -9.24047183793955        0.77675779288774       -0.48625303599122
H          -10.50892744866399        2.54764257677310        0.65417065784315
H           -9.63739548450592        3.55935725143005        2.73158835878393
H           -7.48857918217767        2.77666465843391        3.66394918735612
H           -6.22620661271139        0.99397763917100        2.53552638019375
H           -9.09690134757070       -1.42978885456685        1.25858526844565
H          -10.31824157700222       -3.28914536624977        0.21141127125198
H           -9.53437830534045       -4.24256225508300       -1.92759611708949
H           -7.52155199478521       -3.31263561030226       -3.01527642544945
H           -6.30803464985797       -1.44188101817628       -1.97964975975462
H           -5.28721932335637       -2.32260551048801        0.40077298879899
H           -2.82120567694067       -2.22475339294624        0.29889190753818
H           -0.48867118890383        3.57223890663657       -0.00833821080948
H            0.64571654527325        5.76381849437661       -0.10687644898866
H            1.94033167505732        5.89834988786755       -2.57687212539891
H            0.92858788734130        7.71768531160484       -3.88481417493546
H            1.11539887203686       10.05666695808076       -3.11283004279281
H            2.31385411703264       10.55797407232154       -1.01231780023994
H            3.30971978996970        8.74104689960384        0.30845722468990
H            5.31575257815935        7.62912731905784       -1.10439799434299
H            7.42451478433658        7.95367242336935        0.11433538270394
H            7.78508877355335        6.84804673022608        2.29315448572307
H            6.01073601507489        5.41804199630050        3.24630197693860
H            3.89146330735956        5.10601550638949        2.03992039185423
H            4.43029260177588        3.78389817689526       -0.35950586960799
H            3.28942430171703        1.59696635721417       -0.24206112460334
H            3.39806467694131       -1.36242453069244       -0.15855547947531
H            4.69511836564638       -3.46399412757519       -0.17884762679210
H            2.37944002446570       -5.84122152412443       -2.30878023587907
H            1.51355276913618       -7.78101563067153       -3.54639884415396

 projected vibrational frequencies (cm⁻¹)
eigval :       -0.00    -0.00    -0.00     0.00     0.00     0.00
eigval :        5.44     7.72     7.90     9.67    14.14    14.64
eigval :       25.78    27.85    34.86    39.59    40.40    44.40
eigval :       49.41    49.45    56.72    60.22    63.45    63.81
eigval :       67.92    75.64    76.80    93.06    96.20   100.43
eigval :      104.68   108.19   126.48   136.18   155.63   161.17
eigval :      172.34   176.52   185.78   213.07   213.76   218.99
eigval :      230.98   233.03   234.94   276.66   286.91   290.59
eigval :      294.69   309.31   310.95   313.48   324.30   329.25
eigval :      346.79   360.33   375.73   376.31   376.75   376.97
eigval :      377.72   378.08   381.43   384.18   385.90   388.21
eigval :      390.29   393.87   396.89   404.26   417.66   447.94
eigval :      461.94   463.94   474.74   477.80   485.12   497.81
eigval :      498.87   501.44   549.16   553.42   559.64   569.53
eigval :      575.94   580.86   583.48   585.33   588.63   589.72
eigval :      590.16   591.42   592.17   594.45   601.55   608.12
eigval :      612.06   625.37   627.62   653.45   657.40   659.14
eigval :      661.02   661.93   662.74   665.91   672.36   677.21
eigval :      687.74   689.01   693.43   722.08   755.11   755.17
eigval :      757.20   758.24   758.67   760.31   805.49   806.66
eigval :      807.84   816.14   821.22   850.42   851.69   867.09
eigval :      870.67   870.71   873.57   873.76   874.35   875.30
eigval :      890.50   890.54   892.50   893.22   893.39   893.83
eigval :      904.92   905.88   908.30   909.84   909.90   910.03
eigval :      915.22   915.88   917.97   920.78   923.87   925.50
eigval :      926.03   926.05   927.36   927.40   927.47   927.52
eigval :      927.52   928.98   929.21   929.25   929.29   929.72
eigval :      948.53   981.43   982.65   985.51  1000.40  1002.19
eigval :     1002.26  1004.75  1008.56  1014.96  1040.81  1081.63
eigval :     1081.66  1082.42  1082.44  1082.48  1083.51  1112.63
eigval :     1113.06  1120.84  1121.44  1121.54  1123.45  1123.75
eigval :     1124.22  1124.28  1130.82  1131.37  1173.67  1174.48
eigval :     1179.43  1179.43  1179.54  1179.56  1179.78  1180.03
eigval :     1180.09  1184.04  1185.33  1188.77  1192.98  1193.03
eigval :     1194.33  1198.38  1209.89  1211.80  1219.78  1255.73
eigval :     1257.48  1257.62  1270.59  1276.56  1276.58  1277.46
eigval :     1278.05  1280.58  1282.23  1307.21  1311.30  1311.93
eigval :     1312.44  1313.61  1318.26  1318.79  1320.62  1320.76
eigval :     1326.69  1328.44  1328.53  1331.50  1333.72  1336.22
eigval :     1348.74  1354.35  1398.87  1417.54  1422.35  1424.83
eigval :     1434.59  1435.01  1436.35  1441.54  1442.25  1442.49
eigval :     1455.37  1464.97  1465.09  1465.96  1466.08  1469.09
eigval :     1473.46  1475.68  1489.53  1507.31  1508.49  1554.08
eigval :     1559.50  1568.00  1568.00  1571.43  1572.62  1573.54
eigval :     1576.43  1580.13  1584.96  1585.05  1586.06  1591.24
eigval :     1592.13  1592.65  1598.16  3074.04  3074.13  3075.46
eigval :     3075.70  3076.66  3076.66  3076.74  3077.33  3077.39
eigval :     3077.45  3078.38  3078.63  3079.48  3079.50  3079.68
eigval :     3079.71  3082.07  3083.22  3086.78  3087.21  3087.23
eigval :     3087.73  3088.48  3088.50  3090.33  3090.87  3091.91
eigval :     3091.96  3092.23  3092.29  3098.02  3098.05  3098.22
eigval :     3098.56  3098.60  3098.90  3100.73  3100.98  3102.27
eigval :     3102.77  3103.20  3104.21

   temp. (K)  partition function   enthalpy   heat capacity  entropy
                                   cal/mol     cal/K/mol   cal/K/mol   J/K/mol
 298.15  VIB  0.192E+28            31435.121    191.844    201.568
         ROT  0.343E+09              888.752      2.981     42.040
         INT  0.661E+36            32323.873    194.825    243.608
         TR   0.223E+29             1481.254      4.968     45.936
         TOT                       33805.1269   199.7934   289.5440  1211.4520

       T/K    H(0)-H(T)+PV         H(T)/Eh          T*S/Eh         G(T)/Eh
   ------------------------------------------------------------------------
    298.15    0.538719E-01    0.860960E+00    0.137572E+00    0.723389E+00
   ------------------------------------------------------------------------

         :::::::::::::::::::::::::::::::::::::::::::::::::::::
         ::                  THERMODYNAMIC                  ::
         :::::::::::::::::::::::::::::::::::::::::::::::::::::
         :: total free energy        -160.248586012527 Eh   ::
         ::.................................................::
         :: total energy             -160.971974718264 Eh   ::
         :: zero point energy           0.807088488637 Eh   ::
         :: G(RRHO) w/o ZPVE           -0.083699782901 Eh   ::
         :: G(RRHO) contrib.            0.723388705737 Eh   ::
         :::::::::::::::::::::::::::::::::::::::::::::::::::::

           -------------------------------------------------
          | TOTAL ENERGY             -160.971974718264 Eh   |
          | TOTAL ENTHALPY           -160.111014330775 Eh   |
          | TOTAL FREE ENERGY        -160.248586012527 Eh   |
          | GRADIENT NORM               0.000171283485 Eh/α |
           -------------------------------------------------

 * finished run on 2025/09/05 at 10:11:31.849
