   * xtb version 6.7.1 (edcfbbe) compiled by 'albert@albert-system' on 2024-07-22

   ID    Z sym.   atoms
    1    6 C      1-4, 6-16, 18-22, 24-37, 39-43, 45-58, 60-63
    2    7 N      5, 17, 23, 38, 44, 59
    3    1 H      64-105

          program call               : xtb data2507/gas/TDPA–TRZ/TDPA–TRZ_gas_S0_crest.xyz --gfn 2 --ohess vtight --parallel 40 --molden --ceasefiles --namespace data2507/gas/TDPA–TRZ/TDPA–TRZ_gas_S0_finalOpt
          :  Hamiltonian                  GFN2-xTB          :
 * total energy  :  -161.0476171 Eh     change       -0.1664802E-08 Eh
 * total energy  :  -161.0476180 Eh     change       -0.8547301E-06 Eh
 * total energy  :  -161.0476199 Eh     change       -0.1973153E-05 Eh
 * total energy  :  -161.0476234 Eh     change       -0.3433638E-05 Eh
 * total energy  :  -161.0476270 Eh     change       -0.3667831E-05 Eh
 * total energy  :  -161.0476295 Eh     change       -0.2471302E-05 Eh
 * total energy  :  -161.0476315 Eh     change       -0.1965335E-05 Eh
 * total energy  :  -161.0476334 Eh     change       -0.1973214E-05 Eh
 * total energy  :  -161.0476355 Eh     change       -0.2019066E-05 Eh
 * total energy  :  -161.0476377 Eh     change       -0.2229453E-05 Eh
 * total energy  :  -161.0476706 Eh     change       -0.7216786E-06 Eh
 * total energy  :  -161.0476714 Eh     change       -0.7543439E-06 Eh
 * total energy  :  -161.0476723 Eh     change       -0.9027747E-06 Eh
 * total energy  :  -161.0476733 Eh     change       -0.1007212E-05 Eh
 * total energy  :  -161.0476742 Eh     change       -0.9705723E-06 Eh
 * total energy  :  -161.0476751 Eh     change       -0.8693109E-06 Eh
 * total energy  :  -161.0476759 Eh     change       -0.8213713E-06 Eh
 * total energy  :  -161.0476768 Eh     change       -0.8709219E-06 Eh
 * total energy  :  -161.0476768 Eh     change       -0.4389705E-08 Eh
   *** GEOMETRY OPTIMIZATION CONVERGED AFTER 44 ITERATIONS ***

 final structure:
================
105
 xtb: 6.7.1 (edcfbbe)
C            2.30149560416178       -9.26330036982666       -2.04876441508864
C            2.95511406171792       -9.40211164784452       -0.83535224879809
C            3.41022034561736       -8.28975169855692       -0.15427002866817
C            3.22221436404380       -7.01516797240013       -0.68722099581056
N            3.69220463399013       -5.88514362382055       -0.00457503501896
C            4.91747422917454       -5.94970558002676        0.67302068811839
C            5.07896668521879       -5.31321397271994        1.90315466960892
C            6.28803375126761       -5.38175322164736        2.56752404827694
C            7.34814850403053       -6.08925724509106        2.02460326139322
C            7.19069718455159       -6.72759353029036        0.80534220040938
C            5.98801145251257       -6.65821453546964        0.12921509372569
C            2.95040690632393       -4.70648398289549       -0.00156305240423
C            1.55246566349890       -4.74578628312333        0.00313032277089
C            0.82204625530017       -3.57965793515736        0.00524372509873
C            1.46275403083389       -2.34037735159687        0.00229455452043
C            0.68768112834481       -1.10542538512371        0.00198820870401
N           -0.63944490339233       -1.20023802157527        0.04178535184686
C           -1.30543911602564       -0.04755456961733        0.04162261950381
C           -2.76120619355112       -0.09910620178990        0.09968534627209
C           -3.51498319296543        1.07286416439535        0.03052740398169
C           -4.88895460251747        1.02664823801082        0.08671034345162
C           -5.55246554117639       -0.19749836718083        0.21877352882178
N           -6.94246103712152       -0.24685159004035        0.27870130433834
C           -7.66344206137733        0.78801111835513        0.89035432264525
C           -8.87712528330907        1.21373910289611        0.35213523155137
C           -9.59230189987995        2.22510211846234        0.96363223986423
C           -9.10859799038677        2.83146185250056        2.11132749972835
C           -7.90154057201631        2.41404710656385        2.64790372040934
C           -7.18308866057883        1.39772859696580        2.04870350681734
C           -7.63679791261544       -1.33318509283893       -0.27173655439692
C           -8.76329998613187       -1.84667345708248        0.36945599044351
C           -9.45255501424799       -2.90968763908708       -0.18121352310805
C           -9.02833557180217       -3.48071191281641       -1.36983786752658
C           -7.90775827767445       -2.97577206828765       -2.00896396593001
C           -7.21665669370610       -1.90770868725279       -1.47074153485487
C           -4.79568220405584       -1.37162799037392        0.28948947785575
C           -3.42210984958203       -1.32101889012682        0.22846346101140
N           -0.72486701686742        1.14933551874354       -0.00824883047485
C            0.60563562403534        1.14947763035292       -0.04868757383164
C            1.28863035154812        2.43615230212005       -0.10713075011565
C            0.56171553505276        3.62663739056997       -0.08009391169172
C            1.20503072317081        4.84163581241370       -0.13626354158769
C            2.59957162641247        4.90205573575334       -0.22360118831145
N            3.25272930241414        6.13039093365292       -0.28204347013210
C            2.66065265475325        7.21621960105860       -0.94157811592463
C            1.94841217276043        7.02277033168058       -2.12463914783459
C            1.37127939040177        8.09798076949419       -2.77183470787775
C            1.50092919661566        9.37827969159597       -2.25884307102973
C            2.21157583974243        9.57588571497772       -1.08632161147206
C            2.78536513231567        8.50605336839378       -0.42713394240052
C            4.51088772612548        6.29165360130992        0.31426044215041
C            5.48820410794057        7.07203062257072       -0.30196378124758
C            6.72345431914206        7.23759939839072        0.29390869587686
C            7.00673716330698        6.62506567952655        1.50361705817925
C            6.03978446430374        5.84633259761798        2.11820611769740
C            4.79867941151192        5.68160524486851        1.53467922439065
C            3.32724333731822        3.70801806788739       -0.25129873558330
C            2.67991131309162        2.49539958900953       -0.19275088498848
N            1.35200159086221        0.04732434725120       -0.03863175839742
C            2.85732097234915       -2.30020579816055       -0.00190921016011
C            3.59170069429594       -3.46369227395393       -0.00342342377730
C            2.56880764360972       -6.88080516421477       -1.91178702263536
C            2.10993008309533       -7.99867504385773       -2.58089406162973
H            1.94445790576911      -10.13463426106255       -2.57641166793140
H            3.10508301153067      -10.38392287844271       -0.41091720739342
H            3.91212831429897       -8.39943124447912        0.79597700167786
H            4.25006993590630       -4.76996901577357        2.33272681216202
H            6.39993718305058       -4.88620424999499        3.52066243914430
H            8.29039100140732       -6.14320127742050        2.54842172010840
H            8.01335278384820       -7.27754753757721        0.37247749995497
H            5.86959783772818       -7.14953153259255       -0.82551130398535
H            1.05013128701421       -5.70209540847726        0.01437790889837
H           -0.25606505113439       -3.60553134500194        0.01649270213258
H           -3.00013227961587        2.01415481290030       -0.07913920484534
H           -5.46646565488778        1.93711806985585        0.01983337264147
H           -9.25175716556557        0.74757010350653       -0.54745373565444
H          -10.53033378725947        2.54704916720655        0.53581658883545
H           -9.66882523197956        3.62336493411539        2.58476743440839
H           -7.51989434406605        2.87707788204734        3.54595745475269
H           -6.24765574460670        1.06600121862283        2.47485359150293
H           -9.09055515107978       -1.40777906499891        1.30069155270991
H          -10.32257834978533       -3.29975020825044        0.32620981612022
H           -9.56773290224910       -4.31313644769073       -1.79554483598171
H           -7.57353837847083       -3.41096425448060       -2.93925881930849
H           -6.34951890330978       -1.50823118925530       -1.97589482705586
H           -5.29993947358270       -2.32023543654416        0.40266886946873
H           -2.83492201945948       -2.22344561575976        0.29143742663167
H           -0.51284906078013        3.57583002297948       -0.00358738797522
H            0.63669646212117        5.75974294744749       -0.10374315279946
H            1.85577867681733        6.02668581817734       -2.53198764040727
H            0.82406288398705        7.93547391407714       -3.68873225503442
H            1.05180534494402       10.21636379117236       -2.76973522195184
H            2.31384229307808       10.57003290661178       -0.67669457848287
H            3.33232172187068        8.66083494993933        0.49145285343099
H            5.27203543383181        7.54341800620457       -1.24957797833236
H            7.47280887954969        7.84293962485381       -0.19456503992418
H            7.97419447208314        6.75417215362922        1.96455511279372
H            6.24989762491449        5.36996927395395        3.06450766685027
H            4.04225342688576        5.08291985020952        2.02056812992378
H            4.40400475379942        3.74621453405113       -0.32927356539010
H            3.23677522294533        1.57232937168789       -0.22303859420494
H            3.34783702350950       -1.33981708475013       -0.01215766977223
H            4.67121587308084       -3.42534075302423       -0.01613512041731
H            2.42837631354606       -5.89641134981722       -2.33362123062877
H            1.60691721842016       -7.88139323847710       -3.52947049482831

          :  Hamiltonian                  GFN2-xTB          :
         :: gradient norm              0.000050151678 Eh/a0 ::
         :: HOMO-LUMO gap              2.138840912531 eV    ::
         :: SCC energy              -164.027794876185 Eh    ::
         :: -> dispersion             -0.143330338716 Eh    ::
         :: repulsion energy           2.980118060985 Eh    ::

    * Orbital Energies and Occupations

         #    Occupation            Energy/Eh            Energy/eV
      -------------------------------------------------------------
         1        2.0000           -0.6669800             -18.1495
       ...           ...                  ...                  ...
       138        2.0000           -0.4060387             -11.0489
       139        2.0000           -0.4058906             -11.0448
       140        2.0000           -0.4040714             -10.9953
       141        2.0000           -0.4040545             -10.9949
       142        2.0000           -0.4040045             -10.9935
       143        2.0000           -0.4033550             -10.9758
       144        2.0000           -0.4005714             -10.9001
       145        2.0000           -0.4005028             -10.8982
       146        2.0000           -0.3555604              -9.6753
       147        2.0000           -0.3555463              -9.6749
       148        2.0000           -0.3514481              -9.5634
       149        2.0000           -0.3513965              -9.5620
       150        2.0000           -0.3503116              -9.5325 (HOMO)
       151                         -0.2717107              -7.3936 (LUMO)
       152                         -0.2716437              -7.3918
       153                         -0.2385052              -6.4901
       154                         -0.2316640              -6.3039
       155                         -0.2315580              -6.3010
       156                         -0.2314625              -6.2984
       157                         -0.2277040              -6.1961
       158                         -0.2276190              -6.1938
       159                         -0.2275413              -6.1917
       160                         -0.2227990              -6.0627
       161                         -0.2227082              -6.0602
       ...                                ...                  ...
       294                          0.7070507              19.2398
      -------------------------------------------------------------
                  HL-Gap            0.0786009 Eh            2.1388 eV

     #   Z          covCN         q      C6AA      α(0)
     1   6 C        2.919    -0.037    28.930     8.820
     2   6 C        2.920    -0.029    28.723     8.789
     3   6 C        2.922    -0.047    29.157     8.855
     4   6 C        2.925     0.065    26.547     8.449
     5   7 N        2.752    -0.070    22.604     7.061
     6   6 C        2.925     0.065    26.546     8.449
     7   6 C        2.922    -0.046    29.149     8.854
     8   6 C        2.920    -0.029    28.718     8.788
     9   6 C        2.919    -0.037    28.928     8.820
    10   6 C        2.920    -0.029    28.723     8.789
    11   6 C        2.922    -0.046    29.154     8.855
    12   6 C        2.924     0.069    26.458     8.435
    13   6 C        2.920    -0.049    29.207     8.863
    14   6 C        2.923    -0.025    28.631     8.775
    15   6 C        2.984    -0.010    28.263     8.721
    16   6 C        2.980     0.200    23.753     7.995
    17   7 N        1.844    -0.305    28.746     7.946
    18   6 C        2.980     0.200    23.753     7.995
    19   6 C        2.984    -0.010    28.266     8.721
    20   6 C        2.923    -0.025    28.630     8.775
    21   6 C        2.920    -0.049    29.213     8.863
    22   6 C        2.923     0.069    26.459     8.435
    23   7 N        2.752    -0.070    22.600     7.061
    24   6 C        2.925     0.065    26.547     8.450
    25   6 C        2.922    -0.046    29.154     8.855
    26   6 C        2.920    -0.029    28.723     8.789
    27   6 C        2.919    -0.037    28.927     8.820
    28   6 C        2.920    -0.029    28.718     8.788
    29   6 C        2.922    -0.046    29.149     8.854
    30   6 C        2.925     0.065    26.547     8.449
    31   6 C        2.922    -0.046    29.152     8.854
    32   6 C        2.920    -0.029    28.722     8.789
    33   6 C        2.919    -0.037    28.926     8.820
    34   6 C        2.920    -0.029    28.718     8.788
    35   6 C        2.922    -0.046    29.148     8.854
    36   6 C        2.920    -0.049    29.213     8.863
    37   6 C        2.923    -0.025    28.630     8.775
    38   7 N        1.844    -0.305    28.745     7.946
    39   6 C        2.980     0.200    23.754     7.995
    40   6 C        2.984    -0.010    28.264     8.721
    41   6 C        2.923    -0.025    28.630     8.775
    42   6 C        2.920    -0.049    29.210     8.863
    43   6 C        2.924     0.069    26.458     8.435
    44   7 N        2.752    -0.070    22.602     7.061
    45   6 C        2.925     0.065    26.547     8.449
    46   6 C        2.922    -0.046    29.150     8.854
    47   6 C        2.920    -0.029    28.717     8.788
    48   6 C        2.919    -0.037    28.927     8.820
    49   6 C        2.920    -0.029    28.723     8.789
    50   6 C        2.922    -0.046    29.154     8.855
    51   6 C        2.925     0.065    26.547     8.449
    52   6 C        2.922    -0.047    29.155     8.855
    53   6 C        2.920    -0.029    28.723     8.789
    54   6 C        2.919    -0.037    28.928     8.820
    55   6 C        2.920    -0.029    28.718     8.788
    56   6 C        2.922    -0.046    29.150     8.854
    57   6 C        2.920    -0.049    29.210     8.863
    58   6 C        2.923    -0.025    28.630     8.775
    59   7 N        1.845    -0.305    28.747     7.946
    60   6 C        2.923    -0.025    28.631     8.775
    61   6 C        2.920    -0.049    29.208     8.863
    62   6 C        2.922    -0.046    29.153     8.854
    63   6 C        2.920    -0.029    28.718     8.788
    64   1 H        0.926     0.031     2.566     2.505
    65   1 H        0.926     0.032     2.551     2.498
    66   1 H        0.926     0.032     2.553     2.499
    67   1 H        0.926     0.034     2.530     2.487
    68   1 H        0.926     0.033     2.541     2.493
    69   1 H        0.926     0.031     2.565     2.505
    70   1 H        0.926     0.033     2.550     2.497
    71   1 H        0.926     0.032     2.552     2.498
    72   1 H        0.926     0.035     2.510     2.477
    73   1 H        0.926     0.056     2.250     2.346
    74   1 H        0.926     0.056     2.252     2.347
    75   1 H        0.926     0.035     2.511     2.478
    76   1 H        0.926     0.032     2.553     2.498
    77   1 H        0.926     0.033     2.550     2.497
    78   1 H        0.926     0.032     2.565     2.504
    79   1 H        0.926     0.033     2.540     2.492
    80   1 H        0.926     0.034     2.527     2.486
    81   1 H        0.926     0.032     2.552     2.498
    82   1 H        0.926     0.033     2.550     2.497
    83   1 H        0.926     0.032     2.564     2.504
    84   1 H        0.926     0.033     2.540     2.492
    85   1 H        0.926     0.034     2.526     2.486
    86   1 H        0.926     0.035     2.511     2.478
    87   1 H        0.926     0.056     2.252     2.347
    88   1 H        0.926     0.056     2.251     2.346
    89   1 H        0.926     0.035     2.511     2.478
    90   1 H        0.926     0.034     2.528     2.487
    91   1 H        0.926     0.033     2.541     2.493
    92   1 H        0.926     0.031     2.565     2.505
    93   1 H        0.926     0.033     2.550     2.497
    94   1 H        0.926     0.032     2.552     2.498
    95   1 H        0.926     0.032     2.552     2.498
    96   1 H        0.926     0.033     2.550     2.497
    97   1 H        0.926     0.031     2.565     2.505
    98   1 H        0.926     0.033     2.541     2.493
    99   1 H        0.926     0.034     2.528     2.486
   100   1 H        0.926     0.035     2.511     2.478
   101   1 H        0.926     0.056     2.251     2.346
   102   1 H        0.926     0.056     2.250     2.345
   103   1 H        0.926     0.035     2.511     2.478
   104   1 H        0.926     0.034     2.530     2.487
   105   1 H        0.926     0.033     2.542     2.493

molecular dipole:
                 x           y           z       tot (Debye)
 q only:       -0.012       0.009       0.001
   full:       -0.012       0.009      -0.000       0.037

 projected vibrational frequencies (cm⁻¹)
eigval :       -0.00     0.00     0.00     0.00     0.00     0.00
eigval :        5.59     6.34     6.47    10.44    14.79    15.31
eigval :       26.67    28.06    35.11    40.74    40.91    44.14
eigval :       46.74    47.35    57.34    61.29    63.64    64.50
eigval :       66.51    75.25    75.39    92.77    93.13   100.52
eigval :      102.85   103.16   130.91   136.71   159.90   160.42
eigval :      169.03   180.61   180.86   215.85   217.27   221.06
eigval :      235.46   236.66   236.95   282.75   282.81   296.09
eigval :      296.92   308.58   313.92   314.68   329.35   333.84
eigval :      366.07   367.43   376.15   376.98   377.20   378.08
eigval :      378.10   378.23   380.80   386.46   386.88   390.55
eigval :      398.44   400.18   408.80   434.56   435.51   471.08
eigval :      471.22   487.31   490.82   491.77   492.12   497.62
eigval :      497.99   504.09   554.06   581.17   581.43   583.23
eigval :      585.03   585.11   586.16   592.43   592.51   593.23
eigval :      605.84   606.18   613.63   613.85   614.39   627.17
eigval :      632.15   632.42   659.92   660.76   660.86   665.61
eigval :      665.69   667.81   679.22   702.99   703.03   704.87
eigval :      704.93   726.25   757.73   757.76   757.85   760.37
eigval :      760.39   761.58   777.03   826.22   826.26   826.44
eigval :      843.88   843.93   868.83   870.72   870.88   875.16
eigval :      875.25   875.33   876.34   876.58   876.61   893.70
eigval :      893.82   893.85   893.94   894.38   894.50   910.08
eigval :      910.13   910.17   915.90   920.34   920.40   922.66
eigval :      926.10   927.23   927.84   927.92   927.99   928.04
eigval :      928.92   928.96   929.41   929.75   929.84   929.93
eigval :      930.39   930.50   930.65   931.38   931.64   982.18
eigval :      986.88   986.89  1005.22  1005.23  1005.26  1009.51
eigval :     1019.91  1019.97  1045.25  1082.76  1082.79  1082.80
eigval :     1083.92  1083.92  1083.92  1088.98  1121.18  1121.52
eigval :     1121.54  1123.59  1123.64  1123.74  1125.44  1130.71
eigval :     1130.94  1162.58  1162.95  1180.63  1180.64  1180.65
eigval :     1180.73  1180.74  1180.76  1185.93  1186.17  1186.28
eigval :     1190.45  1195.11  1195.14  1195.18  1200.89  1200.96
eigval :     1210.88  1213.65  1220.53  1220.67  1259.19  1261.89
eigval :     1262.04  1278.00  1278.06  1278.09  1281.43  1281.44
eigval :     1281.44  1312.66  1313.02  1313.20  1318.72  1318.96
eigval :     1319.13  1322.68  1322.90  1323.75  1326.67  1326.87
eigval :     1326.89  1335.63  1335.73  1337.70  1368.58  1368.79
eigval :     1390.03  1415.20  1415.27  1417.21  1436.41  1436.44
eigval :     1436.77  1442.31  1442.36  1442.96  1469.25  1469.28
eigval :     1471.57  1475.17  1475.31  1475.46  1488.91  1489.07
eigval :     1496.31  1501.38  1501.54  1556.20  1560.81  1560.98
eigval :     1577.81  1577.91  1577.93  1581.60  1581.62  1581.68
eigval :     1591.42  1591.44  1592.40  1594.31  1594.40  1594.48
eigval :     1600.56  1600.74  1600.77  3076.55  3076.60  3076.61
eigval :     3077.13  3077.18  3077.20  3078.02  3078.09  3078.12
eigval :     3078.32  3078.38  3078.41  3082.63  3082.77  3082.88
eigval :     3083.80  3083.91  3084.24  3086.71  3086.77  3086.77
eigval :     3087.68  3087.74  3087.77  3090.18  3090.26  3090.34
eigval :     3090.74  3090.83  3090.89  3097.87  3097.96  3097.96
eigval :     3098.33  3098.44  3098.52  3108.25  3108.59  3108.75
eigval :     3110.17  3110.29  3110.89

   temp. (K)  partition function   enthalpy   heat capacity  entropy
                                   cal/mol     cal/K/mol   cal/K/mol   J/K/mol
 298.15  VIB  0.166E+28            30996.166    188.511    199.571
         ROT  0.344E+09              888.752      2.981     42.041
         INT  0.571E+36            31884.918    191.492    241.612
         TR   0.223E+29             1481.254      4.968     45.936
         TOT                       33366.1723   196.4598   287.5483  1203.1021

       T/K    H(0)-H(T)+PV         H(T)/Eh          T*S/Eh         G(T)/Eh
   ------------------------------------------------------------------------
    298.15    0.531724E-01    0.866932E+00    0.136623E+00    0.730308E+00
   ------------------------------------------------------------------------

         :::::::::::::::::::::::::::::::::::::::::::::::::::::
         ::                  THERMODYNAMIC                  ::
         :::::::::::::::::::::::::::::::::::::::::::::::::::::
         :: total free energy        -160.317368768320 Eh   ::
         ::.................................................::
         :: total energy             -161.047676815200 Eh   ::
         :: zero point energy           0.813759139558 Eh   ::
         :: G(RRHO) w/o ZPVE           -0.083451092678 Eh   ::
         :: G(RRHO) contrib.            0.730308046880 Eh   ::
         :::::::::::::::::::::::::::::::::::::::::::::::::::::

           -------------------------------------------------
          | TOTAL ENERGY             -161.047676815200 Eh   |
          | TOTAL ENTHALPY           -160.180745295497 Eh   |
          | TOTAL FREE ENERGY        -160.317368768320 Eh   |
          | GRADIENT NORM               0.000050160936 Eh/α |
          | HOMO-LUMO GAP               2.138839832620 eV   |
           -------------------------------------------------

 * finished run on 2025/09/05 at 10:10:53.105
