   * xtb version 6.7.1 (edcfbbe) compiled by 'albert@albert-system' on 2024-07-22

   ID    Z sym.   atoms
    1    6 C      1-26
    2    1 H      27-44

          program call               : xtb data2507/gas/DPAA/DPAA.xyz --gfn 2 --ohess vtight --parallel 40 --molden --ceasefiles --namespace data2507/gas/DPAA/DPAA_gas_S0_preOpt
          :  Hamiltonian                  GFN2-xTB          :
 * total energy  :   -64.8239588 Eh     change       -0.8266028E-09 Eh
 * total energy  :   -64.8335834 Eh     change       -0.9624544E-02 Eh
 * total energy  :   -64.8355983 Eh     change       -0.2014951E-02 Eh
 * total energy  :   -64.8357438 Eh     change       -0.1454719E-03 Eh
 * total energy  :   -64.8357868 Eh     change       -0.4304161E-04 Eh
 * total energy  :   -64.8357884 Eh     change       -0.1570128E-05 Eh
 * total energy  :   -64.8357885 Eh     change       -0.1370884E-06 Eh
 * total energy  :   -64.8357885 Eh     change       -0.6286868E-08 Eh
   *** GEOMETRY OPTIMIZATION CONVERGED AFTER 8 ITERATIONS ***

 final structure:
================
44
 xtb: 6.7.1 (edcfbbe)
C           -5.67247673197451       -0.00014202627449        0.00007208563513
C           -4.97826713862293       -0.00017293894570       -1.19814428505567
C           -3.59484896725751       -0.00006295804374       -1.19945943472743
C           -2.89166144986920        0.00008010464317       -0.00001005827936
C           -1.41005269928918        0.00009930526805       -0.00004384457396
C           -0.71472895823772       -1.21513846524371       -0.00004984887363
C           -1.39281700001510       -2.46242024494618       -0.00003515520949
C           -0.70507130064156       -3.63641600024868       -0.00003321167026
C            0.70497864410463       -3.63643419479037       -0.00005138797948
C            1.39275459848148       -2.46245600750425       -0.00006319637678
C            0.71469844607428       -1.21515689142806       -0.00005600016884
C            1.41005265576919        0.00006312936269       -0.00005046766620
C            2.89166149173229        0.00001557129962       -0.00001292751247
C            3.59477116971552       -0.00015151478405        1.19948276359748
C            4.97818878985662       -0.00026440398121        1.19825962952605
C            5.67247657278612       -0.00021271627109        0.00008838368126
C            4.97827512868569       -0.00003340567741       -1.19813272734795
C            3.59485686574194        0.00008173857271       -1.19945757750546
C            0.71473005210530        1.21529891149001       -0.00004995217508
C            1.39281860850514        2.46258054732909       -0.00003659483186
C            0.70507187043141        3.63657597112898       -0.00002612721726
C           -0.70497917387664        3.63659414163174       -0.00003220827963
C           -1.39275610418786        2.46261646338997       -0.00004434506126
C           -0.71469969707110        1.21531734081302       -0.00004828831819
C           -3.59477919026568        0.00013102091866        1.19948072310688
C           -4.97819697159022        0.00001857094535        1.19824788207821
H           -6.75259954704423       -0.00024704620600        0.00010391654690
H           -5.51627953802089       -0.00029461005962       -2.13505950769825
H           -3.04936153676125       -0.00009883684717       -2.13240439100937
H           -2.47320627884399       -2.45909448297426       -0.00002356410205
H           -1.23314871898423       -4.57881626571243       -0.00001838709826
H            1.23303128501393       -4.57884830565636       -0.00005542553302
H            2.47314401625619       -2.45915733498844       -0.00007846419541
H            3.04922062509155       -0.00019896456432        2.13239075265775
H            5.51613908300908       -0.00040013693381        2.13521046559638
H            6.75259941857657       -0.00031600523677        0.00012758791623
H            5.51629434703415        0.00000570867838       -2.13504405390490
H            3.04937586685889        0.00021185334202       -2.13240629217526
H            2.47320840045462        2.45925072517387       -0.00003361989131
H            1.23314753085013        4.57897748156940       -0.00001345473916
H           -1.23303006153969        4.57900948589599       -0.00002628331767
H           -2.47314611650854        2.45931399897870       -0.00005003771284
H           -3.04923566954421        0.00024486626145        2.13239283835432
H           -5.51615361698849        0.00004482062528        2.13519509151120

          :  Hamiltonian                  GFN2-xTB          :
         :: gradient norm              0.000019123878 Eh/a0 ::
         :: HOMO-LUMO gap              2.191182622813 eV    ::
         :: SCC energy               -66.121467357448 Eh    ::
         :: -> dispersion             -0.058194177738 Eh    ::
         :: repulsion energy           1.285678824209 Eh    ::

    * Orbital Energies and Occupations

         #    Occupation            Energy/Eh            Energy/eV
      -------------------------------------------------------------
         1        2.0000           -0.6525699             -17.7573
       ...           ...                  ...                  ...
        49        2.0000           -0.4251564             -11.5691
        50        2.0000           -0.4239153             -11.5353
        51        2.0000           -0.4208920             -11.4531
        52        2.0000           -0.4180496             -11.3757
        53        2.0000           -0.4176074             -11.3637
        54        2.0000           -0.4054627             -11.0332
        55        2.0000           -0.4045153             -11.0074
        56        2.0000           -0.4026925             -10.9578
        57        2.0000           -0.3997525             -10.8778
        58        2.0000           -0.3982675             -10.8374
        59        2.0000           -0.3966188             -10.7925
        60        2.0000           -0.3931621             -10.6985
        61        2.0000           -0.3567904              -9.7088 (HOMO)
        62                         -0.2762659              -7.5176 (LUMO)
        63                         -0.2288304              -6.2268
        64                         -0.2227964              -6.0626
        65                         -0.2223547              -6.0506
        66                         -0.2223328              -6.0500
        67                         -0.2222258              -6.0471
        68                         -0.2177169              -5.9244
        69                         -0.1744758              -4.7477
        70                         -0.1703344              -4.6350
        71                         -0.0962624              -2.6194
        72                         -0.0931282              -2.5341
       ...                                ...                  ...
       122                          0.7178800              19.5345
      -------------------------------------------------------------
                  HL-Gap            0.0805245 Eh            2.1912 eV

     #   Z          covCN         q      C6AA      α(0)
     1   6 C        2.920    -0.032    28.799     8.800
     2   6 C        2.919    -0.030    28.739     8.791
     3   6 C        2.924    -0.032    28.802     8.801
     4   6 C        2.978     0.017    27.634     8.623
     5   6 C        2.978    -0.007    28.180     8.708
     6   6 C        2.985     0.006    27.880     8.661
     7   6 C        2.917    -0.034    28.842     8.807
     8   6 C        2.914    -0.030    28.751     8.793
     9   6 C        2.914    -0.030    28.751     8.793
    10   6 C        2.917    -0.034    28.842     8.807
    11   6 C        2.985     0.006    27.880     8.661
    12   6 C        2.978    -0.007    28.180     8.708
    13   6 C        2.978     0.017    27.634     8.623
    14   6 C        2.924    -0.032    28.802     8.801
    15   6 C        2.919    -0.030    28.739     8.791
    16   6 C        2.920    -0.032    28.799     8.800
    17   6 C        2.919    -0.030    28.739     8.791
    18   6 C        2.924    -0.032    28.802     8.801
    19   6 C        2.985     0.006    27.880     8.661
    20   6 C        2.917    -0.034    28.842     8.807
    21   6 C        2.914    -0.030    28.751     8.793
    22   6 C        2.914    -0.030    28.751     8.793
    23   6 C        2.917    -0.034    28.842     8.807
    24   6 C        2.985     0.006    27.880     8.661
    25   6 C        2.924    -0.032    28.802     8.801
    26   6 C        2.919    -0.030    28.739     8.791
    27   1 H        0.926     0.029     2.604     2.524
    28   1 H        0.926     0.030     2.593     2.518
    29   1 H        0.926     0.028     2.608     2.525
    30   1 H        0.926     0.030     2.586     2.515
    31   1 H        0.926     0.028     2.612     2.527
    32   1 H        0.926     0.028     2.612     2.527
    33   1 H        0.926     0.030     2.586     2.515
    34   1 H        0.926     0.028     2.608     2.525
    35   1 H        0.926     0.030     2.593     2.518
    36   1 H        0.926     0.029     2.604     2.524
    37   1 H        0.926     0.030     2.593     2.518
    38   1 H        0.926     0.028     2.608     2.525
    39   1 H        0.926     0.030     2.586     2.515
    40   1 H        0.926     0.028     2.612     2.527
    41   1 H        0.926     0.028     2.612     2.527
    42   1 H        0.926     0.030     2.586     2.515
    43   1 H        0.926     0.028     2.608     2.525
    44   1 H        0.926     0.030     2.593     2.518

molecular dipole:
                 x           y           z       tot (Debye)
 q only:        0.000      -0.000       0.000
   full:        0.000      -0.000       0.000       0.000

 projected vibrational frequencies (cm⁻¹)
eigval :       -0.00    -0.00    -0.00     0.00     0.00     0.00
eigval :      -25.38   -23.13    25.25    51.21    68.54    77.73
eigval :       78.57   104.36   181.38   197.48   201.23   209.96
eigval :      227.21   237.46   240.13   365.49   365.76   380.03
eigval :      385.07   398.32   399.94   442.06   444.31   458.19
eigval :      458.39   491.96   576.47   581.23   585.02   585.50
eigval :      592.32   603.81   614.16   631.47   669.03   673.36
eigval :      678.29   692.04   727.92   739.89   750.88   762.61
eigval :      773.47   775.40   873.64   875.42   878.35   878.46
eigval :      893.62   898.70   904.72   909.33   913.49   917.19
eigval :      917.57   927.46   927.74   928.77   928.83   931.60
eigval :      932.53   934.61   992.20  1001.07  1077.75  1078.69
eigval :     1082.82  1083.28  1117.55  1117.74  1135.26  1145.95
eigval :     1179.82  1182.06  1182.08  1183.21  1194.59  1195.13
eigval :     1213.21  1222.53  1226.37  1256.78  1266.07  1279.72
eigval :     1279.81  1310.31  1310.57  1327.63  1350.47  1372.85
eigval :     1385.98  1420.33  1428.60  1429.29  1430.45  1445.06
eigval :     1466.12  1487.97  1496.80  1527.02  1535.21  1545.13
eigval :     1581.02  1581.51  1601.17  1601.22  1608.64  1623.41
eigval :     3070.70  3070.82  3072.08  3072.12  3072.16  3072.22
eigval :     3076.99  3077.02  3079.40  3079.89  3084.11  3084.36
eigval :     3085.66  3086.14  3091.23  3091.35  3091.48  3092.64

   temp. (K)  partition function   enthalpy   heat capacity  entropy
                                   cal/mol     cal/K/mol   cal/K/mol   J/K/mol
 298.15  VIB  0.126E+07             9864.676     70.776     58.098
         ROT  0.265E+07              888.752      2.981     32.369
         INT  0.334E+13            10753.429     73.757     90.467
         TR   0.581E+28             1481.254      4.968     43.261
         TOT                       12234.6827    78.7253   133.7281   559.5184

       T/K    H(0)-H(T)+PV         H(T)/Eh          T*S/Eh         G(T)/Eh
   ------------------------------------------------------------------------
    298.15    0.194972E-01    0.363240E+00    0.635385E-01    0.299702E+00
   ------------------------------------------------------------------------

         :::::::::::::::::::::::::::::::::::::::::::::::::::::
         ::                  THERMODYNAMIC                  ::
         :::::::::::::::::::::::::::::::::::::::::::::::::::::
         :: total free energy         -64.536086749809 Eh   ::
         ::.................................................::
         :: total energy              -64.835788533237 Eh   ::
         :: zero point energy           0.343743109747 Eh   ::
         :: G(RRHO) w/o ZPVE           -0.044041326319 Eh   ::
         :: G(RRHO) contrib.            0.299701783428 Eh   ::
         :::::::::::::::::::::::::::::::::::::::::::::::::::::

           -------------------------------------------------
          | TOTAL ENERGY              -64.835788533237 Eh   |
          | TOTAL ENTHALPY            -64.472548215500 Eh   |
          | TOTAL FREE ENERGY         -64.536086749809 Eh   |
          | GRADIENT NORM               0.000019121571 Eh/α |
          | HOMO-LUMO GAP               2.191182637151 eV   |
           -------------------------------------------------

 * finished run on 2025/07/20 at 14:49:23.315
