   * xtb version 6.7.1 (edcfbbe) compiled by 'albert@albert-system' on 2024-07-22

   ID    Z sym.   atoms
    1    6 C      1-26
    2    1 H      27-44

          program call               : xtb data2507/gas/DPAA/DPAA_gas_S0_finalOpt.xtbopt.xyz --gfn 2 --spinpol --tblite --uhf 2 --ohess vtight --parallel 40 --molden --ceasefiles --namespace data2507/gas/DPAA/DPAA_gas_T1_preOpt
 * total energy  :   -64.7631263 Eh     change       -0.5924335E-08 Eh
 * total energy  :   -64.7696465 Eh     change       -0.6520176E-02 Eh
 * total energy  :   -64.7710800 Eh     change       -0.1433544E-02 Eh
 * total energy  :   -64.7711891 Eh     change       -0.1090268E-03 Eh
 * total energy  :   -64.7712806 Eh     change       -0.9148815E-04 Eh
 * total energy  :   -64.7713306 Eh     change       -0.5007595E-04 Eh
 * total energy  :   -64.7713802 Eh     change       -0.4956958E-04 Eh
 * total energy  :   -64.7714372 Eh     change       -0.5700637E-04 Eh
 * total energy  :   -64.7714930 Eh     change       -0.5582949E-04 Eh
 * total energy  :   -64.7715569 Eh     change       -0.6389913E-04 Eh
 * total energy  :   -64.7722019 Eh     change       -0.6419089E-06 Eh
 * total energy  :   -64.7722025 Eh     change       -0.5796409E-06 Eh
 * total energy  :   -64.7722031 Eh     change       -0.5412005E-06 Eh
 * total energy  :   -64.7722035 Eh     change       -0.4866690E-06 Eh
 * total energy  :   -64.7722040 Eh     change       -0.4498846E-06 Eh
 * total energy  :   -64.7722044 Eh     change       -0.4030148E-06 Eh
 * total energy  :   -64.7722048 Eh     change       -0.3689156E-06 Eh
 * total energy  :   -64.7722051 Eh     change       -0.3313872E-06 Eh
 * total energy  :   -64.7722051 Eh     change       -0.1986166E-07 Eh
   *** GEOMETRY OPTIMIZATION CONVERGED AFTER 68 ITERATIONS ***

 final structure:
================
44
 xtb: 6.7.1 (edcfbbe)
C           -5.67950666226635       -0.00000442621416        0.00117720429962
C           -4.98269487083961       -0.63323315098332       -1.01553417617423
C           -3.60130159542493       -0.63955727332974       -1.01438399473092
C           -2.88650331623863       -0.00006455259022        0.00093470864949
C           -1.42266269103716       -0.00008061396726        0.00080227533523
C           -0.71302002821168       -1.24138018099455        0.01985045308553
C           -1.37790449154595       -2.46564608496060        0.10700391355079
C           -0.68445500976772       -3.67562805930127        0.05821926081748
C            0.68424468179098       -3.67514207662836       -0.08277727585439
C            1.37771698593354       -2.46485880331258       -0.12303065593042
C            0.71285889022289       -1.24122523918890       -0.02723170416158
C            1.42252128829562       -0.00009903845403        0.00057312960196
C            2.88635866350729       -0.00010156071971        0.00044139687090
C            3.60115160553971       -0.64683534062956        1.01116883855500
C            4.98254414737234       -0.64054188346940        1.01236187355096
C            5.67936569269125       -0.00007780433172        0.00019934114608
C            4.98235799445969        0.64037222791409       -1.01184394575308
C            3.60096594683996        0.64664177092878       -1.01041166851752
C            0.71287872448111        1.24103833324507        0.02849585535121
C            1.37776470086814        2.46466108510625        0.12419557873801
C            0.68430469581098        3.67494734811209        0.08404895801577
C           -0.68441572906072        3.67545128969098       -0.05673788816870
C           -1.37788582634617        2.46548413087494       -0.10541693304879
C           -0.71300637871811        1.24121163579379       -0.01836353155715
C           -3.60109859781402        0.63945610328036        1.01637876240643
C           -4.98249094363336        0.63319210235427        1.01776878682920
H           -6.75940209897881        0.00002046532484        0.00126943080838
H           -5.51996987659219       -1.12321729265605       -1.81475248721598
H           -3.05989404893777       -1.11974479690678       -1.81699530265611
H           -2.45131369990953       -2.48072023555952        0.21841047699479
H           -1.23136589160385       -4.60461967365135        0.12069317485514
H            1.23113936237721       -4.60367971735603       -0.15180102886744
H            2.45112424794156       -2.47917105578464       -0.23455572076664
H            3.05973946689222       -1.13272666996166        1.81033724672193
H            5.51981236253573       -1.13623051459460        1.80805964325837
H            6.75926129888868       -0.00006666985382        0.00010725965276
H            5.51947992288215        1.13607158431948       -1.80763340606769
H            3.05940707732970        1.13252351934276       -1.80948591290256
H            2.45119134457379        2.47895815540356        0.23556206043165
H            1.23122181175477        4.60348068891632        0.15298946693168
H           -1.23132427705483        4.60445260157897       -0.11912709222719
H           -2.45131369218812        2.48057130484680       -0.21666501698641
H           -3.05953045304450        1.11962032146335        1.81889577964174
H           -5.51960670445603        1.12320058749380        1.81707944220775

 projected vibrational frequencies (cm⁻¹)
eigval :       -0.00    -0.00    -0.00     0.00     0.00     0.00
eigval :       20.58    45.01    51.80    63.74    68.61    74.06
eigval :       89.26   123.41   188.56   194.66   199.36   233.18
eigval :      236.67   239.58   258.47   358.75   368.27   372.80
eigval :      378.55   395.23   395.48   404.05   417.18   455.55
eigval :      470.19   486.10   564.06   573.19   575.03   580.16
eigval :      588.46   593.06   606.65   614.71   663.22   669.99
eigval :      672.89   677.64   713.07   726.16   745.58   753.78
eigval :      755.85   761.64   840.94   841.22   875.96   881.75
eigval :      884.28   890.09   891.74   902.20   904.64   906.31
eigval :      906.46   908.62   910.62   930.59   930.84   933.47
eigval :      933.55   944.59   989.33   996.08  1082.53  1083.11
eigval :     1099.52  1102.45  1111.25  1119.54  1120.10  1125.32
eigval :     1180.63  1180.64  1181.32  1182.48  1182.77  1188.69
eigval :     1198.32  1200.21  1230.25  1252.47  1253.32  1279.84
eigval :     1280.69  1294.56  1297.48  1312.64  1313.67  1337.80
eigval :     1369.12  1375.15  1379.03  1407.33  1425.21  1426.13
eigval :     1429.22  1460.07  1464.90  1479.99  1480.71  1513.82
eigval :     1531.52  1561.91  1564.77  1564.77  1585.66  1586.34
eigval :     3070.32  3071.21  3071.25  3071.33  3076.66  3076.79
eigval :     3080.02  3080.36  3083.33  3083.52  3085.43  3085.65
eigval :     3092.09  3092.57  3095.09  3095.63  3097.77  3098.89

   temp. (K)  partition function   enthalpy   heat capacity  entropy
                                   cal/mol     cal/K/mol   cal/K/mol   J/K/mol
 298.15  VIB  0.239E+08            10960.974     74.795     66.305
         ROT  0.267E+07              888.752      2.981     32.388
         INT  0.638E+14            11849.727     77.776     98.692
         TR   0.581E+28             1481.254      4.968     43.261
         TOT                       13330.9807    82.7442   141.9532   593.9322

       T/K    H(0)-H(T)+PV         H(T)/Eh          T*S/Eh         G(T)/Eh
   ------------------------------------------------------------------------
    298.15    0.212443E-01    0.362816E+00    0.674465E-01    0.295369E+00
   ------------------------------------------------------------------------

         :::::::::::::::::::::::::::::::::::::::::::::::::::::
         ::                  THERMODYNAMIC                  ::
         :::::::::::::::::::::::::::::::::::::::::::::::::::::
         :: total free energy         -64.476835647085 Eh   ::
         ::.................................................::
         :: total energy              -64.772205118433 Eh   ::
         :: zero point energy           0.341571747907 Eh   ::
         :: G(RRHO) w/o ZPVE           -0.046202276559 Eh   ::
         :: G(RRHO) contrib.            0.295369471347 Eh   ::
         :::::::::::::::::::::::::::::::::::::::::::::::::::::

           -------------------------------------------------
          | TOTAL ENERGY              -64.772205118433 Eh   |
          | TOTAL ENTHALPY            -64.409389100527 Eh   |
          | TOTAL FREE ENERGY         -64.476835647085 Eh   |
          | GRADIENT NORM               0.000044809808 Eh/α |
           -------------------------------------------------

 * finished run on 2025/07/20 at 14:50:16.958
