   * xtb version 6.7.1 (edcfbbe) compiled by 'albert@albert-system' on 2024-07-22

   ID    Z sym.   atoms
    1    6 C      1-26
    2    1 H      27-44

          program call               : xtb data2507/gas/DPAA/DPAA_gas_T1_crest.xyz --gfn 2 --spinpol --tblite --uhf 2 --ohess vtight --parallel 40 --molden --ceasefiles --namespace data2507/gas/DPAA/DPAA_gas_T1_finalOpt
 * total energy  :   -64.7721419 Eh     change       -0.1110263E-07 Eh
 * total energy  :   -64.7721738 Eh     change       -0.3187019E-04 Eh
 * total energy  :   -64.7721818 Eh     change       -0.8042109E-05 Eh
 * total energy  :   -64.7721850 Eh     change       -0.3142421E-05 Eh
 * total energy  :   -64.7721878 Eh     change       -0.2830509E-05 Eh
 * total energy  :   -64.7721902 Eh     change       -0.2376575E-05 Eh
 * total energy  :   -64.7721922 Eh     change       -0.1988099E-05 Eh
 * total energy  :   -64.7721940 Eh     change       -0.1844298E-05 Eh
 * total energy  :   -64.7721959 Eh     change       -0.1839547E-05 Eh
 * total energy  :   -64.7721977 Eh     change       -0.1852207E-05 Eh
 * total energy  :   -64.7722028 Eh     change       -0.9438256E-06 Eh
 * total energy  :   -64.7722037 Eh     change       -0.8192084E-06 Eh
 * total energy  :   -64.7722044 Eh     change       -0.7172400E-06 Eh
 * total energy  :   -64.7722050 Eh     change       -0.6215745E-06 Eh
 * total energy  :   -64.7722055 Eh     change       -0.5340561E-06 Eh
 * total energy  :   -64.7722060 Eh     change       -0.4302706E-06 Eh
 * total energy  :   -64.7722063 Eh     change       -0.3773078E-06 Eh
 * total energy  :   -64.7722066 Eh     change       -0.2848701E-06 Eh
 * total energy  :   -64.7722067 Eh     change       -0.3181447E-07 Eh
   *** GEOMETRY OPTIMIZATION CONVERGED AFTER 22 ITERATIONS ***

 final structure:
================
44
 xtb: 6.7.1 (edcfbbe)
C           -5.67990641983039        0.00165203982903        0.00015216564852
C           -4.98238606724042        0.65731461977317       -1.00180318024345
C           -3.60108153087913        0.66270189091690       -1.00036559984977
C           -2.88630147308781        0.00082430485715        0.00092202002074
C           -1.42304692151042        0.00039505976275        0.00122364196232
C           -0.71313447881962       -1.24085188053140       -0.02593911518493
C           -1.37721085006386       -2.46463763971989       -0.12574000486627
C           -0.68445206637604       -3.67487201755035       -0.07713510270242
C            0.68287340689082       -3.67521393539300        0.07726220676827
C            1.37613951716386       -2.46529699249675        0.12639441477613
C            0.71253689519063       -1.24118986187237        0.02739496917771
C            1.42304296312749       -0.00028654185069        0.00095680196356
C            2.88632659911000       -0.00074146340072        0.00059733447855
C            3.60203244422776        0.65903860367169        1.00258000616922
C            4.98334141549267        0.65262153249828        1.00335214743947
C            5.67989644305903       -0.00193997301519        0.00000900691726
C            4.98236350089592       -0.65587446206613       -1.00306549825740
C            3.60105285204462       -0.66109903184654       -1.00171153979937
C            0.71315443241884        1.24096829957901       -0.02503832560408
C            1.37729988568366        2.46479731691845       -0.12386578296610
C            0.68460650664286        3.67501727686976       -0.07415169730877
C           -0.68268355383774        3.67526967908363        0.08056634013990
C           -1.37600019493869        2.46534191948549        0.12888438894638
C           -0.71250643995604        1.24128539665130        0.02859068226197
C           -3.60201575999163       -0.66060112256854        1.00183691739439
C           -4.98332470346687       -0.65440303338663        1.00250244016722
H           -6.75979437100513        0.00193936421254       -0.00016314228390
H           -5.51917726832917        1.16559301906194       -1.78985246715610
H           -3.05955078958746        1.15947210207318       -1.79272706129207
H           -2.44953715473209       -2.47918880868832       -0.24706018874543
H           -1.23084779598373       -4.60347199742666       -0.14923227080203
H            1.22886994493842       -4.60408109651408        0.14892067470644
H            2.44848465282987       -2.48031712481363        0.24750459023666
H            3.06123220955042        1.15494993627461        1.79597668626273
H            5.52088621264744        1.15919122963040        1.79198382309945
H            6.75978363198587       -0.00244084833255       -0.00019246426696
H            5.51914203008582       -1.16291956953060       -1.79191381486750
H            3.05948866246884       -1.15656375383806       -1.79486670348730
H            2.44961941108554        2.47935069888124       -0.24528356946838
H            1.23101366755022        4.60366088638731       -0.14562231133290
H           -1.22862754549489        4.60409953493573        0.15313401759297
H           -2.44830045522512        2.48034088848303        0.25040404328017
H           -3.06122934347422       -1.15761677488469        1.79454845792804
H           -5.52084863476015       -1.16235964060973        1.79025567224723

 projected vibrational frequencies (cm⁻¹)
eigval :       -0.00    -0.00     0.00     0.00     0.00     0.00
eigval :       20.57    46.02    51.77    66.12    69.34    74.32
eigval :       89.74   125.79   190.17   193.83   199.40   234.80
eigval :      237.45   239.63   259.44   358.80   368.81   373.38
eigval :      378.30   395.19   396.12   403.52   418.56   455.85
eigval :      470.42   485.86   564.23   573.48   575.06   580.28
eigval :      588.54   592.99   606.63   614.73   663.30   670.15
eigval :      672.92   677.70   713.13   725.98   746.12   754.01
eigval :      755.82   762.16   841.90   841.96   875.97   882.17
eigval :      884.62   890.87   891.81   902.29   904.80   906.45
eigval :      906.65   909.06   910.64   930.78   931.07   933.93
eigval :      934.04   944.52   989.13   995.98  1082.46  1083.11
eigval :     1099.43  1102.69  1111.50  1119.69  1120.31  1125.32
eigval :     1180.67  1180.75  1181.39  1182.65  1182.71  1189.75
eigval :     1198.51  1200.44  1230.55  1252.78  1253.48  1279.97
eigval :     1280.87  1294.76  1297.29  1312.88  1313.93  1337.48
eigval :     1368.70  1375.49  1378.51  1407.48  1425.19  1426.14
eigval :     1429.07  1460.03  1464.41  1479.97  1481.13  1514.29
eigval :     1531.48  1561.63  1564.17  1564.20  1585.19  1585.93
eigval :     3070.47  3070.95  3071.27  3071.37  3076.64  3076.76
eigval :     3080.14  3080.28  3083.47  3083.67  3085.43  3085.64
eigval :     3092.10  3092.53  3095.13  3095.66  3097.88  3098.86

   temp. (K)  partition function   enthalpy   heat capacity  entropy
                                   cal/mol     cal/K/mol   cal/K/mol   J/K/mol
 298.15  VIB  0.217E+08            10945.123     74.826     66.159
         ROT  0.267E+07              888.752      2.981     32.388
         INT  0.581E+14            11833.875     77.807     98.546
         TR   0.581E+28             1481.254      4.968     43.261
         TOT                       13315.1294    82.7750   141.8073   593.3218

       T/K    H(0)-H(T)+PV         H(T)/Eh          T*S/Eh         G(T)/Eh
   ------------------------------------------------------------------------
    298.15    0.212190E-01    0.362843E+00    0.673772E-01    0.295466E+00
   ------------------------------------------------------------------------

         :::::::::::::::::::::::::::::::::::::::::::::::::::::
         ::                  THERMODYNAMIC                  ::
         :::::::::::::::::::::::::::::::::::::::::::::::::::::
         :: total free energy         -64.476740618274 Eh   ::
         ::.................................................::
         :: total energy              -64.772206651703 Eh   ::
         :: zero point energy           0.341624256023 Eh   ::
         :: G(RRHO) w/o ZPVE           -0.046158222594 Eh   ::
         :: G(RRHO) contrib.            0.295466033429 Eh   ::
         :::::::::::::::::::::::::::::::::::::::::::::::::::::

           -------------------------------------------------
          | TOTAL ENERGY              -64.772206651703 Eh   |
          | TOTAL ENTHALPY            -64.409363386340 Eh   |
          | TOTAL FREE ENERGY         -64.476740618274 Eh   |
          | GRADIENT NORM               0.000035959101 Eh/α |
           -------------------------------------------------

 * finished run on 2025/07/20 at 14:51:08.202
