   * xtb version 6.7.1 (edcfbbe) compiled by 'albert@albert-system' on 2024-07-22

   ID    Z sym.   atoms
    1    6 C      1-26
    2    1 H      27-44

          program call               : xtb data2507/gas/DPAA/DPAA_gas_S0_crest.xyz --gfn 2 --ohess vtight --parallel 40 --molden --ceasefiles --namespace data2507/gas/DPAA/DPAA_gas_S0_finalOpt
          :  Hamiltonian                  GFN2-xTB          :
 * total energy  :   -64.8361486 Eh     change       -0.1105391E-08 Eh
 * total energy  :   -64.8361495 Eh     change       -0.9674804E-06 Eh
 * total energy  :   -64.8361514 Eh     change       -0.1862914E-05 Eh
 * total energy  :   -64.8361531 Eh     change       -0.1660073E-05 Eh
 * total energy  :   -64.8361538 Eh     change       -0.7030004E-06 Eh
 * total energy  :   -64.8361542 Eh     change       -0.4622242E-06 Eh
 * total energy  :   -64.8361548 Eh     change       -0.6086921E-06 Eh
 * total energy  :   -64.8361556 Eh     change       -0.7735432E-06 Eh
 * total energy  :   -64.8361563 Eh     change       -0.6759161E-06 Eh
 * total energy  :   -64.8361567 Eh     change       -0.4616769E-06 Eh
 * total energy  :   -64.8361571 Eh     change       -0.3339393E-06 Eh
 * total energy  :   -64.8361573 Eh     change       -0.2496358E-06 Eh
 * total energy  :   -64.8361575 Eh     change       -0.1520648E-06 Eh
 * total energy  :   -64.8361576 Eh     change       -0.8958378E-07 Eh
   *** GEOMETRY OPTIMIZATION CONVERGED AFTER 14 ITERATIONS ***

 final structure:
================
44
 xtb: 6.7.1 (edcfbbe)
C           -5.67441186863364        0.00007702023356        0.00121077796623
C           -4.97992549023821       -0.40707493676060       -1.12562535349174
C           -3.59676231831504       -0.40969343797494       -1.12627843111284
C           -2.89107975607928       -0.00014688218280        0.00077783898725
C           -1.41238696504684       -0.00013119587190        0.00058118605168
C           -0.71496220920854       -1.21622745007841        0.00270721410396
C           -1.39039144742671       -2.46479005419922        0.03503537174260
C           -0.70378375065713       -3.63931901834990        0.01538735736933
C            0.70432772983371       -3.63897337881639       -0.04244953546907
C            1.39058096160274       -2.46414211656588       -0.05332353632365
C            0.71471755325251       -1.21609367486386       -0.01159317022817
C            1.41200309871877       -0.00005559422023        0.00037985059116
C            2.89077942688218       -0.00004691289772        0.00035007419976
C            3.59619441935935       -0.41303611275072        1.12627166000341
C            4.97936621331108       -0.41053693105474        1.12582856750011
C            5.67401013361124       -0.00014031959424        0.00027821456329
C            4.97931651819364        0.41032410007981       -1.12524399733921
C            3.59616441529992        0.41292181512568       -1.12562271443407
C            0.71465775380688        1.21594310112732        0.01251147698143
C            1.39045738856316        2.46401913848210        0.05440292579877
C            0.70413348817823        3.63881534979272        0.04407517370809
C           -0.70398330289701        3.63910362876601       -0.01353756372151
C           -1.39052625029726        2.46454137714512       -0.03352145476633
C           -0.71502716607934        1.21600583221134       -0.00158170350034
C           -3.59637031599780        0.40949766924924        1.12806128544152
C           -4.97951784364509        0.40711777728721        1.12784558550567
H           -6.75450434360197        0.00020471674554        0.00134966571071
H           -5.51783340072133       -0.72434226113555       -2.00727198892130
H           -3.05236819939930       -0.72469215891325       -2.00523554515134
H           -2.46951353629159       -2.46558459439402        0.07851735417773
H           -1.23217110697526       -4.58119269841552        0.04065483991718
H            1.23293861185381       -4.58051133637423       -0.07462503488724
H            2.46971827101953       -2.46409086567182       -0.09665108738457
H            3.05159811220780       -0.73074607178877        2.00412622551899
H            5.51711232594939       -0.73045870956524        2.00661500160113
H            6.75410304017728       -0.00018592940645        0.00020693932064
H            5.51709300131630        0.73017551348385       -2.00603916040926
H            3.05150234867734        0.73064514012110       -2.00343126660810
H            2.46960569673036        2.46401784868157        0.09744333367355
H            1.23269833123440        4.58037040800508        0.07646430607882
H           -1.23244274514335        4.58095079264526       -0.03836394845690
H           -2.46965301981040        2.46529308695880       -0.07688051559665
H           -3.05160320782341        0.72439459212213        2.00682630860369
H           -5.51711665459133        0.72449620428304        2.00964403228550

          :  Hamiltonian                  GFN2-xTB          :
         :: gradient norm              0.000036476390 Eh/a0 ::
         :: HOMO-LUMO gap              2.135466104622 eV    ::
         :: SCC energy               -66.120588820130 Eh    ::
         :: -> dispersion             -0.058367091986 Eh    ::
         :: repulsion energy           1.284431251715 Eh    ::

    * Orbital Energies and Occupations

         #    Occupation            Energy/Eh            Energy/eV
      -------------------------------------------------------------
         1        2.0000           -0.6522381             -17.7483
       ...           ...                  ...                  ...
        49        2.0000           -0.4253564             -11.5745
        50        2.0000           -0.4233640             -11.5203
        51        2.0000           -0.4215617             -11.4713
        52        2.0000           -0.4189414             -11.4000
        53        2.0000           -0.4165423             -11.3347
        54        2.0000           -0.4055194             -11.0347
        55        2.0000           -0.4042523             -11.0003
        56        2.0000           -0.4037471             -10.9865
        57        2.0000           -0.3988415             -10.8530
        58        2.0000           -0.3977196             -10.8225
        59        2.0000           -0.3964407             -10.7877
        60        2.0000           -0.3935716             -10.7096
        61        2.0000           -0.3556921              -9.6789 (HOMO)
        62                         -0.2772152              -7.5434 (LUMO)
        63                         -0.2286724              -6.2225
        64                         -0.2231463              -6.0721
        65                         -0.2229257              -6.0661
        66                         -0.2226848              -6.0596
        67                         -0.2221432              -6.0448
        68                         -0.2172765              -5.9124
        69                         -0.1723812              -4.6907
        70                         -0.1694106              -4.6099
        71                         -0.0961389              -2.6161
        72                         -0.0932947              -2.5387
       ...                                ...                  ...
       122                          0.7182237              19.5439
      -------------------------------------------------------------
                  HL-Gap            0.0784769 Eh            2.1355 eV

     #   Z          covCN         q      C6AA      α(0)
     1   6 C        2.920    -0.032    28.793     8.799
     2   6 C        2.919    -0.030    28.746     8.792
     3   6 C        2.924    -0.032    28.799     8.801
     4   6 C        2.977     0.016    27.647     8.625
     5   6 C        2.977    -0.007    28.185     8.708
     6   6 C        2.984     0.006    27.879     8.661
     7   6 C        2.917    -0.035    28.861     8.810
     8   6 C        2.914    -0.030    28.759     8.794
     9   6 C        2.914    -0.030    28.759     8.794
    10   6 C        2.917    -0.035    28.861     8.810
    11   6 C        2.984     0.006    27.879     8.661
    12   6 C        2.977    -0.007    28.185     8.708
    13   6 C        2.977     0.016    27.646     8.625
    14   6 C        2.924    -0.032    28.799     8.801
    15   6 C        2.919    -0.030    28.745     8.792
    16   6 C        2.920    -0.032    28.793     8.799
    17   6 C        2.919    -0.030    28.745     8.792
    18   6 C        2.924    -0.032    28.799     8.801
    19   6 C        2.984     0.006    27.879     8.661
    20   6 C        2.917    -0.035    28.861     8.810
    21   6 C        2.914    -0.030    28.758     8.794
    22   6 C        2.914    -0.030    28.759     8.794
    23   6 C        2.917    -0.035    28.861     8.810
    24   6 C        2.984     0.006    27.879     8.661
    25   6 C        2.924    -0.032    28.799     8.801
    26   6 C        2.919    -0.030    28.746     8.792
    27   1 H        0.926     0.029     2.604     2.524
    28   1 H        0.926     0.029     2.596     2.519
    29   1 H        0.926     0.029     2.594     2.519
    30   1 H        0.926     0.031     2.571     2.508
    31   1 H        0.926     0.028     2.617     2.530
    32   1 H        0.926     0.028     2.617     2.530
    33   1 H        0.926     0.031     2.572     2.508
    34   1 H        0.926     0.029     2.595     2.519
    35   1 H        0.926     0.029     2.596     2.519
    36   1 H        0.926     0.029     2.604     2.524
    37   1 H        0.926     0.029     2.596     2.519
    38   1 H        0.926     0.029     2.595     2.519
    39   1 H        0.926     0.031     2.572     2.508
    40   1 H        0.926     0.028     2.617     2.530
    41   1 H        0.926     0.028     2.617     2.530
    42   1 H        0.926     0.031     2.571     2.508
    43   1 H        0.926     0.029     2.594     2.519
    44   1 H        0.926     0.029     2.596     2.519

molecular dipole:
                 x           y           z       tot (Debye)
 q only:       -0.000       0.000       0.000
   full:       -0.000       0.000       0.000       0.000

 projected vibrational frequencies (cm⁻¹)
eigval :       -0.00    -0.00     0.00     0.00     0.00     0.00
eigval :       24.50    32.69    38.44    54.96    73.11    78.04
eigval :       81.92   110.82   187.24   198.55   201.90   216.71
eigval :      231.96   242.07   248.36   368.32   369.31   381.06
eigval :      385.30   400.38   401.10   436.37   447.24   458.33
eigval :      458.93   493.26   577.31   582.08   584.84   585.46
eigval :      592.64   602.46   613.99   630.45   670.31   672.66
eigval :      678.86   693.23   727.90   737.40   755.57   762.24
eigval :      774.79   776.17   874.12   874.97   880.60   881.79
eigval :      894.88   901.91   905.94   909.27   913.38   918.36
eigval :      918.71   927.42   927.68   931.20   931.59   932.19
eigval :      932.91   933.87   991.93  1000.83  1081.31  1082.07
eigval :     1083.13  1083.65  1118.43  1118.48  1135.15  1146.16
eigval :     1181.36  1182.05  1182.06  1184.88  1195.36  1196.13
eigval :     1214.30  1223.02  1228.83  1258.57  1263.42  1280.70
eigval :     1282.12  1312.31  1312.76  1325.13  1350.45  1372.24
eigval :     1384.88  1419.00  1427.74  1428.50  1431.50  1442.83
eigval :     1466.04  1485.48  1494.21  1527.12  1531.07  1542.90
eigval :     1580.31  1580.66  1599.55  1599.68  1608.68  1622.92
eigval :     3070.57  3070.65  3071.61  3071.68  3072.83  3072.84
eigval :     3078.72  3079.02  3079.42  3080.06  3083.72  3083.90
eigval :     3089.25  3089.69  3091.48  3091.66  3093.18  3094.27

   temp. (K)  partition function   enthalpy   heat capacity  entropy
                                   cal/mol     cal/K/mol   cal/K/mol   J/K/mol
 298.15  VIB  0.391E+08            10888.260     73.182     65.947
         ROT  0.265E+07              888.752      2.981     32.371
         INT  0.104E+15            11777.013     76.162     98.318
         TR   0.581E+28             1481.254      4.968     43.261
         TOT                       13258.2666    81.1306   141.5788   592.3658

       T/K    H(0)-H(T)+PV         H(T)/Eh          T*S/Eh         G(T)/Eh
   ------------------------------------------------------------------------
    298.15    0.211284E-01    0.365256E+00    0.672687E-01    0.297987E+00
   ------------------------------------------------------------------------

         :::::::::::::::::::::::::::::::::::::::::::::::::::::
         ::                  THERMODYNAMIC                  ::
         :::::::::::::::::::::::::::::::::::::::::::::::::::::
         :: total free energy         -64.538170496714 Eh   ::
         ::.................................................::
         :: total energy              -64.836157568418 Eh   ::
         :: zero point energy           0.344127350929 Eh   ::
         :: G(RRHO) w/o ZPVE           -0.046140279226 Eh   ::
         :: G(RRHO) contrib.            0.297987071703 Eh   ::
         :::::::::::::::::::::::::::::::::::::::::::::::::::::

           -------------------------------------------------
          | TOTAL ENERGY              -64.836157568418 Eh   |
          | TOTAL ENTHALPY            -64.470901824842 Eh   |
          | TOTAL FREE ENERGY         -64.538170496714 Eh   |
          | GRADIENT NORM               0.000036436071 Eh/α |
          | HOMO-LUMO GAP               2.135466109876 eV   |
           -------------------------------------------------

 * finished run on 2025/07/20 at 14:50:13.217
