   * xtb version 6.7.1 (edcfbbe) compiled by 'albert@albert-system' on 2024-07-22

   ID    Z sym.   atoms
    1    6 C      1-5, 7-10, 12-25, 27-39, 41-44, 46-59, 61-73, 75, 76
    2    7 N      6, 11, 26, 40, 45, 60, 74
    3    1 H      77-119

          program call               : xtb data2507/gas/DDCzTrz/DDCzTrz_gas_S0_crest.xyz --gfn 2 --ohess vtight --parallel 40 --molden --ceasefiles --namespace data2507/gas/DDCzTrz/DDCzTrz_gas_S0_finalOpt
          :  Hamiltonian                  GFN2-xTB          :
 * total energy  :  -190.3294403 Eh     change       -0.4330531E-08 Eh
 * total energy  :  -190.3294418 Eh     change       -0.1490418E-05 Eh
 * total energy  :  -190.3294437 Eh     change       -0.1893299E-05 Eh
 * total energy  :  -190.3294467 Eh     change       -0.3063891E-05 Eh
 * total energy  :  -190.3294512 Eh     change       -0.4527076E-05 Eh
 * total energy  :  -190.3294559 Eh     change       -0.4656882E-05 Eh
 * total energy  :  -190.3294595 Eh     change       -0.3578094E-05 Eh
 * total energy  :  -190.3294622 Eh     change       -0.2685784E-05 Eh
 * total energy  :  -190.3294646 Eh     change       -0.2470091E-05 Eh
 * total energy  :  -190.3294675 Eh     change       -0.2821402E-05 Eh
 * total energy  :  -190.3295799 Eh     change       -0.1060728E-05 Eh
 * total energy  :  -190.3295810 Eh     change       -0.1018619E-05 Eh
 * total energy  :  -190.3295819 Eh     change       -0.9815916E-06 Eh
 * total energy  :  -190.3295829 Eh     change       -0.9385705E-06 Eh
 * total energy  :  -190.3295838 Eh     change       -0.9052864E-06 Eh
 * total energy  :  -190.3295846 Eh     change       -0.8697352E-06 Eh
 * total energy  :  -190.3295855 Eh     change       -0.8478005E-06 Eh
 * total energy  :  -190.3295863 Eh     change       -0.8263904E-06 Eh
 * total energy  :  -190.3295863 Eh     change       -0.7229289E-08 Eh
   *** GEOMETRY OPTIMIZATION CONVERGED AFTER 94 ITERATIONS ***

 final structure:
================
119
 xtb: 6.7.1 (edcfbbe)
C           -0.02380182356606       -7.90380808714591        0.24016664741727
C            1.17859638573969       -7.21645420520919        0.30423879455060
C            1.18877773180518       -5.83548852725125        0.28997872939215
C           -0.01135293972609       -5.13080186417908        0.21069220997406
C           -0.00579957393562       -3.67000402398291        0.19090160126900
N           -1.18020743141071       -3.04388129195725        0.12234584130889
C           -1.12579473759898       -1.71887009871958        0.08765556726534
C           -2.36370104251909       -0.94431898296934       -0.00235327341431
C           -3.59655631467028       -1.52942686197201        0.25364533635592
C           -4.75024998577130       -0.75510538218626        0.18501254725208
N           -5.99645597747010       -1.33835364132407        0.43264007930822
C           -6.44639026254875       -2.52984461716826       -0.10715543142717
C           -5.83768382312085       -3.37086728002756       -1.02762548728618
C           -6.52800711639592       -4.50060686764866       -1.42391777351213
C           -7.79821237953898       -4.78872296830628       -0.93016167436656
C           -8.41959981207741       -3.94182958467739       -0.03443755905791
C           -7.74476592589954       -2.80122312710699        0.38004271464153
C           -8.08431597615634       -1.72164061292186        1.26470089106571
C           -9.19851030180677       -1.44559069934162        2.04586893035891
C           -9.19355549827561       -0.30672051097325        2.82599615578422
C           -8.08858833902893        0.54076484278178        2.84658066407118
C           -6.96875230477040        0.28695833469020        2.07747418981109
C           -6.97912466422116       -0.84053282465066        1.26902500550823
C           -4.66362836456310        0.60268535249452       -0.11332087286949
C           -3.42371213869536        1.18800852633285       -0.35799903858510
N           -3.31676023010731        2.55551851343150       -0.62307939736328
C           -4.10325972904357        3.28987498179151       -1.49113730884477
C           -5.10285599156015        2.86636881083779       -2.35489095010329
C           -5.71595628302810        3.81694007444650       -3.14917426676098
C           -5.34284753597600        5.15771893956342       -3.09868293199317
C           -4.33051961521280        5.58075145454205       -2.26053244534990
C           -3.69990551649046        4.64409261243979       -1.45270648840515
C           -2.62023244765798        4.72421380341928       -0.50829865999512
C           -1.85177087753387        5.77631643292848       -0.02881464866169
C           -0.87898505658583        5.50984133020950        0.91299519246209
C           -0.67782524623061        4.21629988969113        1.38580579045108
C           -1.43879298664602        3.15558074200928        0.93304851656775
C           -2.40505109494410        3.41305357085750       -0.02871673254233
C           -2.27703161352614        0.40605711923086       -0.32200263883046
N            0.00111314779340       -1.01881440669247        0.13241357362707
C            1.12531315647084       -1.72172377829209        0.20914186448094
C            2.36758799383127       -0.94850700674867        0.22563427621558
C            2.28219268629754        0.43534515183568        0.33080202945467
C            3.42925959172870        1.21440103221143        0.25458473536616
N            3.31413508361893        2.60696636472752        0.27706627455045
C            4.09098416872756        3.48844185226269        1.00536758043000
C            5.08722312508649        3.23216715048909        1.93537203597324
C            5.69251955534696        4.31043364258514        2.55213591421779
C            5.31274810552860        5.61883275727171        2.26407554654235
C            4.30230169106344        5.88050868024353        1.36025702798153
C            3.68118375228500        4.81227263517101        0.72734191660891
C            2.60682973640770        4.71793303119563       -0.22149634038174
C            1.83551828667207        5.66546328060903       -0.88068372975970
C            0.86918574488959        5.23295601120402       -1.76565712323800
C            0.67914944748463        3.87554250714997       -2.00705621539077
C            1.44400345633956        2.91505096241489       -1.37317908303195
C            2.40222889273455        3.34156680315134       -0.46490736967096
C            4.66916967772298        0.59764867827860        0.10537059450709
C            4.75658865673136       -0.79147679097102        0.04496058350800
N            6.00367149873646       -1.40559414660336       -0.11594766255393
C            7.14054694178048       -1.14949030288076        0.62644691676462
C            7.31234797343376       -0.31775231360448        1.72264785749929
C            8.56361590505558       -0.26458637410936        2.30593130111810
C            9.62308366991820       -1.02845408359206        1.82226095827271
C            9.45124310948305       -1.88152149010253        0.75045893509725
C            8.20224419542939       -1.95013451338605        0.14777099811406
C            7.67210500178161       -2.72315240720435       -0.94058842719678
C            8.22630311109624       -3.65997497339607       -1.80289086991362
C            7.42466823785248       -4.21451789213475       -2.78031245708401
C            6.09137822026365       -3.83383115837275       -2.91316807825175
C            5.51799714918290       -2.90315837172259       -2.06773895220062
C            6.31194342092428       -2.36087471118243       -1.06760720709441
C            3.60449240212474       -1.56848998164861        0.10200602125346
N            1.17183489171487       -3.04753211059252        0.23379010949121
C           -1.21787646626099       -5.82637299127597        0.14564666878917
C           -1.22005411564553       -7.20729572598006        0.16094152768830
H           -0.02857383007230       -8.98392456041973        0.25178894371163
H            2.10904062883947       -7.76147546448055        0.36542144812433
H            2.11444737708986       -5.28398108175688        0.33986616999007
H           -3.64357895291278       -2.57036223743636        0.52924019361873
H           -4.86147430510539       -3.14997057540131       -1.43184090882830
H           -6.07282089605279       -5.17344960165697       -2.13573368143372
H           -8.30353684764095       -5.68324412957547       -1.26257763105210
H           -9.41063040530593       -4.15529969415581        0.33651761887920
H          -10.04606469028355       -2.11413523273255        2.04390337031227
H          -10.05073718583558       -0.07154598767604        3.43902110329504
H           -8.10438996772215        1.41459355502072        3.48106070629273
H           -6.11085229462756        0.94063440717427        2.12238108571681
H           -5.55994364330390        1.20218407941380       -0.14992074922341
H           -5.38649474063465        1.82689277143434       -2.42200935470713
H           -6.49894864912103        3.51123369718694       -3.82732161451060
H           -5.84788913380548        5.87024021775596       -3.73365283137584
H           -4.02787629149583        6.61664955033781       -2.23422922273203
H           -2.01929070983050        6.78121225918572       -0.38584157800060
H           -0.26693175269123        6.31168647575285        1.29693369717473
H            0.08697476262029        4.03934050582360        2.12764059524195
H           -1.29131847680978        2.16352610512003        1.33192355967140
H           -1.31493177996344        0.83309780023958       -0.55171130232399
H            1.31756971139489        0.89279769199183        0.47479721905228
H            5.37427896136384        2.22318722655484        2.18678983953555
H            6.47374354518417        4.13337447678101        3.27650942241145
H            5.81072680734142        6.43545861158554        2.76510215482987
H            3.99408748066313        6.89355049990785        1.15022996189092
H            1.99602223827902        6.71818049665870       -0.70379959497461
H            0.25411248551018        5.95146046159501       -2.28561265963403
H           -0.07974838382463        3.56669853983414       -2.71084545396923
H            1.30544798630716        1.86823633390783       -1.59647094331475
H            5.56183202493449        1.19511551124519       -0.00165310025536
H            6.49135711206079        0.25752278997818        2.12193783074166
H            8.72191147950725        0.37955547773366        3.15824200597463
H           10.58725875053321       -0.95765979385688        2.30309996052875
H           10.26676207412692       -2.48873620547928        0.38775768005037
H            9.26415431689735       -3.94181055095595       -1.70927630608879
H            7.83466653981603       -4.94688397791298       -3.45966965194445
H            5.49211700718871       -4.27316417759115       -3.69699149637044
H            4.48856129909521       -2.60361531272333       -2.19290428988024
H            3.65764039827479       -2.64387899138043        0.05392336337656
H           -2.13866123845295       -5.26793264847826        0.08249669457698
H           -2.15535050647352       -7.74512384067475        0.11097399066630

          :  Hamiltonian                  GFN2-xTB          :
         :: gradient norm              0.000088188856 Eh/a0 ::
         :: HOMO-LUMO gap              1.836369848832 eV    ::
         :: SCC energy              -193.873790439854 Eh    ::
         :: -> dispersion             -0.185156222797 Eh    ::
         :: repulsion energy           3.544204111051 Eh    ::

    * Orbital Energies and Occupations

         #    Occupation            Energy/Eh            Energy/eV
      -------------------------------------------------------------
         1        2.0000           -0.6926972             -18.8492
       ...           ...                  ...                  ...
       165        2.0000           -0.4064798             -11.0609
       166        2.0000           -0.4064704             -11.0606
       167        2.0000           -0.4029006             -10.9635
       168        2.0000           -0.3800364             -10.3413
       169        2.0000           -0.3799525             -10.3390
       170        2.0000           -0.3799311             -10.3385
       171        2.0000           -0.3798837             -10.3372
       172        2.0000           -0.3793468             -10.3226
       173        2.0000           -0.3780367             -10.2869
       174        2.0000           -0.3673264              -9.9955
       175        2.0000           -0.3658557              -9.9554
       176        2.0000           -0.3650263              -9.9329
       177        2.0000           -0.3627980              -9.8722 (HOMO)
       178                         -0.2953127              -8.0359 (LUMO)
       179                         -0.2939140              -7.9978
       180                         -0.2546099              -6.9283
       181                         -0.2504830              -6.8160
       182                         -0.2502725              -6.8103
       183                         -0.2458654              -6.6903
       184                         -0.2451021              -6.6696
       185                         -0.2405743              -6.5464
       186                         -0.2403154              -6.5393
       187                         -0.2326404              -6.3305
       188                         -0.2231586              -6.0725
       ...                                ...                  ...
       347                          0.7460439              20.3009
      -------------------------------------------------------------
                  HL-Gap            0.0674854 Eh            1.8364 eV

     #   Z          covCN         q      C6AA      α(0)
     1   6 C        2.920    -0.022    28.554     8.763
     2   6 C        2.918    -0.027    28.667     8.780
     3   6 C        2.924    -0.023    28.570     8.766
     4   6 C        2.984    -0.000    28.023     8.684
     5   6 C        2.988     0.203    23.684     7.983
     6   7 N        1.843    -0.291    28.392     7.897
     7   6 C        2.988     0.204    23.669     7.980
     8   6 C        2.985     0.001    27.992     8.679
     9   6 C        2.925    -0.046    29.131     8.851
    10   6 C        2.911     0.068    26.470     8.436
    11   7 N        2.803    -0.042    22.053     6.975
    12   6 C        3.073     0.046    26.884     8.501
    13   6 C        2.910    -0.051    29.257     8.869
    14   6 C        2.924    -0.033    28.817     8.803
    15   6 C        2.920    -0.040    28.999     8.831
    16   6 C        2.913    -0.032    28.809     8.801
    17   6 C        3.067    -0.016    28.335     8.728
    18   6 C        3.068    -0.016    28.335     8.728
    19   6 C        2.913    -0.032    28.807     8.801
    20   6 C        2.920    -0.040    28.993     8.830
    21   6 C        2.924    -0.033    28.816     8.803
    22   6 C        2.910    -0.051    29.260     8.870
    23   6 C        3.071     0.046    26.889     8.502
    24   6 C        2.925    -0.057    29.419     8.895
    25   6 C        2.910     0.069    26.464     8.435
    26   7 N        2.803    -0.042    22.044     6.973
    27   6 C        3.070     0.046    26.893     8.503
    28   6 C        2.910    -0.051    29.263     8.870
    29   6 C        2.924    -0.033    28.824     8.804
    30   6 C        2.920    -0.040    28.998     8.831
    31   6 C        2.913    -0.032    28.807     8.801
    32   6 C        3.068    -0.015    28.325     8.727
    33   6 C        3.067    -0.015    28.321     8.726
    34   6 C        2.913    -0.031    28.777     8.796
    35   6 C        2.920    -0.038    28.933     8.821
    36   6 C        2.924    -0.031    28.771     8.796
    37   6 C        2.910    -0.050    29.252     8.869
    38   6 C        3.071     0.046    26.886     8.502
    39   6 C        2.930    -0.047    29.158     8.856
    40   7 N        1.851    -0.295    28.508     7.913
    41   6 C        2.987     0.204    23.674     7.981
    42   6 C        2.985     0.001    27.995     8.679
    43   6 C        2.931    -0.047    29.166     8.857
    44   6 C        2.909     0.069    26.462     8.435
    45   7 N        2.802    -0.041    22.040     6.973
    46   6 C        3.070     0.046    26.890     8.503
    47   6 C        2.910    -0.050    29.242     8.867
    48   6 C        2.924    -0.033    28.823     8.804
    49   6 C        2.920    -0.040    28.999     8.831
    50   6 C        2.913    -0.032    28.805     8.801
    51   6 C        3.067    -0.015    28.325     8.727
    52   6 C        3.067    -0.015    28.316     8.726
    53   6 C        2.913    -0.031    28.773     8.796
    54   6 C        2.920    -0.037    28.930     8.820
    55   6 C        2.924    -0.031    28.771     8.796
    56   6 C        2.910    -0.050    29.248     8.868
    57   6 C        3.071     0.046    26.885     8.502
    58   6 C        2.925    -0.055    29.367     8.887
    59   6 C        2.911     0.068    26.469     8.436
    60   7 N        2.803    -0.043    22.061     6.976
    61   6 C        3.074     0.046    26.882     8.501
    62   6 C        2.910    -0.050    29.230     8.865
    63   6 C        2.924    -0.033    28.815     8.803
    64   6 C        2.920    -0.040    28.999     8.831
    65   6 C        2.913    -0.032    28.804     8.801
    66   6 C        3.068    -0.016    28.340     8.729
    67   6 C        3.068    -0.016    28.335     8.728
    68   6 C        2.913    -0.032    28.809     8.801
    69   6 C        2.920    -0.040    28.998     8.831
    70   6 C        2.924    -0.033    28.812     8.802
    71   6 C        2.910    -0.050    29.248     8.868
    72   6 C        3.074     0.047    26.879     8.501
    73   6 C        2.924    -0.045    29.129     8.851
    74   7 N        1.842    -0.291    28.385     7.896
    75   6 C        2.924    -0.023    28.573     8.766
    76   6 C        2.918    -0.027    28.668     8.780
    77   1 H        0.926     0.039     2.464     2.455
    78   1 H        0.926     0.039     2.461     2.453
    79   1 H        0.926     0.056     2.241     2.341
    80   1 H        0.926     0.065     2.145     2.290
    81   1 H        0.926     0.031     2.578     2.511
    82   1 H        0.926     0.030     2.584     2.514
    83   1 H        0.926     0.029     2.602     2.522
    84   1 H        0.926     0.032     2.560     2.502
    85   1 H        0.926     0.032     2.555     2.500
    86   1 H        0.926     0.029     2.596     2.519
    87   1 H        0.926     0.030     2.581     2.512
    88   1 H        0.926     0.027     2.625     2.534
    89   1 H        0.926     0.056     2.246     2.344
    90   1 H        0.926     0.027     2.630     2.536
    91   1 H        0.926     0.030     2.586     2.515
    92   1 H        0.926     0.029     2.599     2.521
    93   1 H        0.926     0.032     2.560     2.502
    94   1 H        0.926     0.032     2.554     2.499
    95   1 H        0.926     0.030     2.590     2.517
    96   1 H        0.926     0.028     2.613     2.528
    97   1 H        0.926     0.030     2.585     2.514
    98   1 H        0.926     0.068     2.110     2.271
    99   1 H        0.926     0.070     2.087     2.259
   100   1 H        0.926     0.025     2.654     2.548
   101   1 H        0.926     0.030     2.583     2.513
   102   1 H        0.926     0.029     2.598     2.521
   103   1 H        0.926     0.032     2.560     2.502
   104   1 H        0.926     0.032     2.551     2.498
   105   1 H        0.926     0.030     2.588     2.516
   106   1 H        0.926     0.028     2.614     2.528
   107   1 H        0.926     0.030     2.591     2.517
   108   1 H        0.926     0.055     2.257     2.349
   109   1 H        0.926     0.024     2.671     2.556
   110   1 H        0.926     0.030     2.583     2.513
   111   1 H        0.926     0.029     2.598     2.520
   112   1 H        0.926     0.032     2.558     2.501
   113   1 H        0.926     0.032     2.558     2.501
   114   1 H        0.926     0.029     2.600     2.521
   115   1 H        0.926     0.030     2.585     2.514
   116   1 H        0.926     0.029     2.607     2.525
   117   1 H        0.926     0.066     2.131     2.283
   118   1 H        0.926     0.057     2.235     2.338
   119   1 H        0.926     0.039     2.460     2.453

molecular dipole:
                 x           y           z       tot (Debye)
 q only:       -0.027      -0.436      -0.019
   full:       -0.023      -0.537       0.003       1.367

 projected vibrational frequencies (cm⁻¹)
eigval :       -0.00    -0.00     0.00     0.00     0.00     0.00
eigval :        6.62     7.13    13.90    15.27    18.32    21.04
eigval :       21.81    23.39    24.82    25.83    28.51    32.15
eigval :       52.41    55.08    60.06    62.79    66.15    79.62
eigval :       86.09    90.96    95.79   101.23   104.08   107.64
eigval :      118.32   124.26   140.05   141.06   141.36   144.39
eigval :      148.80   152.25   159.73   173.66   179.19   192.74
eigval :      197.84   219.36   223.98   233.66   245.23   251.50
eigval :      252.30   253.58   261.96   272.10   272.92   274.08
eigval :      276.23   283.68   295.92   308.60   311.94   329.87
eigval :      341.43   360.97   364.70   366.31   386.11   393.65
eigval :      395.95   396.53   397.18   398.58   414.06   422.25
eigval :      423.47   423.50   423.75   436.14   437.02   438.51
eigval :      438.62   440.94   461.90   478.39   510.04   512.21
eigval :      512.97   518.42   519.47   520.16   520.39   531.62
eigval :      539.29   540.86   541.20   541.36   541.94   545.26
eigval :      548.95   572.73   578.22   586.56   587.69   588.13
eigval :      588.72   594.41   609.95   615.84   620.11   621.99
eigval :      627.58   638.11   644.58   645.59   647.65   666.19
eigval :      669.15   673.53   673.99   674.15   675.03   681.68
eigval :      686.74   702.38   708.15   708.50   708.74   709.37
eigval :      734.75   749.45   749.84   756.04   757.67   764.22
eigval :      766.56   769.51   770.04   770.23   770.87   771.32
eigval :      779.31   780.90   781.60   782.96   794.07   844.18
eigval :      845.49   855.66   862.17   864.15   868.00   868.44
eigval :      868.82   871.05   873.87   877.21   879.74   881.54
eigval :      892.73   894.98   896.55   897.78   898.46   899.04
eigval :      899.57   899.82   900.42   903.84   905.34   906.22
eigval :      908.76   909.88   912.72   913.46   914.12   920.21
eigval :      923.05   923.71   924.45   925.09   925.82   928.01
eigval :      928.51   931.37   934.74   943.77   990.78   991.41
eigval :      998.52  1007.38  1011.72  1012.02  1013.43  1025.41
eigval :     1033.13  1034.13  1052.63  1067.53  1071.57  1071.81
eigval :     1072.33  1074.27  1074.89  1075.83  1075.92  1076.95
eigval :     1106.85  1110.31  1115.18  1118.25  1120.07  1122.43
eigval :     1143.25  1149.46  1153.06  1154.07  1154.72  1159.31
eigval :     1164.00  1166.10  1178.07  1179.55  1179.95  1180.33
eigval :     1181.03  1181.32  1181.78  1182.42  1183.50  1190.78
eigval :     1206.96  1207.82  1210.43  1216.46  1218.34  1232.26
eigval :     1235.78  1235.90  1236.52  1236.80  1237.70  1251.62
eigval :     1255.65  1269.43  1296.26  1296.51  1297.56  1298.55
eigval :     1301.59  1302.00  1302.39  1302.57  1326.07  1328.04
eigval :     1328.70  1331.51  1334.32  1339.25  1352.81  1357.93
eigval :     1358.29  1358.97  1359.61  1362.75  1362.98  1363.13
eigval :     1365.38  1370.78  1399.89  1403.03  1418.64  1419.32
eigval :     1426.37  1427.07  1427.36  1427.87  1431.84  1433.62
eigval :     1442.43  1456.31  1457.69  1460.37  1464.05  1472.11
eigval :     1476.96  1477.08  1477.82  1478.58  1488.00  1488.07
eigval :     1488.18  1488.42  1515.71  1527.69  1569.45  1569.84
eigval :     1570.40  1573.16  1576.13  1576.67  1577.77  1578.12
eigval :     1583.98  1589.20  1589.70  1589.98  1590.47  1594.90
eigval :     1599.35  1599.89  1600.05  1600.61  1614.37  1614.79
eigval :     1615.15  1615.86  3076.59  3077.15  3077.37  3077.43
eigval :     3077.74  3077.90  3077.93  3077.97  3078.56  3082.20
eigval :     3082.55  3082.80  3083.05  3083.31  3083.75  3084.02
eigval :     3084.25  3085.37  3089.36  3089.72  3090.11  3090.32
eigval :     3091.42  3091.66  3091.78  3091.96  3093.89  3096.29
eigval :     3096.52  3096.69  3098.06  3098.31  3098.59  3099.22
eigval :     3099.84  3101.40  3106.31  3107.09  3108.00  3118.99
eigval :     3120.07  3123.73  3125.92

   temp. (K)  partition function   enthalpy   heat capacity  entropy
                                   cal/mol     cal/K/mol   cal/K/mol   J/K/mol
 298.15  VIB  0.185E+29            34764.805    218.726    217.158
         ROT  0.299E+09              888.752      2.981     41.767
         INT  0.554E+37            35653.558    221.707    258.925
         TR   0.292E+29             1481.254      4.968     46.470
         TOT                       37134.8117   226.6754   305.3954  1277.7742

       T/K    H(0)-H(T)+PV         H(T)/Eh          T*S/Eh         G(T)/Eh
   ------------------------------------------------------------------------
    298.15    0.591781E-01    0.963632E+00    0.145103E+00    0.818529E+00
   ------------------------------------------------------------------------

         :::::::::::::::::::::::::::::::::::::::::::::::::::::
         ::                  THERMODYNAMIC                  ::
         :::::::::::::::::::::::::::::::::::::::::::::::::::::
         :: total free energy        -189.511057306204 Eh   ::
         ::.................................................::
         :: total energy             -190.329586328803 Eh   ::
         :: zero point energy           0.904454126232 Eh   ::
         :: G(RRHO) w/o ZPVE           -0.085925103632 Eh   ::
         :: G(RRHO) contrib.            0.818529022600 Eh   ::
         :::::::::::::::::::::::::::::::::::::::::::::::::::::

           -------------------------------------------------
          | TOTAL ENERGY             -190.329586328803 Eh   |
          | TOTAL ENTHALPY           -189.365954113325 Eh   |
          | TOTAL FREE ENERGY        -189.511057306204 Eh   |
          | GRADIENT NORM               0.000088189162 Eh/α |
          | HOMO-LUMO GAP               1.836369898167 eV   |
           -------------------------------------------------

 * finished run on 2025/09/08 at 22:22:21.389
