   * xtb version 6.7.1 (edcfbbe) compiled by 'albert@albert-system' on 2024-07-22

   ID    Z sym.   atoms
    1    6 C      1-5, 7-10, 12-25, 27-39, 41-44, 46-59, 61-73, 75, 76
    2    7 N      6, 11, 26, 40, 45, 60, 74
    3    1 H      77-119

          program call               : xtb data2507/gas/DDCzTrz/DDCzTrz.xyz --gfn 2 --ohess vtight --parallel 40 --molden --ceasefiles --namespace data2507/gas/DDCzTrz/DDCzTrz_gas_S0_preOpt
          :  Hamiltonian                  GFN2-xTB          :
 * total energy  :  -190.2929170 Eh     change       -0.3453181E-08 Eh
 * total energy  :  -190.3153925 Eh     change       -0.2247557E-01 Eh
 * total energy  :  -190.3215386 Eh     change       -0.6146032E-02 Eh
 * total energy  :  -190.3232751 Eh     change       -0.1736512E-02 Eh
 * total energy  :  -190.3243944 Eh     change       -0.1119260E-02 Eh
 * total energy  :  -190.3247905 Eh     change       -0.3961331E-03 Eh
 * total energy  :  -190.3249730 Eh     change       -0.1824900E-03 Eh
 * total energy  :  -190.3250883 Eh     change       -0.1152838E-03 Eh
 * total energy  :  -190.3251686 Eh     change       -0.8035877E-04 Eh
 * total energy  :  -190.3252479 Eh     change       -0.7929255E-04 Eh
 * total energy  :  -190.3260273 Eh     change       -0.2413093E-06 Eh
 * total energy  :  -190.3260274 Eh     change       -0.1620584E-06 Eh
 * total energy  :  -190.3260276 Eh     change       -0.1490151E-06 Eh
 * total energy  :  -190.3260278 Eh     change       -0.1750248E-06 Eh
 * total energy  :  -190.3260280 Eh     change       -0.2587588E-06 Eh
 * total energy  :  -190.3260284 Eh     change       -0.3386144E-06 Eh
 * total energy  :  -190.3260287 Eh     change       -0.2979252E-06 Eh
 * total energy  :  -190.3260289 Eh     change       -0.2539603E-06 Eh
 * total energy  :  -190.3260289 Eh     change       -0.3604697E-08 Eh
   *** GEOMETRY OPTIMIZATION CONVERGED AFTER 122 ITERATIONS ***

 final structure:
================
119
 xtb: 6.7.1 (edcfbbe)
C            0.17063524883806       -7.74692509013949        0.70478353673012
C           -1.03840977271987       -7.07478680231687        0.61041715153616
C           -1.05999852699812       -5.69639181163942        0.52859760696296
C            0.13539137903698       -4.97889204000966        0.54151716033665
C            0.11532258372057       -3.52098294912903        0.45052773285552
N           -1.06943448057926       -2.91672378358754        0.39183713837433
C           -1.04263170984547       -1.59438793610336        0.27768495377230
C           -2.31765975175102       -0.88700673300282        0.14641822792728
C           -3.50527822751066       -1.54018998617230        0.45101567174444
C           -4.71925392791683       -0.88044951498497        0.29450003256703
N           -5.91424494181043       -1.55376406833774        0.56359607505015
C           -6.22734488125488       -2.83007841069472        0.12861020020306
C           -5.50438693896959       -3.69307341744430       -0.68256157560651
C           -6.06911664825274       -4.91681414802282       -0.98824248320029
C           -7.32750305910382       -5.27781026862587       -0.51266380109433
C           -8.06364212280818       -4.41212290612227        0.27096068331066
C           -7.51598937678044       -3.17729564333107        0.59274677511699
C           -7.99580925666186       -2.05458354083998        1.34934494876416
C           -9.16706511414644       -1.81185949494856        2.05428823739636
C           -9.30648288818879       -0.60560229974762        2.71108547141367
C           -8.28782374190458        0.34359468424395        2.68582213859438
C           -7.11366269480546        0.12267223057250        1.99178871153987
C           -6.97856540097972       -1.07444795042717        1.30490409398648
C           -4.73782818360565        0.43502906929619       -0.16258153486993
C           -3.54436001663312        1.09212183410048       -0.44895003914948
N           -3.56329913091224        2.40623318871607       -0.93165947693443
C           -2.92879157308100        2.84531071664543       -2.07819849205005
C           -2.18939092590408        2.12897347686059       -3.00832343620657
C           -1.69219620055950        2.81305994168017       -4.10187793710937
C           -1.92565106094520        4.17602932834757       -4.27568705506837
C           -2.67746737169555        4.88921510411245       -3.36309359443174
C           -3.18959144641008        4.22302409483968       -2.25729884309625
C           -4.01586107274911        4.62940971547957       -1.15510075384774
C           -4.57473798422918        5.84266940289521       -0.77625919189031
C           -5.32579852925749        5.89275355962419        0.38107636950077
C           -5.50768416082343        4.75701983828773        1.16668294621968
C           -4.95899891680200        3.54010413642850        0.81077764575143
C           -4.22669441804808        3.47675364996016       -0.36488652712376
C           -2.33166741028004        0.43290853417479       -0.29064538872620
N            0.06964662125620       -0.87000484980095        0.25199914695082
C            1.20752830306986       -1.55292221542873        0.33859467015716
C            2.44819525224850       -0.77708170231382        0.30764830330644
C            2.38261718814331        0.60151328315125        0.46891184791276
C            3.53748428724731        1.37065334555870        0.38232937148526
N            3.44657551585503        2.76026242842470        0.49456289157820
C            4.25387398795695        3.58290307984139        1.25990423169790
C            5.31614547380161        3.26301107369626        2.09179957823565
C            5.94354533952032        4.29044431264763        2.77030758305398
C            5.52245629765855        5.61111062950053        2.63974557284201
C            4.44568865707627        5.93395762835071        1.83838480873752
C            3.80126670294896        4.91721594530852        1.14688749880474
C            2.66295862992526        4.89208584269809        0.27133372143041
C            1.81273795494324        5.87891157441545       -0.21082982354566
C            0.79656167131593        5.51329095262151       -1.07018523078512
C            0.64038684937713        4.18819597181824       -1.46874579726209
C            1.47572677547816        3.19068168942067       -1.00330892814917
C            2.47558798262322        3.54445661884369       -0.10816608153410
C            4.76151321042754        0.74770168416446        0.15092033512930
C            4.82931748681399       -0.63828260423303        0.02796742528160
N            6.06145702595049       -1.25903595034534       -0.20870066775197
C            7.22691555348825       -1.05527726857805        0.50471844688591
C            7.44779708120357       -0.28433334743306        1.63592308304542
C            8.71929246362815       -0.27531942593621        2.17611667469999
C            9.75109006251476       -1.02473485521817        1.61596919197337
C            9.53028208476555       -1.81992449004441        0.50920246655420
C            8.26006744866018       -1.84329627184246       -0.05121549244801
C            7.68070394268118       -2.55521928410410       -1.15598042613996
C            8.18985641919572       -3.45644611621603       -2.08165588622138
C            7.34517963469194       -3.95413949816464       -3.05341270382725
C            6.01307542935732       -3.55206461149879       -3.11798865264967
C            5.48405435697531       -2.65575468795297       -2.20892156788075
C            6.32194082573601       -2.17074955516371       -1.21533662335224
C            3.67194862975691       -1.40422446395837        0.10603668963855
N            1.27986711287008       -2.87527535669961        0.42132956755556
C            1.34839047547456       -5.65901437382528        0.63652811043169
C            1.36192423124017       -7.03769623382386        0.71750521037379
H            0.18450204771827       -8.82513820027374        0.76850005283141
H           -1.96512829260399       -7.62943634342696        0.60076850898434
H           -1.99147583918930       -5.15758199633976        0.45244408800925
H           -3.46987446211702       -2.55101683886838        0.82308133568101
H           -4.53707366675337       -3.41936227634010       -1.07538655040807
H           -5.52276892909230       -5.60707487005495       -1.61409367236767
H           -7.73276461655813       -6.24458713769361       -0.77169096763882
H           -9.04671283906139       -4.68259453283785        0.62549872455337
H           -9.94767314527417       -2.55666432029316        2.08902576027856
H          -10.21073894088149       -0.39518727340186        3.26230777370538
H           -8.41568984124762        1.27136381840661        3.22362633809930
H           -6.32321620648086        0.85658948747066        2.00123355056700
H           -5.67946516749366        0.93593524925933       -0.32937018596018
H           -2.01364223600236        1.07039814799561       -2.88992701731853
H           -1.10946702381923        2.27943601397467       -4.83817723916520
H           -1.51508494371376        4.67510495203262       -5.14065875367284
H           -2.87043190828398        5.94178879752553       -3.50490172569565
H           -4.41961500524521        6.72686321065887       -1.37585398588721
H           -5.77246517777937        6.82553198479790        0.69136341280016
H           -6.08633484180690        4.82991895793151        2.07566987824623
H           -5.08412879419911        2.67131361451728        1.43863374489348
H           -1.40037976012029        0.93436511130595       -0.49953189512028
H            1.42931426431393        1.06009050889320        0.67372481780187
H            5.63975863748621        2.24291462926249        2.22384445671387
H            6.77628801535184        4.06200044896180        3.41892574882296
H            6.04044736526617        6.38715227840014        3.18312457103398
H            4.10414462143653        6.95427900787094        1.75125792125716
H            1.95092600736429        6.90864900655786        0.08232193512328
H            0.11635601398977        6.25958324734732       -1.45222839143013
H           -0.14751085196671        3.93611653288302       -2.16083717112492
H            1.35461573415740        2.17297542069429       -1.34181600404550
H            5.65657309930275        1.33911497164860        0.03204772108647
H            6.64792895748392        0.27624778383556        2.09464621719214
H            8.91557343085481        0.32142059933794        3.05463473820864
H           10.73245024859183       -0.98965250835793        2.06493169731586
H           10.32433760673423       -2.41747101666855        0.08757878267958
H            9.22634694817322       -3.75527233636694       -2.03999532953305
H            7.71976700556555       -4.65840071055446       -3.78121597049652
H            5.37936382132761       -3.94721799683892       -3.89822952303857
H            4.45458163933626       -2.33891754444503       -2.27966684360098
H            3.71038554661777       -2.47754355346173        0.01550169858529
H            2.26502496965679       -5.09047944446074        0.64674313792413
H            2.30227419641575       -7.56384448945184        0.79101368867401

          :  Hamiltonian                  GFN2-xTB          :
         :: gradient norm              0.000044195676 Eh/a0 ::
         :: HOMO-LUMO gap              1.853709678764 eV    ::
         :: SCC energy              -193.869336779311 Eh    ::
         :: -> dispersion             -0.180219244586 Eh    ::
         :: repulsion energy           3.543307863810 Eh    ::

    * Orbital Energies and Occupations

         #    Occupation            Energy/Eh            Energy/eV
      -------------------------------------------------------------
         1        2.0000           -0.6931644             -18.8620
       ...           ...                  ...                  ...
       165        2.0000           -0.4069785             -11.0744
       166        2.0000           -0.4063248             -11.0567
       167        2.0000           -0.4051051             -11.0235
       168        2.0000           -0.3807072             -10.3596
       169        2.0000           -0.3804991             -10.3539
       170        2.0000           -0.3803736             -10.3505
       171        2.0000           -0.3798147             -10.3353
       172        2.0000           -0.3797132             -10.3325
       173        2.0000           -0.3783610             -10.2957
       174        2.0000           -0.3676726             -10.0049
       175        2.0000           -0.3664508              -9.9716
       176        2.0000           -0.3649739              -9.9314
       177        2.0000           -0.3636216              -9.8946 (HOMO)
       178                         -0.2954990              -8.0409 (LUMO)
       179                         -0.2942969              -8.0082
       180                         -0.2549579              -6.9378
       181                         -0.2513348              -6.8392
       182                         -0.2501196              -6.8061
       183                         -0.2465927              -6.7101
       184                         -0.2450595              -6.6684
       185                         -0.2417540              -6.5785
       186                         -0.2401443              -6.5347
       187                         -0.2330461              -6.3415
       188                         -0.2238869              -6.0923
       ...                                ...                  ...
       347                          0.7461717              20.3044
      -------------------------------------------------------------
                  HL-Gap            0.0681226 Eh            1.8537 eV

     #   Z          covCN         q      C6AA      α(0)
     1   6 C        2.920    -0.022    28.553     8.763
     2   6 C        2.918    -0.027    28.668     8.780
     3   6 C        2.924    -0.023    28.572     8.766
     4   6 C        2.984    -0.000    28.026     8.684
     5   6 C        2.985     0.203    23.685     7.983
     6   7 N        1.844    -0.292    28.408     7.899
     7   6 C        2.988     0.204    23.670     7.981
     8   6 C        2.984     0.002    27.976     8.676
     9   6 C        2.927    -0.046    29.131     8.851
    10   6 C        2.910     0.069    26.460     8.435
    11   7 N        2.802    -0.042    22.045     6.973
    12   6 C        3.073     0.046    26.886     8.502
    13   6 C        2.910    -0.051    29.255     8.869
    14   6 C        2.924    -0.033    28.815     8.803
    15   6 C        2.920    -0.040    28.995     8.830
    16   6 C        2.913    -0.032    28.808     8.801
    17   6 C        3.068    -0.016    28.329     8.727
    18   6 C        3.068    -0.016    28.335     8.728
    19   6 C        2.913    -0.032    28.803     8.800
    20   6 C        2.920    -0.040    28.993     8.830
    21   6 C        2.924    -0.033    28.814     8.803
    22   6 C        2.910    -0.050    29.239     8.867
    23   6 C        3.071     0.046    26.887     8.502
    24   6 C        2.925    -0.055    29.358     8.886
    25   6 C        2.911     0.069    26.459     8.435
    26   7 N        2.803    -0.043    22.068     6.977
    27   6 C        3.075     0.048    26.854     8.496
    28   6 C        2.909    -0.050    29.232     8.866
    29   6 C        2.924    -0.032    28.803     8.801
    30   6 C        2.920    -0.040    28.988     8.829
    31   6 C        2.912    -0.032    28.789     8.798
    32   6 C        3.068    -0.015    28.315     8.725
    33   6 C        3.068    -0.016    28.335     8.728
    34   6 C        2.913    -0.032    28.795     8.799
    35   6 C        2.920    -0.040    28.997     8.831
    36   6 C        2.924    -0.032    28.809     8.802
    37   6 C        2.910    -0.049    29.225     8.865
    38   6 C        3.075     0.047    26.870     8.499
    39   6 C        2.926    -0.045    29.111     8.848
    40   7 N        1.846    -0.294    28.464     7.907
    41   6 C        2.989     0.204    23.669     7.981
    42   6 C        2.984     0.001    27.987     8.678
    43   6 C        2.929    -0.047    29.156     8.855
    44   6 C        2.909     0.069    26.455     8.434
    45   7 N        2.801    -0.042    22.043     6.973
    46   6 C        3.069     0.046    26.892     8.503
    47   6 C        2.911    -0.050    29.251     8.869
    48   6 C        2.924    -0.033    28.824     8.804
    49   6 C        2.920    -0.040    28.996     8.830
    50   6 C        2.913    -0.032    28.806     8.801
    51   6 C        3.068    -0.016    28.327     8.727
    52   6 C        3.067    -0.016    28.335     8.729
    53   6 C        2.913    -0.032    28.806     8.801
    54   6 C        2.920    -0.039    28.964     8.825
    55   6 C        2.924    -0.034    28.854     8.809
    56   6 C        2.910    -0.050    29.244     8.867
    57   6 C        3.071     0.046    26.897     8.504
    58   6 C        2.925    -0.055    29.374     8.888
    59   6 C        2.911     0.068    26.468     8.436
    60   7 N        2.803    -0.043    22.063     6.976
    61   6 C        3.074     0.047    26.880     8.501
    62   6 C        2.910    -0.050    29.229     8.865
    63   6 C        2.924    -0.033    28.815     8.803
    64   6 C        2.920    -0.040    29.000     8.831
    65   6 C        2.913    -0.032    28.804     8.801
    66   6 C        3.068    -0.016    28.342     8.729
    67   6 C        3.068    -0.016    28.337     8.729
    68   6 C        2.913    -0.032    28.809     8.801
    69   6 C        2.920    -0.040    28.999     8.831
    70   6 C        2.924    -0.033    28.812     8.803
    71   6 C        2.910    -0.050    29.247     8.868
    72   6 C        3.074     0.047    26.877     8.500
    73   6 C        2.925    -0.045    29.130     8.851
    74   7 N        1.843    -0.290    28.374     7.894
    75   6 C        2.923    -0.023    28.570     8.765
    76   6 C        2.918    -0.027    28.666     8.780
    77   1 H        0.926     0.039     2.463     2.454
    78   1 H        0.926     0.039     2.459     2.452
    79   1 H        0.926     0.056     2.241     2.341
    80   1 H        0.926     0.067     2.118     2.276
    81   1 H        0.926     0.031     2.569     2.507
    82   1 H        0.926     0.030     2.582     2.513
    83   1 H        0.926     0.029     2.599     2.521
    84   1 H        0.926     0.032     2.556     2.500
    85   1 H        0.926     0.032     2.554     2.499
    86   1 H        0.926     0.029     2.593     2.518
    87   1 H        0.926     0.031     2.577     2.510
    88   1 H        0.926     0.026     2.649     2.545
    89   1 H        0.926     0.055     2.254     2.348
    90   1 H        0.926     0.026     2.641     2.541
    91   1 H        0.926     0.029     2.596     2.520
    92   1 H        0.926     0.029     2.600     2.522
    93   1 H        0.926     0.032     2.563     2.504
    94   1 H        0.926     0.032     2.556     2.500
    95   1 H        0.926     0.029     2.595     2.519
    96   1 H        0.926     0.030     2.582     2.513
    97   1 H        0.926     0.024     2.679     2.559
    98   1 H        0.926     0.067     2.117     2.275
    99   1 H        0.926     0.069     2.102     2.267
   100   1 H        0.926     0.026     2.643     2.542
   101   1 H        0.926     0.030     2.583     2.513
   102   1 H        0.926     0.029     2.598     2.521
   103   1 H        0.926     0.032     2.556     2.500
   104   1 H        0.926     0.032     2.556     2.500
   105   1 H        0.926     0.029     2.596     2.520
   106   1 H        0.926     0.034     2.531     2.488
   107   1 H        0.926     0.030     2.590     2.517
   108   1 H        0.926     0.055     2.252     2.347
   109   1 H        0.926     0.024     2.674     2.557
   110   1 H        0.926     0.030     2.584     2.514
   111   1 H        0.926     0.029     2.598     2.521
   112   1 H        0.926     0.032     2.558     2.501
   113   1 H        0.926     0.032     2.558     2.501
   114   1 H        0.926     0.029     2.601     2.522
   115   1 H        0.926     0.030     2.587     2.515
   116   1 H        0.926     0.028     2.614     2.529
   117   1 H        0.926     0.066     2.131     2.283
   118   1 H        0.926     0.056     2.242     2.341
   119   1 H        0.926     0.039     2.460     2.453

molecular dipole:
                 x           y           z       tot (Debye)
 q only:       -0.097      -0.532       0.002
   full:       -0.107      -0.621       0.044       1.606

 projected vibrational frequencies (cm⁻¹)
eigval :       -0.00    -0.00    -0.00     0.00     0.00     0.00
eigval :        5.38     8.38    12.23    16.05    17.71    19.72
eigval :       22.35    24.29    25.79    28.64    29.61    33.81
eigval :       45.32    52.22    53.36    59.31    63.54    65.52
eigval :       85.00    89.86    98.71   101.28   101.40   107.48
eigval :      117.16   121.29   138.48   139.87   141.03   141.40
eigval :      148.16   148.72   156.52   173.83   183.25   192.59
eigval :      195.97   216.45   221.13   233.29   236.77   249.83
eigval :      251.51   258.12   262.74   271.64   272.01   273.46
eigval :      275.41   282.32   291.45   306.70   312.05   331.31
eigval :      341.99   361.88   364.83   365.72   384.26   391.83
eigval :      394.43   396.07   396.40   397.49   413.56   421.57
eigval :      422.09   423.11   423.42   435.60   436.32   437.37
eigval :      439.12   442.31   453.12   485.67   506.02   512.39
eigval :      513.07   518.98   519.49   520.15   520.40   531.74
eigval :      532.37   540.51   540.66   541.16   541.32   548.31
eigval :      564.67   573.63   574.76   586.53   587.85   588.13
eigval :      590.75   594.02   599.42   615.61   619.79   621.70
eigval :      628.01   644.20   645.02   646.49   648.23   665.84
eigval :      667.57   673.25   673.65   674.14   674.42   681.33
eigval :      686.73   702.07   707.91   708.20   708.61   709.34
eigval :      734.78   749.32   749.65   756.54   757.92   764.42
eigval :      766.31   766.55   769.71   770.09   770.30   770.86
eigval :      779.16   779.80   781.18   781.55   794.24   843.69
eigval :      844.10   856.22   861.33   861.93   864.13   868.19
eigval :      868.32   869.62   870.26   877.26   878.53   879.80
eigval :      894.96   895.19   896.00   896.88   898.86   899.32
eigval :      899.75   899.89   900.44   900.76   904.77   905.45
eigval :      908.64   909.59   912.00   912.81   913.73   920.11
eigval :      920.23   922.78   923.59   924.56   925.26   926.44
eigval :      930.34   931.48   934.84   943.76   990.65   991.50
eigval :      998.60  1007.90  1011.77  1012.00  1013.59  1024.46
eigval :     1032.87  1033.23  1051.99  1067.27  1067.31  1070.86
eigval :     1071.98  1072.95  1074.10  1075.03  1075.83  1076.24
eigval :     1107.09  1110.43  1115.12  1115.74  1119.13  1121.55
eigval :     1143.95  1148.94  1149.16  1153.40  1154.69  1159.27
eigval :     1164.16  1165.35  1177.65  1177.77  1179.42  1179.95
eigval :     1180.39  1181.33  1181.44  1181.79  1181.96  1191.01
eigval :     1206.13  1207.82  1209.73  1217.00  1217.94  1232.19
eigval :     1232.21  1235.01  1235.26  1236.63  1236.83  1251.32
eigval :     1255.50  1269.29  1296.13  1296.32  1297.47  1299.45
eigval :     1301.56  1302.06  1302.54  1303.22  1324.78  1325.86
eigval :     1328.39  1332.11  1334.64  1338.84  1351.48  1357.51
eigval :     1358.08  1358.27  1358.52  1362.46  1362.63  1363.16
eigval :     1364.41  1372.98  1398.71  1402.46  1418.25  1418.61
eigval :     1426.05  1426.73  1427.00  1427.45  1431.42  1433.30
eigval :     1442.29  1456.30  1456.65  1460.81  1463.33  1472.42
eigval :     1476.33  1476.95  1478.14  1478.40  1487.55  1488.09
eigval :     1488.36  1488.53  1514.91  1525.17  1568.70  1568.84
eigval :     1570.57  1572.61  1575.64  1576.38  1576.84  1577.25
eigval :     1583.97  1589.19  1589.38  1590.09  1590.30  1594.81
eigval :     1599.37  1599.57  1600.00  1600.31  1614.41  1614.56
eigval :     1615.63  1615.89  3076.70  3077.26  3077.27  3077.82
eigval :     3077.96  3078.20  3078.81  3079.00  3082.09  3082.62
eigval :     3082.75  3083.13  3083.36  3083.98  3083.99  3085.43
eigval :     3085.62  3087.42  3089.73  3090.01  3091.28  3091.47
eigval :     3091.71  3091.85  3093.19  3094.29  3095.63  3096.39
eigval :     3096.74  3097.22  3098.20  3098.50  3099.53  3101.18
eigval :     3101.22  3104.34  3106.59  3107.82  3116.11  3118.34
eigval :     3119.47  3120.78  3123.09

   temp. (K)  partition function   enthalpy   heat capacity  entropy
                                   cal/mol     cal/K/mol   cal/K/mol   J/K/mol
 298.15  VIB  0.345E+29            34858.036    218.471    218.109
         ROT  0.307E+09              888.752      2.981     41.819
         INT  0.106E+38            35746.788    221.452    259.928
         TR   0.292E+29             1481.254      4.968     46.470
         TOT                       37228.0423   226.4202   306.3982  1281.9700

       T/K    H(0)-H(T)+PV         H(T)/Eh          T*S/Eh         G(T)/Eh
   ------------------------------------------------------------------------
    298.15    0.593267E-01    0.963462E+00    0.145580E+00    0.817882E+00
   ------------------------------------------------------------------------

         :::::::::::::::::::::::::::::::::::::::::::::::::::::
         ::                  THERMODYNAMIC                  ::
         :::::::::::::::::::::::::::::::::::::::::::::::::::::
         :: total free energy        -189.508146876691 Eh   ::
         ::.................................................::
         :: total energy             -190.326028915501 Eh   ::
         :: zero point energy           0.904135038251 Eh   ::
         :: G(RRHO) w/o ZPVE           -0.086252999440 Eh   ::
         :: G(RRHO) contrib.            0.817882038810 Eh   ::
         :::::::::::::::::::::::::::::::::::::::::::::::::::::

           -------------------------------------------------
          | TOTAL ENERGY             -190.326028915501 Eh   |
          | TOTAL ENTHALPY           -189.362567215551 Eh   |
          | TOTAL FREE ENERGY        -189.508146876691 Eh   |
          | GRADIENT NORM               0.000044198598 Eh/α |
          | HOMO-LUMO GAP               1.853709643407 eV   |
           -------------------------------------------------

 * finished run on 2025/09/08 at 22:13:12.487
