   * xtb version 6.7.1 (edcfbbe) compiled by 'albert@albert-system' on 2024-07-22

   ID    Z sym.   atoms
    1    6 C      1-5, 7-10, 12-25, 27-39, 41-44, 46-59, 61-73, 75, 76
    2    7 N      6, 11, 26, 40, 45, 60, 74
    3    1 H      77-119

          program call               : xtb data2507/gas/DDCzTrz/DDCzTrz_gas_T1_crest.xyz --gfn 2 --spinpol --tblite --uhf 2 --ohess vtight --parallel 40 --molden --ceasefiles --namespace data2507/gas/DDCzTrz/DDCzTrz_gas_T1_finalOpt
 * total energy  :  -190.2574676 Eh     change        0.1265636E-06 Eh
 * total energy  :  -190.2575193 Eh     change       -0.5170783E-04 Eh
 * total energy  :  -190.2575392 Eh     change       -0.1992240E-04 Eh
 * total energy  :  -190.2575407 Eh     change       -0.1539219E-05 Eh
 * total energy  :  -190.2575423 Eh     change       -0.1534637E-05 Eh
 * total energy  :  -190.2575440 Eh     change       -0.1688471E-05 Eh
 * total energy  :  -190.2575467 Eh     change       -0.2731630E-05 Eh
 * total energy  :  -190.2575498 Eh     change       -0.3071211E-05 Eh
 * total energy  :  -190.2575535 Eh     change       -0.3700351E-05 Eh
 * total energy  :  -190.2575567 Eh     change       -0.3233384E-05 Eh
 * total energy  :  -190.2575962 Eh     change       -0.3548556E-06 Eh
 * total energy  :  -190.2575966 Eh     change       -0.4311213E-06 Eh
 * total energy  :  -190.2575971 Eh     change       -0.4171400E-06 Eh
 * total energy  :  -190.2575978 Eh     change       -0.7309847E-06 Eh
 * total energy  :  -190.2575977 Eh     change        0.4565894E-07 Eh
 * total energy  :  -190.2575977 Eh     change        0.1766352E-08 Eh
 * total energy  :  -190.2575979 Eh     change       -0.1465262E-06 Eh
 * total energy  :  -190.2575980 Eh     change       -0.1410978E-06 Eh
 * total energy  :  -190.2575981 Eh     change       -0.5844362E-07 Eh
   *** GEOMETRY OPTIMIZATION CONVERGED AFTER 72 ITERATIONS ***

 final structure:
================
119
 xtb: 6.7.1 (edcfbbe)
C           -0.06236430297847       -8.05244163401004        0.08333049106610
C           -1.25727904066006       -7.34994137115389        0.09609852673544
C           -1.24917241714175       -5.96872582120093        0.08008458120409
C           -0.03970249995091       -5.27872101986378        0.05270203525133
C           -0.02762263162873       -3.81314353071235        0.03859343497821
N           -1.18915934712114       -3.18347548688255        0.00938891619417
C           -1.15318260787487       -1.81536823961341       -0.01664844864144
C           -2.34693195787163       -1.02222314675867       -0.04982478267507
C           -3.62998222397598       -1.56939276341064        0.07082640869346
C           -4.73177656294081       -0.73052318016600        0.12418590070310
N           -6.01570295706873       -1.27989699363600        0.26772211129458
C           -7.11264363938471       -0.98646494262166       -0.51388746257114
C           -7.20826045094228       -0.16721069474253       -1.62972441852213
C           -8.43679796567820       -0.06306596133080       -2.25295275211617
C           -9.54726707030951       -0.76415693692918       -1.78885538862778
C           -9.45229396713742       -1.60457610233593       -0.69591382995753
C           -8.22838302362638       -1.72390919895128       -0.05327681662366
C           -7.76783280855285       -2.49999018831357        1.06538060352542
C           -8.38646375641372       -3.39540929281416        1.92610960079033
C           -7.63557570679796       -3.97014597003102        2.93379479743739
C           -6.28944224297266       -3.65074502632972        3.09644938969852
C           -5.65168384273370       -2.76077710040351        2.25338774904492
C           -6.39513580876033       -2.19765522445759        1.22514098069872
C           -4.58628315418445        0.65689879288982        0.06991395158759
C           -3.30973482878281        1.20143647074281       -0.08552319465827
N           -3.10870297893727        2.58883941071863       -0.11019182045172
C           -3.81585277933366        3.51705834095076       -0.84568874405370
C           -4.84978031197991        3.33061744385247       -1.75239832717670
C           -5.36891013007050        4.44494923115487       -2.38340079437528
C           -4.86998758117181        5.72053905881022       -2.13198157773541
C           -3.82402042917459        5.91173299336756       -1.24942991974806
C           -3.28825539698557        4.80733204452708       -0.60311169864174
C           -2.20695978116226        4.63793810007182        0.32740955906416
C           -1.32831182184096        5.52267437838052        0.93530384703769
C           -0.37199058971265        5.02026059914616        1.79602510379224
C           -0.30453210826731        3.65722382017188        2.06945991808915
C           -1.18148495354418        2.75952022905226        1.49103917920907
C           -2.12356194897383        3.25302797644876        0.59783532854869
C           -2.21121838410568        0.36889020020639       -0.17371920393982
N           -0.00485513058468       -1.16453604295976        0.02345297080326
C            1.13157279917237       -1.83412217916358        0.06698491107557
C            2.33865001712169       -1.05951720682884        0.08327036240292
C            2.22587795169516        0.33304585065752        0.21034614584255
C            3.33489665578846        1.14911615628709        0.10099775154141
N            3.15495255685518        2.53925951398173        0.13229641884680
C            3.88711595044646        3.45476756722803        0.85903002674913
C            4.93441699043976        3.25034988009948        1.74626536516940
C            5.47963930716037        4.35485181289395        2.37251223519131
C            4.99346068058679        5.63806641671973        2.13523683405563
C            3.93483983252129        5.84723806808186        1.27204222130231
C            3.37285524960914        4.75300686479109        0.63069310974059
C            2.27408742057358        4.60208331304140       -0.28247912467399
C            1.39919310902091        5.50108492703822       -0.87467056930537
C            0.42419393462255        5.01518435341726       -1.72387517098491
C            0.33296251910824        3.65410136777291       -2.00019474327623
C            1.20494521111844        2.74208270999973       -1.43685448497918
C            2.16732686360737        3.21950003981362       -0.55665709367534
C            4.59933965039504        0.58596751956587       -0.08335337319300
C            4.72312682711780       -0.80329623565613       -0.14316928165468
N            5.99393288363977       -1.37174528937060       -0.32298055039105
C            7.11926191096036       -1.09226372653125        0.42266475045914
C            7.26189769048674       -0.27339937861587        1.53375346419489
C            8.51137034150065       -0.18478089102357        2.11650310872440
C            9.59693568160362       -0.90072131873406        1.61750847735697
C            9.45546204499430       -1.74076340123698        0.52934375589320
C            8.20982775971990       -1.84453726246793       -0.07295527448589
C            7.70366484183404       -2.61465056698269       -1.17588906283898
C            8.28309198742971       -3.51780503237249       -2.05563754641155
C            7.49348306620314       -4.08205735656962       -3.03933180498482
C            6.14741382016458       -3.74436756651532       -3.15984115783321
C            5.54831454701282       -2.84642596076796       -2.29708293117561
C            6.33077890252142       -2.29410841106183       -1.29218441427659
C            3.61027774466948       -1.62574670898233       -0.06383762885227
N            1.14513455395747       -3.20249688361865        0.05674347707059
C            1.15832642190720       -5.98883774766249        0.04063784646773
C            1.14385912420045       -7.37002045849121        0.05511927547592
H           -0.07118583398337       -9.13260804215108        0.09550667574462
H           -2.19653805929206       -7.88302508947971        0.11853391989225
H           -2.16974731933048       -5.40557119662971        0.08922540263089
H           -3.74881447189419       -2.64006506496731        0.11405980243019
H           -6.34549906705104        0.35748068743060       -2.01005968776539
H           -8.53711954314110        0.57122725576630       -3.12124701687674
H          -10.49163681854123       -0.65525237160289       -2.30085335271396
H          -10.30907787884819       -2.16233676609031       -0.34930800321876
H           -9.43303246885724       -3.63291661438041        1.80926165295952
H           -8.09722418632857       -4.67171895758377        3.61248957283899
H           -5.73221934209704       -4.10637251321765        3.90150993887875
H           -4.61242927633561       -2.50711638767963        2.39594914003150
H           -5.44741549216954        1.29574646258206        0.18637327341512
H           -5.23118314276407        2.34628764270041       -1.97248744662416
H           -6.17644303475010        4.32282126774725       -3.08995342098717
H           -5.30297799024178        6.56725885839177       -2.64331472647242
H           -3.42546521724511        6.89826958162226       -1.06672346182486
H           -1.39361307091068        6.58126308893481        0.73508621834003
H            0.33125707430362        5.68817685665015        2.27012727795309
H            0.44702457651125        3.29365821103612        2.75482715624756
H           -1.13747990506816        1.71041152800610        1.73972498456705
H           -1.23023557596181        0.77997569660657       -0.34452554759025
H            1.25466394765736        0.75883668931565        0.40006023979262
H            5.30613973720728        2.25984474528436        1.95513530924408
H            6.29789879457245        4.21894245782529        3.06404790439761
H            5.44675597905283        6.47666236073981        2.64235082211893
H            3.54660130260393        6.83985861213683        1.10048557834835
H            1.48217344527877        6.55795014490726       -0.67190296874826
H           -0.27561472060336        5.69460097115799       -2.18658540590706
H           -0.43350650387038        3.30367988799085       -2.67585014623894
H            1.14225027220682        1.69434366611120       -1.68742455228446
H            5.46673615173061        1.21255442980428       -0.21864653862147
H            6.41916093535110        0.26332817733846        1.94118669726625
H            8.64821837335622        0.44913128772850        2.98006549380595
H           10.55885503123182       -0.80357612907557        2.09823805299711
H           10.29314800755681       -2.30984978714293        0.15554549401094
H            9.32959675424985       -3.76908241273430       -1.97173374182003
H            7.92420987284589       -4.78939673950621       -3.73221502083343
H            5.55921492088509       -4.19176994584314       -3.94728317796701
H            4.50876165958681       -2.57855405249625       -2.40779901428690
H            3.71202046016172       -2.69803495798908       -0.11036243696942
H            2.08798944769247       -5.44113515919702        0.01974730034473
H            2.07427975481400       -7.91874338190636        0.04489509799334

 projected vibrational frequencies (cm⁻¹)
eigval :       -0.00    -0.00    -0.00     0.00     0.00     0.00
eigval :        7.66     7.96    14.79    14.87    18.25    20.00
eigval :       20.58    23.62    25.21    25.44    29.03    31.85
eigval :       51.75    52.13    59.47    64.53    64.80    79.51
eigval :       87.30    91.26   101.08   101.42   107.42   107.78
eigval :      118.49   123.90   137.60   139.64   139.86   142.79
eigval :      147.25   151.62   156.73   165.31   193.13   197.76
eigval :      207.98   216.42   217.10   227.02   231.85   250.44
eigval :      257.06   258.14   258.40   270.71   271.83   274.44
eigval :      276.10   279.30   288.20   307.69   308.96   322.04
eigval :      339.19   364.36   365.68   366.72   372.61   377.29
eigval :      392.27   393.92   395.09   395.59   412.62   421.56
eigval :      421.93   422.83   423.56   427.97   435.29   435.53
eigval :      435.90   437.19   450.18   467.62   507.58   510.16
eigval :      510.53   517.61   518.00   518.25   518.45   532.94
eigval :      533.10   538.91   539.09   539.39   539.65   543.33
eigval :      546.02   554.71   565.99   571.11   573.55   585.04
eigval :      586.92   587.02   588.82   590.86   594.70   618.58
eigval :      620.50   620.52   632.89   641.03   641.78   645.58
eigval :      653.94   657.10   664.20   665.77   674.02   674.07
eigval :      674.20   674.39   689.10   708.47   708.90   709.02
eigval :      709.24   717.00   748.04   748.95   755.01   756.37
eigval :      760.13   766.03   767.01   768.55   768.92   769.24
eigval :      769.78   770.84   777.89   778.80   779.38   780.78
eigval :      820.44   822.20   829.24   846.43   854.43   858.98
eigval :      862.25   862.40   864.29   866.98   875.31   875.60
eigval :      876.62   878.44   879.58   889.38   891.57   895.27
eigval :      895.35   899.18   899.23   900.10   900.16   903.79
eigval :      903.90   904.63   904.70   908.30   909.03   909.94
eigval :      919.29   919.33   921.84   921.93   922.65   922.73
eigval :      925.58   926.91   927.03   929.84   933.15   980.47
eigval :      982.65   989.01   992.96  1002.16  1011.34  1011.67
eigval :     1012.94  1015.44  1030.16  1030.53  1065.70  1065.76
eigval :     1069.58  1069.70  1071.89  1072.10  1074.25  1075.28
eigval :     1075.57  1090.70  1108.35  1109.17  1114.75  1118.26
eigval :     1121.33  1125.28  1145.18  1145.38  1149.76  1149.91
eigval :     1157.41  1162.80  1163.25  1176.49  1176.65  1177.61
eigval :     1178.03  1180.31  1180.48  1180.51  1180.54  1181.03
eigval :     1187.86  1192.99  1204.14  1213.57  1216.67  1229.33
eigval :     1229.92  1232.78  1233.58  1234.78  1235.00  1236.18
eigval :     1244.30  1265.54  1278.77  1291.34  1293.96  1294.20
eigval :     1295.49  1296.83  1297.72  1298.23  1302.51  1324.66
eigval :     1326.79  1328.51  1328.89  1331.30  1341.75  1348.47
eigval :     1350.15  1354.03  1354.55  1355.76  1356.15  1358.58
eigval :     1358.85  1359.99  1361.98  1365.02  1385.25  1399.39
eigval :     1412.79  1414.18  1417.25  1419.59  1420.22  1420.77
eigval :     1423.93  1437.17  1438.99  1443.26  1445.69  1448.32
eigval :     1464.90  1468.94  1469.97  1470.56  1470.62  1476.50
eigval :     1486.15  1486.47  1486.58  1486.76  1521.85  1524.28
eigval :     1538.91  1561.64  1570.36  1570.45  1571.30  1571.85
eigval :     1583.83  1584.47  1585.33  1586.82  1586.90  1589.85
eigval :     1590.06  1590.27  1590.45  1593.73  1604.21  1608.62
eigval :     1609.52  1610.51  3074.37  3078.13  3078.42  3078.77
eigval :     3078.82  3079.16  3079.19  3079.38  3079.41  3080.08
eigval :     3084.01  3084.07  3084.42  3084.46  3085.47  3085.53
eigval :     3086.10  3086.27  3089.22  3091.75  3091.85  3092.40
eigval :     3093.24  3093.35  3093.99  3094.74  3095.35  3097.67
eigval :     3097.74  3097.88  3098.17  3098.55  3098.81  3099.72
eigval :     3100.40  3102.83  3103.30  3105.92  3106.13  3112.35
eigval :     3112.79  3120.50  3122.40

   temp. (K)  partition function   enthalpy   heat capacity  entropy
                                   cal/mol     cal/K/mol   cal/K/mol   J/K/mol
 298.15  VIB  0.207E+29            35103.206    221.308    218.601
         ROT  0.291E+09              888.752      2.981     41.713
         INT  0.603E+37            35991.958    224.289    260.315
         TR   0.292E+29             1481.254      4.968     46.470
         TOT                       37473.2119   229.2570   306.7846  1283.5868

       T/K    H(0)-H(T)+PV         H(T)/Eh          T*S/Eh         G(T)/Eh
   ------------------------------------------------------------------------
    298.15    0.597174E-01    0.958537E+00    0.145763E+00    0.812774E+00
   ------------------------------------------------------------------------

         :::::::::::::::::::::::::::::::::::::::::::::::::::::
         ::                  THERMODYNAMIC                  ::
         :::::::::::::::::::::::::::::::::::::::::::::::::::::
         :: total free energy        -189.444824535033 Eh   ::
         ::.................................................::
         :: total energy             -190.257598154659 Eh   ::
         :: zero point energy           0.898819519693 Eh   ::
         :: G(RRHO) w/o ZPVE           -0.086045900068 Eh   ::
         :: G(RRHO) contrib.            0.812773619626 Eh   ::
         :::::::::::::::::::::::::::::::::::::::::::::::::::::

           -------------------------------------------------
          | TOTAL ENERGY             -190.257598154659 Eh   |
          | TOTAL ENTHALPY           -189.299061270603 Eh   |
          | TOTAL FREE ENERGY        -189.444824535033 Eh   |
          | GRADIENT NORM               0.000123646658 Eh/α |
           -------------------------------------------------

 * finished run on 2025/09/08 at 22:43:05.331
