   * xtb version 6.7.1 (edcfbbe) compiled by 'albert@albert-system' on 2024-07-22

   ID    Z sym.   atoms
    1    6 C      1-5, 7-10, 12-25, 27-39, 41-44, 46-59, 61-73, 75, 76
    2    7 N      6, 11, 26, 40, 45, 60, 74
    3    1 H      77-119

          program call               : xtb data2507/gas/DDCzTrz/DDCzTrz_gas_S0_finalOpt.xtbopt.xyz --gfn 2 --spinpol --tblite --uhf 2 --ohess vtight --parallel 40 --molden --ceasefiles --namespace data2507/gas/DDCzTrz/DDCzTrz_gas_T1_preOpt
 * total energy  :  -190.2526887 Eh     change       -0.2719710E-07 Eh
 * total energy  :  -190.2549348 Eh     change       -0.2246044E-02 Eh
 * total energy  :  -190.2564219 Eh     change       -0.1487115E-02 Eh
 * total energy  :  -190.2566056 Eh     change       -0.1837075E-03 Eh
 * total energy  :  -190.2567544 Eh     change       -0.1487988E-03 Eh
 * total energy  :  -190.2567693 Eh     change       -0.1485647E-04 Eh
 * total energy  :  -190.2567844 Eh     change       -0.1512936E-04 Eh
 * total energy  :  -190.2567914 Eh     change       -0.6988819E-05 Eh
 * total energy  :  -190.2568060 Eh     change       -0.1462617E-04 Eh
 * total energy  :  -190.2568181 Eh     change       -0.1204831E-04 Eh
 * total energy  :  -190.2570351 Eh     change       -0.1999269E-05 Eh
 * total energy  :  -190.2570372 Eh     change       -0.2086379E-05 Eh
 * total energy  :  -190.2570388 Eh     change       -0.1593037E-05 Eh
 * total energy  :  -190.2570400 Eh     change       -0.1208570E-05 Eh
 * total energy  :  -190.2570411 Eh     change       -0.1085703E-05 Eh
 * total energy  :  -190.2570422 Eh     change       -0.1130398E-05 Eh
 * total energy  :  -190.2570433 Eh     change       -0.1033803E-05 Eh
 * total energy  :  -190.2570432 Eh     change        0.7153821E-07 Eh
 * total energy  :  -190.2570432 Eh     change       -0.4175473E-07 Eh
   *** GEOMETRY OPTIMIZATION CONVERGED AFTER 69 ITERATIONS ***

 final structure:
================
119
 xtb: 6.7.1 (edcfbbe)
C           -0.02265981578254       -7.96335182958599        0.37565507890437
C            1.18137907853363       -7.27685431886803        0.40322317702873
C            1.19278973646780       -5.89616537023579        0.36480375352753
C           -0.00610956942233       -5.19058992184949        0.29779154722579
C            0.00161317878730       -3.72605911565395        0.25261511608374
N           -1.16474837927314       -3.10022721093320        0.19650286221559
C           -1.13403278866231       -1.73538339042925        0.11353359483816
C           -2.34751763779603       -0.97276977105342        0.00344779281159
C           -3.60727849264387       -1.54955665499719        0.19412686760821
C           -4.74534485951098       -0.76176138278457        0.11661296648573
N           -6.00593445603536       -1.34561254456151        0.31133901060785
C           -6.45942123474203       -2.49488867041113       -0.30347762239642
C           -5.84288216150857       -3.28742439604576       -1.26221558292022
C           -6.53703989913452       -4.38519661744936       -1.73408382674446
C           -7.81761694189696       -4.68821528299155       -1.27712666346615
C           -8.44593189423110       -3.88938803700745       -0.34110479160301
C           -7.76793894961581       -2.78249384445559        0.14967800543477
C           -8.10762481686636       -1.75310630822954        1.09315019646573
C           -9.22800709435738       -1.50660611098442        1.87373971603115
C           -9.21853830733188       -0.41293812752690        2.71804131346779
C           -8.10405583951897        0.41833822219405        2.80060083666890
C           -6.97704722360854        0.19351847007605        2.03314284664161
C           -6.99030553110217       -0.88815178318109        1.16303216341917
C           -4.65070179525042        0.60757543596381       -0.13163962341167
C           -3.39321467668320        1.18248360969443       -0.32381135711648
N           -3.26430999254539        2.55809566269516       -0.56221942376065
C           -3.99893822886110        3.30659817833868       -1.45839283043271
C           -4.97549261341694        2.90355594855217       -2.35916439608522
C           -5.54045198069875        3.86680743504684       -3.17328748694259
C           -5.14327577855885        5.20012588135598       -3.10652442755353
C           -4.15368251482032        5.60328797896561       -2.23053465282851
C           -3.57125591839917        4.65416421812824       -1.40283906517039
C           -2.52291856743020        4.70947537882096       -0.42161400020138
C           -1.74120923668119        5.73988541666623        0.07968355334356
C           -0.79732904931638        5.44589399601237        1.04484272935502
C           -0.64170411056759        4.14702331267380        1.52006990605440
C           -1.42069484062018        3.10760064378512        1.04884567728730
C           -2.35552126246379        3.39129579073747        0.06193528467181
C           -2.25726267447697        0.39701339138414       -0.27716590394557
N            0.00323895376538       -1.07219086305256        0.13653519860771
C            1.14552759751205       -1.73766383009832        0.22596560053316
C            2.35450347441862       -0.97229650817311        0.24025216507214
C            2.26288582501817        0.42660987311992        0.31766340955138
C            3.39312938437983        1.21547276771775        0.23102577121062
N            3.25247634701560        2.61095261886002        0.23060267580080
C            3.99412075870525        3.51383178561392        0.96324117478298
C            4.98840512527934        3.28788370677596        1.90480940372516
C            5.55841686889069        4.38437742467492        2.52272792154528
C            5.14720157977954        5.68106325701855        2.22445428266347
C            4.13933647083214        5.91299962258118        1.30774281307029
C            3.55343746489979        4.82692201654068        0.67397457718776
C            2.49065614523762        4.69788464855168       -0.28466417829001
C            1.69262396419777        5.61662852613919       -0.94980049741949
C            0.73977938819064        5.14849385242704       -1.83433298823352
C            0.59149932681598        3.78471709462356       -2.06871336997840
C            1.38654845859763        2.85168553947037       -1.43083665601264
C            2.33011708701871        3.31305991045125       -0.52211499990217
C            4.65275507887213        0.62482673809926        0.10435305841089
C            4.75139545325642       -0.76748609703283        0.08101698853285
N            6.01499232937302       -1.36545138249766       -0.05007942940860
C            7.12560713889686       -1.09406334982807        0.71966894280950
C            7.25644632312143       -0.25491584306128        1.81703404411396
C            8.49146767452754       -0.18062963630289        2.43168420547350
C            9.57406785347381       -0.93004195354027        1.97740850974562
C            9.44358004172302       -1.78949775324119        0.90300026677462
C            8.21268321685486       -1.87934012758562        0.26919490352333
C            7.71966875487641       -2.66124807462521       -0.83143028598654
C            8.30253650381624       -3.59406277164665       -1.67720249585465
C            7.52715807352129       -4.16150593030074       -2.67046774465903
C            6.19217687584477       -3.79853561354199       -2.83349736950461
C            5.58988994258216       -2.87095465823727       -2.00500943417961
C            6.35750834781096       -2.31437094743734       -0.99096249743775
C            3.62125046531099       -1.56495086968324        0.14993822123205
N            1.16454955508303       -3.10655049512165        0.26465987530557
C           -1.21333254258974       -5.88467072465558        0.26934177851783
C           -1.21840311938423       -7.26544132364625        0.30872153380492
H           -0.02897706841572       -9.04316460840711        0.40622249224843
H            2.11242259993384       -7.82215454698038        0.45496193960268
H            2.12058093668736       -5.34531435145774        0.38596995102265
H           -3.67823664943067       -2.59843323353771        0.43298808889504
H           -4.85729959302496       -3.05223445842596       -1.63387741449424
H           -6.07708628589940       -5.02070811828732       -2.47632670869990
H           -8.32621349128400       -5.55644758979809       -1.66892594377968
H           -9.44407991363845       -4.11611414711432        0.00193209741691
H          -10.08488664220532       -2.16123205733943        1.82301683519373
H          -10.08108232359725       -0.20203191308486        3.33239278560491
H           -8.11875264956341        1.25535644147946        3.48287248474769
H           -6.11116814728257        0.83174382092638        2.12168368156239
H           -5.54122651512500        1.21417698126962       -0.17216063018679
H           -5.27534054145299        1.86972455646085       -2.43684194763184
H           -6.30364915746899        3.57775065413047       -3.88055557829271
H           -5.61049642437992        5.92325882651352       -3.75820040475342
H           -3.83343213026070        6.63349698621121       -2.19139074149073
H           -1.87278927673132        6.74980883532042       -0.27812911723197
H           -0.17424247268292        6.23118690491242        1.44504004385671
H            0.10048263286967        3.94889092210388        2.27926114140094
H           -1.31072068902131        2.11129030706459        1.44847554487178
H           -1.28811514044961        0.82538898661251       -0.47287470742711
H            1.29288757592437        0.87449135513434        0.45724172861078
H            5.29908875606174        2.28747250785623        2.16076038125683
H            6.33636731385901        4.23178699212007        3.25601027887806
H            5.61793977393163        6.51292066959973        2.72669118923816
H            3.80827373052575        6.91714538712975        1.08991002270038
H            1.81855557150940        6.67500261890252       -0.77907997892578
H            0.10448298974897        5.84525191860736       -2.35955250896088
H           -0.15718887348837        3.44911516081923       -2.77107845130734
H            1.28324343628017        1.79969374002444       -1.64738776855163
H            5.53546077299176        1.23282071729203       -0.01553243074006
H            6.41523430417357        0.30850892857246        2.18980990572722
H            8.61895177024360        0.46839429943474        3.28538510819369
H           10.52459723246782       -0.84348849761510        2.48221667324488
H           10.27842049931417       -2.38393980953187        0.56387218508039
H            9.34080843953896       -3.86554501882282       -1.56034551653080
H            7.96084072075151       -4.89149658836290       -3.33754286421701
H            5.61550807573540       -4.24964859398031       -3.62732079806953
H            4.55941028913973       -2.58403425149188       -2.14801468005309
H            3.70274703220593       -2.63990059217460        0.13891583755476
H           -2.13478732644069       -5.32529210343175        0.21574452593565
H           -2.15594401618977       -7.80157447117895        0.28713663115732

 projected vibrational frequencies (cm⁻¹)
eigval :       -0.00    -0.00    -0.00     0.00     0.00     0.00
eigval :        7.34     7.66    13.77    14.87    17.96    20.78
eigval :       21.68    22.96    24.41    25.53    27.34    31.21
eigval :       51.52    53.29    57.93    63.66    66.93    80.11
eigval :       87.58    92.01   100.77   102.65   107.06   107.45
eigval :      118.40   123.22   138.28   139.85   140.30   143.22
eigval :      147.15   151.86   158.28   165.77   192.25   197.18
eigval :      208.11   215.68   223.41   227.44   240.44   246.62
eigval :      252.44   255.27   258.26   270.91   271.71   272.91
eigval :      275.64   280.43   290.05   305.95   310.81   322.46
eigval :      333.86   362.04   365.69   367.29   371.45   375.56
eigval :      392.21   394.33   395.40   396.28   412.65   421.30
eigval :      422.56   422.76   423.24   428.73   435.13   435.95
eigval :      436.89   437.02   453.01   465.37   507.91   508.77
eigval :      510.05   517.12   517.90   518.07   518.29   531.61
eigval :      536.71   538.86   539.22   539.45   540.13   541.84
eigval :      545.46   550.88   557.79   570.04   576.01   585.80
eigval :      586.81   587.19   588.33   591.33   602.38   618.16
eigval :      621.00   621.57   632.96   633.98   641.24   645.58
eigval :      654.50   662.17   663.72   665.96   674.11   674.33
eigval :      674.42   675.03   688.61   708.56   708.99   709.16
eigval :      709.42   716.13   747.49   749.43   754.96   756.34
eigval :      759.59   766.06   768.49   768.90   768.96   769.57
eigval :      770.21   771.47   777.80   779.84   780.23   781.73
eigval :      819.15   826.79   828.40   846.03   855.98   857.24
eigval :      861.48   864.01   867.09   872.27   875.13   876.16
eigval :      877.46   878.35   881.96   888.15   890.34   895.28
eigval :      896.56   898.41   899.19   899.85   903.37   903.82
eigval :      904.51   904.91   905.30   905.91   908.83   909.54
eigval :      919.11   921.87   921.97   922.50   923.01   923.29
eigval :      924.31   925.64   926.67   929.83   933.00   977.09
eigval :      983.75   987.85   994.28  1002.01  1011.33  1011.61
eigval :     1012.60  1015.66  1030.27  1031.27  1065.54  1069.52
eigval :     1069.65  1070.62  1071.90  1072.98  1073.74  1074.72
eigval :     1074.90  1089.75  1109.16  1110.16  1116.20  1118.43
eigval :     1121.04  1125.62  1144.73  1148.92  1149.29  1149.74
eigval :     1157.78  1162.17  1162.97  1176.30  1176.89  1177.70
eigval :     1179.43  1180.22  1180.33  1180.47  1180.86  1181.50
eigval :     1187.61  1192.23  1204.16  1214.28  1217.07  1229.20
eigval :     1232.43  1233.33  1234.07  1234.68  1234.96  1235.70
eigval :     1244.29  1265.27  1275.42  1291.40  1293.53  1294.62
eigval :     1295.25  1297.01  1297.52  1298.18  1300.77  1323.69
eigval :     1326.21  1327.86  1328.95  1330.44  1342.57  1348.03
eigval :     1351.21  1353.75  1355.49  1356.12  1356.50  1358.31
eigval :     1359.06  1360.72  1362.13  1371.67  1386.48  1399.51
eigval :     1412.45  1415.44  1416.72  1419.30  1420.44  1421.30
eigval :     1423.65  1437.09  1439.81  1444.72  1445.47  1449.22
eigval :     1464.43  1468.68  1469.56  1470.36  1470.78  1476.14
eigval :     1485.88  1486.24  1486.41  1486.52  1518.87  1528.39
eigval :     1538.49  1559.40  1569.97  1570.40  1570.66  1571.71
eigval :     1583.56  1584.22  1584.43  1586.30  1586.63  1588.88
eigval :     1589.59  1589.70  1590.33  1593.44  1604.65  1607.83
eigval :     1610.12  1611.06  3074.44  3078.35  3078.75  3078.79
eigval :     3078.87  3079.26  3079.29  3079.60  3079.87  3080.11
eigval :     3083.57  3083.59  3084.20  3084.63  3084.97  3085.35
eigval :     3085.69  3086.77  3089.29  3091.15  3091.85  3092.15
eigval :     3092.80  3092.87  3093.65  3094.65  3095.62  3096.99
eigval :     3097.48  3097.68  3097.78  3098.46  3098.85  3099.01
eigval :     3099.52  3100.38  3102.94  3106.06  3108.92  3112.47
eigval :     3113.42  3118.28  3119.61

   temp. (K)  partition function   enthalpy   heat capacity  entropy
                                   cal/mol     cal/K/mol   cal/K/mol   J/K/mol
 298.15  VIB  0.244E+29            35101.823    221.264    218.681
         ROT  0.298E+09              888.752      2.981     41.755
         INT  0.727E+37            35990.576    224.245    260.436
         TR   0.292E+29             1481.254      4.968     46.470
         TOT                       37471.8296   229.2135   306.9059  1284.0943

       T/K    H(0)-H(T)+PV         H(T)/Eh          T*S/Eh         G(T)/Eh
   ------------------------------------------------------------------------
    298.15    0.597152E-01    0.958568E+00    0.145821E+00    0.812747E+00
   ------------------------------------------------------------------------

         :::::::::::::::::::::::::::::::::::::::::::::::::::::
         ::                  THERMODYNAMIC                  ::
         :::::::::::::::::::::::::::::::::::::::::::::::::::::
         :: total free energy        -189.444296592142 Eh   ::
         ::.................................................::
         :: total energy             -190.257043295324 Eh   ::
         :: zero point energy           0.898852437756 Eh   ::
         :: G(RRHO) w/o ZPVE           -0.086105734575 Eh   ::
         :: G(RRHO) contrib.            0.812746703182 Eh   ::
         :::::::::::::::::::::::::::::::::::::::::::::::::::::

           -------------------------------------------------
          | TOTAL ENERGY             -190.257043295324 Eh   |
          | TOTAL ENTHALPY           -189.298475696088 Eh   |
          | TOTAL FREE ENERGY        -189.444296592142 Eh   |
          | GRADIENT NORM               0.000112850560 Eh/α |
           -------------------------------------------------

 * finished run on 2025/09/08 at 22:23:11.849
