   * xtb version 6.7.1 (edcfbbe) compiled by 'albert@albert-system' on 2024-07-22

   ID    Z sym.   atoms
    1    6 C      1-28
    2    1 H      29-56

          program call               : xtb data2507/toluene/HPVAnt/HPVAnt.xyz --gfn 2 --gbsa toluene --ohess vtight --parallel 40 --molden --ceasefiles --namespace data2507/toluene/HPVAnt/HPVAnt_toluene_S0_preOpt
      * Solvation model:               GBSA
        Solvent                        toluene
        Solvent mass                       9.2140E+01 g/mol
          :  Hamiltonian                  GFN2-xTB          :
 * total energy  :   -74.2468877 Eh     change       -0.3705367E-08 Eh
 * total energy  :   -74.2535730 Eh     change       -0.6685367E-02 Eh
 * total energy  :   -74.2553150 Eh     change       -0.1741937E-02 Eh
 * total energy  :   -74.2558405 Eh     change       -0.5255598E-03 Eh
 * total energy  :   -74.2564584 Eh     change       -0.6178445E-03 Eh
 * total energy  :   -74.2567590 Eh     change       -0.3006309E-03 Eh
 * total energy  :   -74.2571143 Eh     change       -0.3553434E-03 Eh
 * total energy  :   -74.2573356 Eh     change       -0.2212249E-03 Eh
 * total energy  :   -74.2575081 Eh     change       -0.1725264E-03 Eh
 * total energy  :   -74.2576406 Eh     change       -0.1325425E-03 Eh
 * total energy  :   -74.2583019 Eh     change       -0.2539856E-06 Eh
 * total energy  :   -74.2583021 Eh     change       -0.1807152E-06 Eh
 * total energy  :   -74.2583023 Eh     change       -0.1936543E-06 Eh
 * total energy  :   -74.2583025 Eh     change       -0.1997667E-06 Eh
 * total energy  :   -74.2583027 Eh     change       -0.2189105E-06 Eh
 * total energy  :   -74.2583029 Eh     change       -0.1930431E-06 Eh
 * total energy  :   -74.2583031 Eh     change       -0.1548703E-06 Eh
 * total energy  :   -74.2583032 Eh     change       -0.1703160E-06 Eh
 * total energy  :   -74.2583032 Eh     change       -0.1700585E-08 Eh
   *** GEOMETRY OPTIMIZATION CONVERGED AFTER 68 ITERATIONS ***

 final structure:
================
56
 xtb: 6.7.1 (edcfbbe)
C           -9.39429554497550       -1.53228283140674       -0.14420677499970
C           -8.28946097031986       -0.76153284638007        0.57039465300975
C           -8.08956903016554        0.62698868929710       -0.03439905347981
C           -7.07870450333551        1.48871075056415        0.72535203916762
C           -5.64557481625556        0.95376715470467        0.73749469048539
C           -5.01461859032867        0.87656558736625       -0.65932819190911
C           -3.56996568652838        0.48347758363953       -0.56220871673888
C           -3.19049924903425       -0.85400116615595       -0.57329796745057
C           -1.86450226297506       -1.21488153626132       -0.45077334868661
C           -0.85903900552024       -0.25212035777642       -0.31303522786870
C            0.51782199330949       -0.69285929660221       -0.19901645691303
C            1.60684898513015        0.09016581095256       -0.14764932632813
C            2.98454376402140       -0.34793486326821       -0.04986068998279
C            3.34940418533599       -1.71981894952605        0.07131064208852
C            4.65028517575442       -2.09944287740305        0.14787538379046
C            5.70300801235803       -1.14688486595952        0.11042625069830
C            7.04238724718699       -1.51141593605758        0.17983827733730
C            8.06015146759595       -0.55961093376007        0.13846877350540
C            9.43077562794669       -0.91698076431797        0.20266795433270
C           10.40491232344599        0.03360799623803        0.15717423640936
C           10.06598552938653        1.39944255183852        0.04772852530236
C            8.76128366970762        1.78337211541516       -0.01512807458209
C            7.71599147405943        0.82472628524203        0.02623345738810
C            6.37363207528022        1.18884584045962       -0.04116828920805
C            5.35621493336863        0.23670810613063       -0.00374275993860
C            3.99039554349994        0.59134309408871       -0.07916820659936
C           -1.24814163803134        1.09047383781080       -0.29658112585712
C           -2.57583456447096        1.44567394019645       -0.41685336318527
H           -9.52005121811659       -2.51928394502767        0.29633510682799
H          -10.34125840300154       -1.00078969262563       -0.07077997268673
H           -9.15359630662241       -1.65554136462987       -1.19857411378924
H           -7.36120756402276       -1.33165942453410        0.50554908202550
H           -8.54430524015634       -0.65991368829005        1.62837290959170
H           -7.78301510924720        0.52734329697986       -1.07731855597156
H           -9.05020441066657        1.14955705675078       -0.02921547213519
H           -7.41515841949691        1.59060320404334        1.76072946927574
H           -7.07445328437767        2.48841455394999        0.28218311889882
H           -5.03634348477298        1.61777378864720        1.35679176847397
H           -5.61815205343519       -0.03409755229142        1.20020021818158
H           -5.55136795517977        0.14318195313265       -1.26247999329257
H           -5.10198772820394        1.85231635025377       -1.14267472152633
H           -3.94467276223672       -1.62094672315355       -0.68427229719626
H           -1.59410380905573       -2.26209880655943       -0.46601228710200
H            0.63436562318901       -1.76843110222729       -0.16889881767117
H            1.48833097349064        1.16490769986876       -0.19471134762694
H            2.57445446739991       -2.46976599826254        0.10564008403919
H            4.91095257005791       -3.14493360451904        0.23939758191945
H            7.30221498016865       -2.55800525601942        0.26568023657024
H            9.68492226721912       -1.96445520619523        0.28717775265403
H           11.44730468540702       -0.24731836512013        0.20502203002227
H           10.85607057005020        2.13597169523181        0.01440450107044
H            8.49631532312654        2.82820460365871       -0.09889296422872
H            6.11440337541266        2.23555471723202       -0.12663511269749
H            3.74344015483314        1.64104550615342       -0.16768941127807
H           -0.50623754788139        1.86656441451611       -0.18534922944058
H           -2.85009383932681        2.49169676996513       -0.40252887269779

          :  Hamiltonian                  GFN2-xTB          :
         :: gradient norm              0.000037534829 Eh/a0 ::
         :: HOMO-LUMO gap              2.023285265977 eV    ::
         :: SCC energy               -75.632817722064 Eh    ::
         :: -> dispersion             -0.057876850924 Eh    ::
         :: -> Gsolv                  -0.031682539380 Eh    ::
         :: repulsion energy           1.374514492307 Eh    ::

    * Orbital Energies and Occupations

         #    Occupation            Energy/Eh            Energy/eV
      -------------------------------------------------------------
         1        2.0000           -0.6499228             -17.6853
       ...           ...                  ...                  ...
        58        2.0000           -0.4244852             -11.5508
        59        2.0000           -0.4234788             -11.5234
        60        2.0000           -0.4191512             -11.4057
        61        2.0000           -0.4178305             -11.3697
        62        2.0000           -0.4159596             -11.3188
        63        2.0000           -0.4126867             -11.2298
        64        2.0000           -0.4113411             -11.1932
        65        2.0000           -0.4085145             -11.1162
        66        2.0000           -0.4050607             -11.0223
        67        2.0000           -0.4007723             -10.9056
        68        2.0000           -0.3990467             -10.8586
        69        2.0000           -0.3735910             -10.1659
        70        2.0000           -0.3566383              -9.7046 (HOMO)
        71                         -0.2822839              -7.6813 (LUMO)
        72                         -0.2574280              -7.0050
        73                         -0.2233772              -6.0784
        74                         -0.2179472              -5.9306
        75                         -0.2144372              -5.8351
        76                         -0.1831032              -4.9825
        77                         -0.1732172              -4.7135
        78                         -0.1441044              -3.9213
        79                         -0.0919926              -2.5032
        80                         -0.0716979              -1.9510
        81                         -0.0378308              -1.0294
       ...                                ...                  ...
       140                          0.7202837              19.5999
      -------------------------------------------------------------
                  HL-Gap            0.0743544 Eh            2.0233 eV

     #   Z          covCN         q      C6AA      α(0)
     1   6 C        3.752    -0.101    22.495     6.764
     2   6 C        3.800    -0.052    21.512     6.604
     3   6 C        3.801    -0.058    21.625     6.621
     4   6 C        3.800    -0.057    21.605     6.618
     5   6 C        3.803    -0.051    21.495     6.601
     6   6 C        3.807    -0.062    21.690     6.630
     7   6 C        2.970     0.011    27.758     8.642
     8   6 C        2.922    -0.040    28.994     8.830
     9   6 C        2.927    -0.037    28.931     8.821
    10   6 C        2.969     0.007    27.854     8.657
    11   6 C        2.901    -0.039    28.968     8.825
    12   6 C        2.902    -0.042    29.031     8.835
    13   6 C        2.965     0.012    27.735     8.638
    14   6 C        2.917    -0.035    28.874     8.812
    15   6 C        2.913    -0.037    28.929     8.820
    16   6 C        2.982     0.009    27.819     8.652
    17   6 C        2.920    -0.044    29.090     8.845
    18   6 C        2.982     0.010    27.787     8.647
    19   6 C        2.916    -0.036    28.901     8.816
    20   6 C        2.914    -0.031    28.778     8.797
    21   6 C        2.914    -0.031    28.775     8.796
    22   6 C        2.916    -0.036    28.904     8.816
    23   6 C        2.982     0.010    27.783     8.646
    24   6 C        2.921    -0.044    29.104     8.847
    25   6 C        2.979     0.009    27.801     8.649
    26   6 C        2.928    -0.043    29.066     8.841
    27   6 C        2.922    -0.037    28.910     8.817
    28   6 C        2.923    -0.040    28.993     8.830
    29   1 H        0.925     0.032     2.560     2.502
    30   1 H        0.925     0.032     2.563     2.503
    31   1 H        0.925     0.032     2.555     2.500
    32   1 H        0.924     0.031     2.574     2.509
    33   1 H        0.924     0.027     2.623     2.533
    34   1 H        0.924     0.033     2.550     2.497
    35   1 H        0.924     0.029     2.602     2.522
    36   1 H        0.924     0.030     2.584     2.514
    37   1 H        0.924     0.031     2.579     2.511
    38   1 H        0.924     0.029     2.604     2.524
    39   1 H        0.924     0.033     2.546     2.495
    40   1 H        0.924     0.041     2.435     2.440
    41   1 H        0.924     0.037     2.483     2.464
    42   1 H        0.925     0.029     2.595     2.519
    43   1 H        0.925     0.028     2.608     2.526
    44   1 H        0.925     0.035     2.520     2.482
    45   1 H        0.925     0.034     2.532     2.488
    46   1 H        0.926     0.034     2.535     2.490
    47   1 H        0.925     0.031     2.568     2.506
    48   1 H        0.925     0.032     2.555     2.500
    49   1 H        0.926     0.031     2.569     2.507
    50   1 H        0.926     0.030     2.584     2.514
    51   1 H        0.926     0.030     2.584     2.514
    52   1 H        0.926     0.031     2.569     2.507
    53   1 H        0.925     0.032     2.557     2.500
    54   1 H        0.925     0.031     2.575     2.509
    55   1 H        0.926     0.031     2.571     2.507
    56   1 H        0.925     0.030     2.588     2.515

molecular dipole:
                 x           y           z       tot (Debye)
 q only:       -0.442       0.059      -0.006
   full:       -0.419       0.057       0.003       1.074

 projected vibrational frequencies (cm⁻¹)
eigval :       -0.00    -0.00    -0.00     0.00     0.00     0.00
eigval :        5.60    16.12    21.50    31.02    37.08    39.03
eigval :       54.44    70.74    85.16    92.32   107.41   138.25
eigval :      161.07   176.83   192.85   211.58   219.42   233.31
eigval :      242.70   257.46   290.31   312.20   332.38   348.89
eigval :      361.92   371.83   387.72   390.67   419.33   433.30
eigval :      449.87   466.42   480.90   490.04   501.60   518.42
eigval :      553.35   584.78   590.54   595.63   611.87   655.91
eigval :      684.79   701.10   728.47   747.61   756.14   772.35
eigval :      779.63   788.93   800.14   804.47   812.48   822.88
eigval :      849.06   850.30   862.66   864.02   865.19   867.56
eigval :      872.76   872.96   888.36   893.93   911.77   913.01
eigval :      914.78   923.80   925.03   933.04   965.00   973.42
eigval :      987.69  1017.56  1031.87  1037.66  1069.51  1087.01
eigval :     1099.40  1126.40  1138.89  1141.74  1146.36  1163.14
eigval :     1167.86  1168.31  1178.67  1180.79  1197.60  1203.21
eigval :     1219.75  1222.93  1248.91  1251.47  1255.37  1266.67
eigval :     1268.99  1280.21  1284.37  1286.66  1290.99  1294.18
eigval :     1309.11  1310.50  1324.43  1330.35  1339.70  1345.97
eigval :     1353.36  1359.58  1372.90  1409.39  1413.92  1414.28
eigval :     1419.22  1436.60  1446.62  1474.73  1481.35  1484.59
eigval :     1493.13  1495.34  1497.08  1499.93  1502.24  1504.83
eigval :     1529.60  1541.41  1566.32  1577.05  1587.57  1600.30
eigval :     1618.33  1639.28  2950.95  2953.07  2957.33  2963.72
eigval :     2969.29  2972.09  2983.94  2985.35  2990.35  2993.07
eigval :     3021.15  3023.46  3030.83  3051.48  3055.89  3057.28
eigval :     3059.85  3061.10  3061.78  3062.81  3063.25  3064.21
eigval :     3066.65  3070.67  3072.98  3083.99  3088.06  3093.67

   temp. (K)  partition function   enthalpy   heat capacity  entropy
                                   cal/mol     cal/K/mol   cal/K/mol   J/K/mol
 298.15  VIB  0.114E+13            14379.437     88.756     90.880
         ROT  0.253E+08              888.752      2.981     36.854
         INT  0.289E+20            15268.189     91.737    127.735
         TR   0.673E+28             1481.254      4.968     43.554
         TOT                       16749.4434    96.7052   171.2882   716.6699

       T/K    H(0)-H(T)+PV         H(T)/Eh          T*S/Eh         G(T)/Eh
   ------------------------------------------------------------------------
    298.15    0.266919E-01    0.493007E+00    0.813846E-01    0.411623E+00
   ------------------------------------------------------------------------

         :::::::::::::::::::::::::::::::::::::::::::::::::::::
         ::                  THERMODYNAMIC                  ::
         :::::::::::::::::::::::::::::::::::::::::::::::::::::
         :: total free energy         -73.846680446998 Eh   ::
         ::.................................................::
         :: total energy              -74.258303237726 Eh   ::
         :: zero point energy           0.466315407484 Eh   ::
         :: G(RRHO) w/o ZPVE           -0.054692616756 Eh   ::
         :: G(RRHO) contrib.            0.411622790728 Eh   ::
         :::::::::::::::::::::::::::::::::::::::::::::::::::::

           -------------------------------------------------
          | TOTAL ENERGY              -74.258303237726 Eh   |
          | TOTAL ENTHALPY            -73.765295893148 Eh   |
          | TOTAL FREE ENERGY         -73.846680446998 Eh   |
          | GRADIENT NORM               0.000037535231 Eh/α |
          | HOMO-LUMO GAP               2.023285262933 eV   |
           -------------------------------------------------

 * finished run on 2025/09/13 at 06:02:25.451
