   * xtb version 6.7.1 (edcfbbe) compiled by 'albert@albert-system' on 2024-07-22

   ID    Z sym.   atoms
    1    6 C      1-28
    2    1 H      29-56

          program call               : xtb data2507/toluene/HPVAnt/HPVAnt_toluene_S0_finalOpt.xtbopt.xyz --gfn 2 --uhf 2 --gbsa toluene --ohess vtight --parallel 40 --molden --ceasefiles --namespace data2507/toluene/HPVAnt/HPVAnt_toluene_T1_preOpt
      * Solvation model:               GBSA
        Solvent                        toluene
        Solvent mass                       9.2140E+01 g/mol
          :  Hamiltonian                  GFN2-xTB          :
 * total energy  :   -74.1854579 Eh     change       -0.9176318E-08 Eh
 * total energy  :   -74.1907696 Eh     change       -0.5311651E-02 Eh
 * total energy  :   -74.1920497 Eh     change       -0.1280087E-02 Eh
 * total energy  :   -74.1921334 Eh     change       -0.8368560E-04 Eh
 * total energy  :   -74.1921639 Eh     change       -0.3049317E-04 Eh
 * total energy  :   -74.1921688 Eh     change       -0.4920822E-05 Eh
 * total energy  :   -74.1921729 Eh     change       -0.4156504E-05 Eh
 * total energy  :   -74.1921757 Eh     change       -0.2796638E-05 Eh
 * total energy  :   -74.1921803 Eh     change       -0.4538678E-05 Eh
 * total energy  :   -74.1921835 Eh     change       -0.3183207E-05 Eh
 * total energy  :   -74.1923374 Eh     change       -0.6850207E-06 Eh
 * total energy  :   -74.1923380 Eh     change       -0.5580964E-06 Eh
 * total energy  :   -74.1923384 Eh     change       -0.3800439E-06 Eh
 * total energy  :   -74.1923386 Eh     change       -0.2275870E-06 Eh
 * total energy  :   -74.1923388 Eh     change       -0.2343786E-06 Eh
 * total energy  :   -74.1923391 Eh     change       -0.2880458E-06 Eh
 * total energy  :   -74.1923394 Eh     change       -0.2412343E-06 Eh
 * total energy  :   -74.1923395 Eh     change       -0.1545198E-06 Eh
 * total energy  :   -74.1923395 Eh     change       -0.3456624E-07 Eh
   *** GEOMETRY OPTIMIZATION CONVERGED AFTER 59 ITERATIONS ***

 final structure:
================
56
 xtb: 6.7.1 (edcfbbe)
C           -8.65014074595717        3.88062979860500       -0.82539964215587
C           -8.00836583229219        2.73502771679598       -0.05074986387984
C           -7.84415858077641        1.48441920571835       -0.91225801350811
C           -7.18526751217373        0.33952650598799       -0.14585866201349
C           -7.04310373216620       -0.91520836918969       -1.00354819108972
C           -6.35856580931176       -2.06428652545207       -0.24768020410910
C           -4.93323671100385       -1.73874114449808        0.08293186381965
C           -4.54718577547993       -1.38078010950515        1.37350824924022
C           -3.24031191019447       -1.05911125279685        1.65852869116439
C           -2.24386224054040       -1.07752483720020        0.66235617941608
C           -0.90435214053678       -0.73816299607430        1.01680656002730
C            0.17687256171072       -0.69473964441637        0.17202672458641
C            1.50841927409525       -0.36920168198743        0.51585783642606
C            1.93566940664677       -0.03835611168542        1.81760423765946
C            3.24258578953228        0.26160691349529        2.08737746230070
C            4.23800268343499        0.25617608077889        1.07386583387785
C            5.56301903127929        0.55412559141240        1.33213037404664
C            6.55164632116874        0.54512291909827        0.31055985208968
C            7.88793785431310        0.84350850355219        0.56940637851402
C            8.83514218039059        0.82746695557462       -0.44948744273820
C            8.45653814779530        0.51168615685084       -1.74583386787443
C            7.13667056471505        0.21065459405217       -2.03331362040059
C            6.15663998262652        0.21860159329661       -1.02325411324768
C            4.81338464518196       -0.08281168399539       -1.28416032511350
C            3.83098427456575       -0.07476488829152       -0.26302690835592
C            2.50344432542390       -0.37457261891084       -0.51300843810537
C           -2.64586797734956       -1.44239432549478       -0.63744749144683
C           -3.95438917130912       -1.76336329110394       -0.91131255545923
H           -8.75925873430577        4.75822501660086       -0.19166642025537
H           -8.03763308328356        4.15096097000679       -1.68334104579794
H           -9.63567088806935        3.59277663350524       -1.18631514498305
H           -8.62561048539579        2.49536342281157        0.81870490361030
H           -7.02834131293274        3.04969903403873        0.31669429722444
H           -8.82564807095635        1.16347280998697       -1.27103964954931
H           -7.23641321373228        1.72837192350221       -1.78736603240730
H           -7.78400631621201        0.10691975021571        0.73854557077653
H           -6.19708056469553        0.65654781234908        0.19616548073503
H           -8.03321236808319       -1.24574550114165       -1.32668861945264
H           -6.46230703334318       -0.67677448291361       -1.89731844495421
H           -6.91531076663843       -2.27114145469690        0.66850348078332
H           -6.38844015135401       -2.95891814857350       -0.87534632715360
H           -5.28755942905018       -1.35692693410996        2.16109991821715
H           -2.96458321662705       -0.78477278528745        2.66751932739353
H           -0.75575160872774       -0.49566389972437        2.06052227200223
H            0.01924187977416       -0.93109131929245       -0.87219378092328
H            1.21804621530672       -0.02182698835890        2.62381949199088
H            3.54369983660420        0.51093458455396        3.09542999353553
H            5.86735491579102        0.80257669118529        2.33966454787383
H            8.18710253315273        1.09016198934618        1.57857700906335
H            9.86605358714311        1.06178925135719       -0.22783241286939
H            9.19415139075845        0.50008211017187       -2.53545513062230
H            6.84257084861463       -0.03548258007958       -3.04374825196990
H            4.51392438217548       -0.33010342860892       -2.29279379926505
H            2.20096273308848       -0.62359540323875       -1.52078835199340
H           -1.91946497534899       -1.47682039416590       -1.43466672255996
H           -4.23345099604690       -2.04574271055421       -1.91718436528033

          :  Hamiltonian                  GFN2-xTB          :
         :: gradient norm              0.000090186040 Eh/a0 ::
         :: HOMO-LUMO gap              0.750457453862 eV    ::
         :: SCC energy               -75.549688319807 Eh    ::
         :: -> dispersion             -0.057606316501 Eh    ::
         :: -> Gsolv                  -0.031964284434 Eh    ::
         :: repulsion energy           1.357348772235 Eh    ::

    * Orbital Energies and Occupations

         #    Occupation            Energy/Eh            Energy/eV
      -------------------------------------------------------------
         1        2.0000           -0.6479600             -17.6319
       ...           ...                  ...                  ...
        59        2.0000           -0.4236630             -11.5285
        60        2.0000           -0.4210189             -11.4565
        61        2.0000           -0.4188105             -11.3964
        62        2.0000           -0.4173447             -11.3565
        63        2.0000           -0.4144853             -11.2787
        64        2.0000           -0.4127204             -11.2307
        65        2.0000           -0.4065393             -11.0625
        66        2.0000           -0.4032973             -10.9743
        67        2.0000           -0.4031829             -10.9712
        68        2.0000           -0.4008554             -10.9078
        69        2.0000           -0.3718410             -10.1183
        70        1.0000           -0.3504349              -9.5358
        71        1.0000           -0.2889749              -7.8634 (HOMO)
        72        0.0000           -0.2613962              -7.1130 (LUMO)
        73                         -0.2208739              -6.0103
        74                         -0.2187869              -5.9535
        75                         -0.2157981              -5.8722
        76                         -0.1855632              -5.0494
        77                         -0.1741361              -4.7385
        78                         -0.1448216              -3.9408
        79                         -0.0926196              -2.5203
        80                         -0.0737112              -2.0058
        81                         -0.0392499              -1.0680
        82                          0.0574231               1.5626
       ...                                ...                  ...
       140                          0.7236338              19.6911
      -------------------------------------------------------------
                  HL-Gap            0.0275787 Eh            0.7505 eV

     #   Z          covCN         q      C6AA      α(0)
     1   6 C        3.752    -0.102    22.506     6.765
     2   6 C        3.801    -0.053    21.519     6.605
     3   6 C        3.803    -0.059    21.628     6.621
     4   6 C        3.802    -0.057    21.603     6.617
     5   6 C        3.803    -0.053    21.523     6.605
     6   6 C        3.807    -0.063    21.698     6.631
     7   6 C        2.968     0.016    27.657     8.626
     8   6 C        2.919    -0.038    28.944     8.822
     9   6 C        2.926    -0.037    28.923     8.820
    10   6 C        2.967     0.011    27.770     8.644
    11   6 C        2.903    -0.040    29.003     8.830
    12   6 C        2.903    -0.039    28.968     8.825
    13   6 C        2.963     0.011    27.772     8.644
    14   6 C        2.913    -0.035    28.873     8.811
    15   6 C        2.914    -0.039    28.974     8.827
    16   6 C        2.976     0.010    27.781     8.646
    17   6 C        2.918    -0.047    29.165     8.856
    18   6 C        2.979     0.011    27.771     8.644
    19   6 C        2.918    -0.039    28.958     8.824
    20   6 C        2.914    -0.033    28.817     8.803
    21   6 C        2.913    -0.032    28.797     8.800
    22   6 C        2.919    -0.039    28.979     8.828
    23   6 C        2.976     0.012    27.751     8.641
    24   6 C        2.919    -0.048    29.201     8.861
    25   6 C        2.972     0.011    27.763     8.643
    26   6 C        2.925    -0.045    29.114     8.849
    27   6 C        2.919    -0.036    28.893     8.815
    28   6 C        2.920    -0.037    28.927     8.820
    29   1 H        0.925     0.033     2.544     2.494
    30   1 H        0.925     0.033     2.543     2.494
    31   1 H        0.925     0.034     2.536     2.490
    32   1 H        0.924     0.029     2.607     2.525
    33   1 H        0.924     0.028     2.616     2.529
    34   1 H        0.924     0.030     2.588     2.516
    35   1 H        0.924     0.029     2.603     2.523
    36   1 H        0.924     0.030     2.586     2.515
    37   1 H        0.924     0.029     2.595     2.519
    38   1 H        0.924     0.033     2.538     2.492
    39   1 H        0.924     0.033     2.538     2.491
    40   1 H        0.924     0.039     2.461     2.453
    41   1 H        0.924     0.042     2.422     2.434
    42   1 H        0.925     0.032     2.564     2.504
    43   1 H        0.925     0.030     2.587     2.515
    44   1 H        0.925     0.035     2.520     2.483
    45   1 H        0.925     0.036     2.501     2.473
    46   1 H        0.926     0.032     2.553     2.499
    47   1 H        0.926     0.029     2.593     2.518
    48   1 H        0.925     0.030     2.592     2.518
    49   1 H        0.926     0.030     2.592     2.518
    50   1 H        0.926     0.029     2.596     2.520
    51   1 H        0.926     0.029     2.598     2.520
    52   1 H        0.926     0.030     2.590     2.517
    53   1 H        0.926     0.030     2.586     2.515
    54   1 H        0.925     0.030     2.584     2.514
    55   1 H        0.926     0.033     2.544     2.494
    56   1 H        0.925     0.032     2.553     2.499

molecular dipole:
                 x           y           z       tot (Debye)
 q only:       -0.916      -0.147      -0.062
   full:       -0.878      -0.140      -0.062       2.264

 projected vibrational frequencies (cm⁻¹)
eigval :       -0.00    -0.00     0.00     0.00     0.00     0.00
eigval :       10.83    22.68    33.48    39.73    44.64    49.18
eigval :       55.77    85.86    99.90   108.52   120.07   121.07
eigval :      138.86   160.29   177.91   202.92   210.40   232.46
eigval :      235.87   259.39   277.46   289.33   337.35   342.51
eigval :      350.16   369.72   384.38   389.88   401.63   411.71
eigval :      426.59   463.83   467.38   480.44   492.17   514.96
eigval :      541.29   563.29   574.94   581.50   607.58   655.74
eigval :      677.03   683.36   705.18   737.33   750.49   755.94
eigval :      770.03   773.44   776.83   795.23   796.84   805.55
eigval :      807.62   813.37   823.90   843.02   847.89   861.74
eigval :      866.50   868.23   883.63   887.40   897.21   904.99
eigval :      907.85   910.29   922.67   924.74   939.94   967.04
eigval :      977.29  1004.06  1030.54  1063.31  1073.33  1085.28
eigval :     1092.18  1105.19  1114.90  1124.05  1125.01  1141.73
eigval :     1150.41  1173.07  1177.71  1182.81  1185.28  1205.86
eigval :     1212.95  1217.71  1221.09  1247.79  1254.02  1257.08
eigval :     1258.44  1263.12  1265.08  1277.17  1283.45  1285.29
eigval :     1290.73  1301.53  1317.73  1324.42  1332.31  1343.69
eigval :     1355.24  1361.87  1362.84  1377.39  1406.75  1412.94
eigval :     1413.11  1414.58  1428.12  1447.57  1453.27  1476.10
eigval :     1478.26  1485.81  1490.61  1493.37  1496.17  1499.50
eigval :     1500.56  1504.05  1504.09  1531.16  1532.63  1542.52
eigval :     1561.30  1587.51  2950.18  2955.31  2957.05  2962.16
eigval :     2967.48  2970.18  2971.92  2976.71  2979.44  2983.45
eigval :     3023.38  3025.35  3032.39  3054.88  3059.20  3061.83
eigval :     3063.36  3064.64  3065.06  3065.66  3066.80  3067.73
eigval :     3070.69  3072.71  3074.85  3085.66  3088.92  3091.24

   temp. (K)  partition function   enthalpy   heat capacity  entropy
                                   cal/mol     cal/K/mol   cal/K/mol   J/K/mol
 298.15  VIB  0.167E+12            14552.233     91.213     90.807
         ROT  0.316E+08              888.752      2.981     37.301
         INT  0.528E+19            15440.985     94.194    128.108
         TR   0.673E+28             1481.254      4.968     43.554
         TOT                       16922.2394    99.1617   171.6619   718.2332

       T/K    H(0)-H(T)+PV         H(T)/Eh          T*S/Eh         G(T)/Eh
   ------------------------------------------------------------------------
    298.15    0.269673E-01    0.489732E+00    0.815621E-01    0.408170E+00
   ------------------------------------------------------------------------

         :::::::::::::::::::::::::::::::::::::::::::::::::::::
         ::                  THERMODYNAMIC                  ::
         :::::::::::::::::::::::::::::::::::::::::::::::::::::
         :: total free energy         -73.784169871403 Eh   ::
         ::.................................................::
         :: total energy              -74.192339550583 Eh   ::
         :: zero point energy           0.462764465218 Eh   ::
         :: G(RRHO) w/o ZPVE           -0.054594786038 Eh   ::
         :: G(RRHO) contrib.            0.408169679180 Eh   ::
         :::::::::::::::::::::::::::::::::::::::::::::::::::::

           -------------------------------------------------
          | TOTAL ENERGY              -74.192339550583 Eh   |
          | TOTAL ENTHALPY            -73.702607780337 Eh   |
          | TOTAL FREE ENERGY         -73.784169871403 Eh   |
          | GRADIENT NORM               0.000090188289 Eh/α |
          | HOMO-LUMO GAP               0.750454646788 eV   |
           -------------------------------------------------

 * finished run on 2025/09/13 at 06:11:39.208
