   * xtb version 6.7.1 (edcfbbe) compiled by 'albert@albert-system' on 2024-07-22

   ID    Z sym.   atoms
    1    6 C      1-28
    2    1 H      29-56

          program call               : xtb data2507/toluene/HPVAnt/HPVAnt_toluene_S0_crest.xyz --gfn 2 --gbsa toluene --ohess vtight --parallel 40 --molden --ceasefiles --namespace data2507/toluene/HPVAnt/HPVAnt_toluene_S0_finalOpt
      * Solvation model:               GBSA
        Solvent                        toluene
        Solvent mass                       9.2140E+01 g/mol
          :  Hamiltonian                  GFN2-xTB          :
 * total energy  :   -74.2600593 Eh     change       -0.3119922E-08 Eh
 * total energy  :   -74.2600780 Eh     change       -0.1869189E-04 Eh
 * total energy  :   -74.2600844 Eh     change       -0.6375033E-05 Eh
 * total energy  :   -74.2600909 Eh     change       -0.6581642E-05 Eh
 * total energy  :   -74.2600949 Eh     change       -0.3998789E-05 Eh
 * total energy  :   -74.2601000 Eh     change       -0.5104916E-05 Eh
 * total energy  :   -74.2601045 Eh     change       -0.4432252E-05 Eh
 * total energy  :   -74.2601073 Eh     change       -0.2799212E-05 Eh
 * total energy  :   -74.2601092 Eh     change       -0.1931858E-05 Eh
 * total energy  :   -74.2601105 Eh     change       -0.1301581E-05 Eh
 * total energy  :   -74.2601115 Eh     change       -0.9464220E-06 Eh
 * total energy  :   -74.2601115 Eh     change       -0.4009993E-07 Eh
 * total energy  :   -74.2601122 Eh     change       -0.6725297E-06 Eh
 * total energy  :   -74.2601128 Eh     change       -0.6436145E-06 Eh
 * total energy  :   -74.2601133 Eh     change       -0.4787649E-06 Eh
 * total energy  :   -74.2601137 Eh     change       -0.3715499E-06 Eh
 * total energy  :   -74.2601140 Eh     change       -0.2963047E-06 Eh
 * total energy  :   -74.2601142 Eh     change       -0.2098312E-06 Eh
 * total energy  :   -74.2601142 Eh     change       -0.1974821E-07 Eh
   *** GEOMETRY OPTIMIZATION CONVERGED AFTER 19 ITERATIONS ***

 final structure:
================
56
 xtb: 6.7.1 (edcfbbe)
C           -8.71018586352684        3.83811994215065       -0.77185807212418
C           -8.05003358505215        2.69594986546246       -0.00763406977892
C           -7.88762496213450        1.44794341198160       -0.87328523254459
C           -7.20367508439369        0.30940563306826       -0.11959081829464
C           -7.06283096521738       -0.94384872342830       -0.97976723223905
C           -6.34624738490382       -2.08245781213050       -0.23948490799732
C           -4.91860186315044       -1.73285550203880        0.06497192582469
C           -4.51944730181627       -1.35768452468100        1.34224888594641
C           -3.20956149694700       -1.00743633980721        1.60073272898445
C           -2.24072383607058       -1.02114216185756        0.59233392515222
C           -0.88094712580982       -0.64190553861338        0.92446048944509
C            0.18005807709076       -0.67031911232608        0.10283444320624
C            1.53924135756835       -0.28980877196227        0.43036833841348
C            1.89829074210012        0.27428418260255        1.68831118951697
C            3.18051768733838        0.62373583663845        1.96406718783083
C            4.21850944003303        0.44224048454215        1.01187434549157
C            5.53855437474968        0.79168880626637        1.27082757342205
C            6.54189515724628        0.60528934012938        0.32106798772131
C            7.89279253584638        0.95583224188610        0.57152450005437
C            8.85338488183784        0.76105022251298       -0.37393809947496
C            8.51990314905769        0.20395487941777       -1.62721426864185
C            7.23385093188809       -0.14455994118050       -1.90682422779855
C            6.20321447466085        0.04068139038679       -0.94932030428907
C            4.88011882031066       -0.30781179339889       -1.20807804810042
C            3.87708526933105       -0.12174876773336       -0.25812946871496
C            2.53041835832474       -0.46967937783214       -0.50765498227667
C           -2.64867808423073       -1.40143867705914       -0.68998767075812
C           -3.95899758673988       -1.74877402808288       -0.94309059524428
H           -8.82003306538783        4.71287700740044       -0.13434001036058
H           -8.10933967611385        4.11626368901168       -1.63555351749605
H           -9.69701130225260        3.54263762373828       -1.12297181848397
H           -8.65421401493064        2.45011909038297        0.86926872510121
H           -7.06768432720718        3.01728603920434        0.34773923768840
H           -8.87161002409361        1.11703802858131       -1.21583551459946
H           -7.29724005283698        1.69891094478031       -1.75826571198226
H           -7.78395773484056        0.07002111034937        0.77528439663500
H           -6.21293887959516        0.63654853687510        0.20496802221216
H           -8.05515658100069       -1.28767446022580       -1.28184132606203
H           -6.50464847692470       -0.69768566332401       -1.88588722368036
H           -6.88127397920666       -2.29907288661758        0.68739919614888
H           -6.37352102685143       -2.97766134552417       -0.86617377418234
H           -5.24492871435951       -1.33896646433754        2.14377125802156
H           -2.92418476507504       -0.71852818065876        2.60329452964462
H           -0.75171873038910       -0.31851493344784        1.94923028436560
H            0.05219059746792       -1.01531581925302       -0.91495349399727
H            1.13294692035442        0.43142949495176        2.43245798171081
H            3.43650682908232        1.05319237545751        2.92290408271775
H            5.79422563185401        1.21837451212611        2.23143764198674
H            8.14289054535331        1.38193141670123        1.53316502323665
H            9.88086368323250        1.03015674003881       -0.17484979514555
H            9.29890188934836        0.05920024565687       -2.36203263871890
H            6.97319530939667       -0.57071258571715       -2.86562613339389
H            4.62486837652529       -0.73389473554510       -2.16900330166638
H            2.28685265140109       -0.89430828825716       -1.47255549335758
H           -1.93519904707222       -1.42294998049628       -1.49966144724223
H           -4.24758210426941       -2.04189593606565       -1.94319953983337

          :  Hamiltonian                  GFN2-xTB          :
         :: gradient norm              0.000113695354 Eh/a0 ::
         :: HOMO-LUMO gap              2.024324961298 eV    ::
         :: SCC energy               -75.634683787669 Eh    ::
         :: -> dispersion             -0.057712730455 Eh    ::
         :: -> Gsolv                  -0.031713059691 Eh    ::
         :: repulsion energy           1.374569599331 Eh    ::

    * Orbital Energies and Occupations

         #    Occupation            Energy/Eh            Energy/eV
      -------------------------------------------------------------
         1        2.0000           -0.6499881             -17.6871
       ...           ...                  ...                  ...
        58        2.0000           -0.4262562             -11.5990
        59        2.0000           -0.4231796             -11.5153
        60        2.0000           -0.4201271             -11.4322
        61        2.0000           -0.4189911             -11.4013
        62        2.0000           -0.4166750             -11.3383
        63        2.0000           -0.4136292             -11.2554
        64        2.0000           -0.4114056             -11.1949
        65        2.0000           -0.4086084             -11.1188
        66        2.0000           -0.4052010             -11.0261
        67        2.0000           -0.4006975             -10.9035
        68        2.0000           -0.3992051             -10.8629
        69        2.0000           -0.3737383             -10.1699
        70        2.0000           -0.3567463              -9.7076 (HOMO)
        71                         -0.2823537              -7.6832 (LUMO)
        72                         -0.2575168              -7.0074
        73                         -0.2234455              -6.0803
        74                         -0.2179581              -5.9309
        75                         -0.2145405              -5.8379
        76                         -0.1831705              -4.9843
        77                         -0.1732780              -4.7151
        78                         -0.1442293              -3.9247
        79                         -0.0920591              -2.5051
        80                         -0.0717246              -1.9517
        81                         -0.0378932              -1.0311
       ...                                ...                  ...
       140                          0.7201839              19.5972
      -------------------------------------------------------------
                  HL-Gap            0.0743926 Eh            2.0243 eV

     #   Z          covCN         q      C6AA      α(0)
     1   6 C        3.752    -0.102    22.505     6.765
     2   6 C        3.801    -0.053    21.519     6.605
     3   6 C        3.803    -0.059    21.626     6.621
     4   6 C        3.802    -0.057    21.602     6.617
     5   6 C        3.803    -0.053    21.525     6.605
     6   6 C        3.807    -0.063    21.698     6.631
     7   6 C        2.969     0.014    27.705     8.634
     8   6 C        2.921    -0.040    28.984     8.829
     9   6 C        2.927    -0.037    28.932     8.821
    10   6 C        2.969     0.007    27.851     8.657
    11   6 C        2.901    -0.039    28.968     8.825
    12   6 C        2.902    -0.041    29.030     8.834
    13   6 C        2.965     0.012    27.736     8.638
    14   6 C        2.917    -0.035    28.874     8.812
    15   6 C        2.914    -0.037    28.929     8.820
    16   6 C        2.982     0.009    27.819     8.652
    17   6 C        2.920    -0.044    29.090     8.845
    18   6 C        2.982     0.010    27.787     8.647
    19   6 C        2.916    -0.036    28.901     8.816
    20   6 C        2.914    -0.031    28.778     8.797
    21   6 C        2.914    -0.031    28.775     8.796
    22   6 C        2.917    -0.036    28.904     8.816
    23   6 C        2.982     0.010    27.783     8.646
    24   6 C        2.921    -0.044    29.104     8.847
    25   6 C        2.979     0.009    27.801     8.649
    26   6 C        2.928    -0.043    29.066     8.841
    27   6 C        2.922    -0.037    28.909     8.817
    28   6 C        2.923    -0.039    28.962     8.825
    29   1 H        0.925     0.033     2.543     2.494
    30   1 H        0.925     0.033     2.543     2.494
    31   1 H        0.925     0.034     2.536     2.491
    32   1 H        0.924     0.028     2.609     2.526
    33   1 H        0.924     0.028     2.617     2.530
    34   1 H        0.924     0.030     2.592     2.517
    35   1 H        0.924     0.029     2.606     2.525
    36   1 H        0.924     0.029     2.594     2.519
    37   1 H        0.924     0.029     2.598     2.520
    38   1 H        0.924     0.032     2.553     2.499
    39   1 H        0.924     0.033     2.551     2.498
    40   1 H        0.924     0.038     2.482     2.464
    41   1 H        0.924     0.040     2.454     2.450
    42   1 H        0.925     0.030     2.593     2.518
    43   1 H        0.925     0.028     2.611     2.527
    44   1 H        0.925     0.035     2.522     2.483
    45   1 H        0.925     0.034     2.530     2.487
    46   1 H        0.926     0.034     2.535     2.490
    47   1 H        0.925     0.031     2.569     2.506
    48   1 H        0.925     0.032     2.555     2.500
    49   1 H        0.926     0.031     2.569     2.507
    50   1 H        0.926     0.030     2.584     2.514
    51   1 H        0.926     0.030     2.584     2.514
    52   1 H        0.926     0.031     2.569     2.507
    53   1 H        0.925     0.032     2.556     2.500
    54   1 H        0.925     0.031     2.574     2.509
    55   1 H        0.926     0.031     2.572     2.508
    56   1 H        0.925     0.030     2.581     2.512

molecular dipole:
                 x           y           z       tot (Debye)
 q only:       -0.410      -0.056      -0.058
   full:       -0.380      -0.053      -0.058       0.986

 projected vibrational frequencies (cm⁻¹)
eigval :       -0.00    -0.00    -0.00     0.00     0.00     0.00
eigval :       -7.68    15.25    28.52    32.71    37.12    45.09
eigval :       49.01    84.05    89.56   100.91   116.86   119.57
eigval :      138.26   147.70   177.16   188.54   211.78   229.16
eigval :      230.96   262.55   281.52   318.64   342.65   345.04
eigval :      363.49   372.68   388.34   396.89   418.41   434.09
eigval :      450.19   462.35   470.52   481.32   502.53   521.80
eigval :      549.45   583.58   589.46   592.89   611.30   653.88
eigval :      685.73   698.50   725.38   747.94   753.63   769.71
eigval :      773.91   783.71   798.19   803.92   811.50   819.99
eigval :      851.39   862.57   864.32   864.96   867.89   868.95
eigval :      872.76   873.58   887.93   905.70   914.43   915.76
eigval :      916.15   924.99   927.98   939.89   973.00   978.35
eigval :      986.56  1013.78  1033.30  1064.44  1068.88  1086.20
eigval :     1105.43  1116.30  1124.32  1139.17  1149.29  1163.56
eigval :     1167.99  1178.61  1180.77  1185.92  1199.12  1204.53
eigval :     1212.53  1220.24  1248.32  1254.72  1258.84  1263.86
eigval :     1266.24  1281.07  1284.13  1285.43  1291.24  1294.12
eigval :     1308.79  1317.03  1323.36  1329.96  1330.17  1341.06
eigval :     1346.15  1362.32  1377.69  1408.88  1413.43  1415.03
eigval :     1419.09  1436.49  1446.68  1474.64  1477.84  1485.08
eigval :     1493.85  1494.88  1496.64  1499.61  1500.34  1504.04
eigval :     1529.59  1541.22  1566.36  1576.93  1587.76  1600.57
eigval :     1618.26  1639.52  2949.27  2954.96  2958.94  2961.20
eigval :     2966.58  2969.03  2972.14  2976.22  2979.11  2982.63
eigval :     3023.05  3025.30  3032.06  3051.50  3056.38  3057.71
eigval :     3059.92  3061.21  3062.03  3063.22  3064.18  3064.82
eigval :     3066.74  3071.74  3073.44  3084.22  3088.74  3093.82

   temp. (K)  partition function   enthalpy   heat capacity  entropy
                                   cal/mol     cal/K/mol   cal/K/mol   J/K/mol
 298.15  VIB  0.744E+12            14456.032     89.096     91.250
         ROT  0.311E+08              888.752      2.981     37.267
         INT  0.231E+20            15344.785     92.077    128.517
         TR   0.673E+28             1481.254      4.968     43.554
         TOT                       16826.0386    97.0450   172.0711   719.9453

       T/K    H(0)-H(T)+PV         H(T)/Eh          T*S/Eh         G(T)/Eh
   ------------------------------------------------------------------------
    298.15    0.268140E-01    0.492901E+00    0.817565E-01    0.411144E+00
   ------------------------------------------------------------------------

         :::::::::::::::::::::::::::::::::::::::::::::::::::::
         ::                  THERMODYNAMIC                  ::
         :::::::::::::::::::::::::::::::::::::::::::::::::::::
         :: total free energy         -73.848969823338 Eh   ::
         ::.................................................::
         :: total energy              -74.260114190059 Eh   ::
         :: zero point energy           0.466086881423 Eh   ::
         :: G(RRHO) w/o ZPVE           -0.054942514703 Eh   ::
         :: G(RRHO) contrib.            0.411144366720 Eh   ::
         :::::::::::::::::::::::::::::::::::::::::::::::::::::

           -------------------------------------------------
          | TOTAL ENERGY              -74.260114190059 Eh   |
          | TOTAL ENTHALPY            -73.767213309387 Eh   |
          | TOTAL FREE ENERGY         -73.848969823338 Eh   |
          | GRADIENT NORM               0.000113691892 Eh/α |
          | HOMO-LUMO GAP               2.024324871949 eV   |
           -------------------------------------------------

 * finished run on 2025/09/13 at 06:11:35.901
