   * xtb version 6.7.1 (edcfbbe) compiled by 'albert@albert-system' on 2024-07-22

   ID    Z sym.   atoms
    1    6 C      1-28
    2    1 H      29-56

          program call               : xtb data2507/toluene/HPVAnt/HPVAnt_toluene_T1_crest.xyz --gfn 2 --uhf 2 --gbsa toluene --ohess vtight --parallel 40 --molden --ceasefiles --namespace data2507/toluene/HPVAnt/HPVAnt_toluene_T1_finalOpt
      * Solvation model:               GBSA
        Solvent                        toluene
        Solvent mass                       9.2140E+01 g/mol
          :  Hamiltonian                  GFN2-xTB          :
 * total energy  :   -74.1921448 Eh     change       -0.5495622E-08 Eh
 * total energy  :   -74.1921625 Eh     change       -0.1766686E-04 Eh
 * total energy  :   -74.1921704 Eh     change       -0.7918541E-05 Eh
 * total energy  :   -74.1921745 Eh     change       -0.4091160E-05 Eh
 * total energy  :   -74.1921793 Eh     change       -0.4796642E-05 Eh
 * total energy  :   -74.1921816 Eh     change       -0.2287437E-05 Eh
 * total energy  :   -74.1921845 Eh     change       -0.2860462E-05 Eh
 * total energy  :   -74.1921868 Eh     change       -0.2380040E-05 Eh
 * total energy  :   -74.1921883 Eh     change       -0.1428812E-05 Eh
 * total energy  :   -74.1921898 Eh     change       -0.1495784E-05 Eh
 * total energy  :   -74.1921937 Eh     change       -0.5914790E-06 Eh
 * total energy  :   -74.1921942 Eh     change       -0.4213702E-06 Eh
 * total energy  :   -74.1921946 Eh     change       -0.4017508E-06 Eh
 * total energy  :   -74.1921949 Eh     change       -0.3966015E-06 Eh
 * total energy  :   -74.1921953 Eh     change       -0.3916820E-06 Eh
 * total energy  :   -74.1921958 Eh     change       -0.4251359E-06 Eh
 * total energy  :   -74.1921963 Eh     change       -0.5523069E-06 Eh
 * total energy  :   -74.1921971 Eh     change       -0.8027633E-06 Eh
 * total energy  :   -74.1921971 Eh     change       -0.1079772E-07 Eh
   *** GEOMETRY OPTIMIZATION CONVERGED AFTER 22 ITERATIONS ***

 final structure:
================
56
 xtb: 6.7.1 (edcfbbe)
C           -8.62629412125872        4.00172491970528        0.13305892076545
C           -7.95592096639612        2.71422219790451        0.59916546635258
C           -7.82855034845559        1.69488557311676       -0.53135671299567
C           -7.15458543516857        0.40442322270963       -0.06999793538048
C           -7.03820208855189       -0.61501184694392       -1.20038237245414
C           -6.36385032341941       -1.91819810813691       -0.74487396073682
C           -4.93660757306679       -1.69251347442723       -0.34667188238315
C           -4.55070902207153       -1.65513301413757        0.99212514782649
C           -3.24335482207720       -1.41422376291631        1.34596735019584
C           -2.24618117512553       -1.19619471912557        0.37448907907199
C           -0.90750966857504       -0.94861958577023        0.80068102454364
C            0.17713920709441       -0.71726311863511       -0.00854077477492
C            1.50635165393768       -0.47414807648576        0.40534627756945
C            1.92418700682536       -0.42507151751645        1.75059591973631
C            3.22879471109304       -0.18908652245397        2.08665254179832
C            4.23151308829523        0.01732036118753        1.10178605600338
C            5.55444618558397        0.25291267972829        1.42636933305903
C            6.55042468438205        0.45787327483471        0.43292718960136
C            7.88468007947748        0.69349220092191        0.75839026192721
C            8.83909664456979        0.89221997231115       -0.23409323899031
C            8.46975091768434        0.85866202554592       -1.57051374495235
C            7.15225007812409        0.62591102125945       -1.92442744711868
C            6.16509080767162        0.42076926511148       -0.94248785211155
C            4.82400773166343        0.18170558553359       -1.27053128071483
C            3.83428170331708       -0.02440817282847       -0.27766820612172
C            2.50870402093997       -0.26369887515379       -0.59445780346307
C           -2.64757760012076       -1.24082016149466       -0.97501084666939
C           -3.95669841588474       -1.48360880071326       -1.31786216596933
H           -8.70442909516314        4.71194714468375        0.95352442532603
H           -8.05084712283015        4.46341674748469       -0.66698731018365
H           -9.62776550387725        3.79715661548948       -0.24054085504190
H           -8.53847361211618        2.27763181021389        1.41429861556270
H           -6.96147328926905        2.94365488173598        0.99011550239359
H           -8.82333639319526        1.46474743273060       -0.92175955444249
H           -7.24739115442317        2.13336535222123       -1.34665097879084
H           -7.73239477072037       -0.02942603904710        0.75016174224174
H           -6.15727242606853        0.63520358430138        0.31235439856406
H           -8.03584974702272       -0.84858625010215       -1.58000297771969
H           -6.46214632880729       -0.17961281438161       -2.01991098042924
H           -6.92301207404873       -2.33521254096267        0.09509855242848
H           -6.40071670196735       -2.63456555307050       -1.56986774322699
H           -5.29189042680677       -1.81765098735020        1.76231886133341
H           -2.96770202517899       -1.38988549318674        2.39133679785107
H           -0.76232090132058       -0.94951841372645        1.87266553084573
H            0.02486278474534       -0.71854113481211       -1.07994530275493
H            1.20049193960345       -0.57616625706355        2.53713069199931
H            3.52249024370723       -0.15679952792233        3.12669028769653
H            5.85133874329984        0.28362849912304        2.46577758285345
H            8.17630032582589        0.72130406826655        1.79902270095516
H            9.86827170004355        1.07321757556461        0.03950686871977
H            9.21301025899219        1.01388872493484       -2.33938523312189
H            6.86538797726122        0.59973282522874       -2.96608712642867
H            4.53199073067094        0.15256628068443       -2.31074939383564
H            2.21375562979073       -0.29530647105592       -1.63424590892818
H           -1.92054324579803       -1.08516512909298       -1.75706337010197
H           -4.23587897311497       -1.51675258662018       -2.36206551608027

          :  Hamiltonian                  GFN2-xTB          :
         :: gradient norm              0.000068667603 Eh/a0 ::
         :: HOMO-LUMO gap              0.750339934528 eV    ::
         :: SCC energy               -75.549624095515 Eh    ::
         :: -> dispersion             -0.057624408278 Eh    ::
         :: -> Gsolv                  -0.031807555326 Eh    ::
         :: repulsion energy           1.357426958842 Eh    ::

    * Orbital Energies and Occupations

         #    Occupation            Energy/Eh            Energy/eV
      -------------------------------------------------------------
         1        2.0000           -0.6479616             -17.6319
       ...           ...                  ...                  ...
        59        2.0000           -0.4236586             -11.5283
        60        2.0000           -0.4209583             -11.4549
        61        2.0000           -0.4188614             -11.3978
        62        2.0000           -0.4173834             -11.3576
        63        2.0000           -0.4144914             -11.2789
        64        2.0000           -0.4127136             -11.2305
        65        2.0000           -0.4065353             -11.0624
        66        2.0000           -0.4032989             -10.9743
        67        2.0000           -0.4031848             -10.9712
        68        2.0000           -0.4008528             -10.9078
        69        2.0000           -0.3718326             -10.1181
        70        1.0000           -0.3504311              -9.5357
        71        1.0000           -0.2889682              -7.8632 (HOMO)
        72        0.0000           -0.2613936              -7.1129 (LUMO)
        73                         -0.2208674              -6.0101
        74                         -0.2187693              -5.9530
        75                         -0.2157864              -5.8718
        76                         -0.1855468              -5.0490
        77                         -0.1741204              -4.7381
        78                         -0.1448149              -3.9406
        79                         -0.0926061              -2.5199
        80                         -0.0736938              -2.0053
        81                         -0.0392298              -1.0675
        82                          0.0573031               1.5593
       ...                                ...                  ...
       140                          0.7236627              19.6919
      -------------------------------------------------------------
                  HL-Gap            0.0275746 Eh            0.7503 eV

     #   Z          covCN         q      C6AA      α(0)
     1   6 C        3.752    -0.102    22.506     6.765
     2   6 C        3.801    -0.053    21.519     6.605
     3   6 C        3.803    -0.059    21.628     6.621
     4   6 C        3.802    -0.057    21.601     6.617
     5   6 C        3.803    -0.053    21.523     6.605
     6   6 C        3.807    -0.063    21.698     6.631
     7   6 C        2.969     0.016    27.656     8.626
     8   6 C        2.919    -0.038    28.943     8.822
     9   6 C        2.926    -0.037    28.923     8.820
    10   6 C        2.967     0.011    27.771     8.644
    11   6 C        2.903    -0.040    29.003     8.830
    12   6 C        2.903    -0.039    28.968     8.825
    13   6 C        2.963     0.011    27.772     8.644
    14   6 C        2.913    -0.035    28.874     8.811
    15   6 C        2.914    -0.039    28.974     8.827
    16   6 C        2.976     0.010    27.781     8.646
    17   6 C        2.918    -0.047    29.166     8.856
    18   6 C        2.979     0.011    27.772     8.644
    19   6 C        2.918    -0.039    28.958     8.824
    20   6 C        2.914    -0.033    28.817     8.803
    21   6 C        2.913    -0.032    28.797     8.800
    22   6 C        2.919    -0.039    28.979     8.828
    23   6 C        2.976     0.012    27.751     8.641
    24   6 C        2.919    -0.048    29.201     8.861
    25   6 C        2.972     0.011    27.763     8.643
    26   6 C        2.925    -0.045    29.114     8.849
    27   6 C        2.919    -0.036    28.893     8.815
    28   6 C        2.920    -0.037    28.927     8.820
    29   1 H        0.925     0.033     2.544     2.494
    30   1 H        0.925     0.033     2.543     2.494
    31   1 H        0.925     0.034     2.536     2.490
    32   1 H        0.924     0.029     2.607     2.525
    33   1 H        0.924     0.028     2.617     2.530
    34   1 H        0.924     0.030     2.586     2.515
    35   1 H        0.924     0.029     2.604     2.523
    36   1 H        0.924     0.030     2.585     2.514
    37   1 H        0.924     0.029     2.598     2.521
    38   1 H        0.924     0.034     2.537     2.491
    39   1 H        0.924     0.033     2.539     2.492
    40   1 H        0.924     0.039     2.461     2.453
    41   1 H        0.924     0.042     2.422     2.434
    42   1 H        0.926     0.032     2.564     2.504
    43   1 H        0.925     0.030     2.587     2.515
    44   1 H        0.925     0.035     2.520     2.483
    45   1 H        0.925     0.036     2.501     2.473
    46   1 H        0.926     0.032     2.553     2.499
    47   1 H        0.926     0.029     2.593     2.518
    48   1 H        0.925     0.030     2.592     2.518
    49   1 H        0.926     0.030     2.592     2.518
    50   1 H        0.926     0.029     2.596     2.520
    51   1 H        0.926     0.029     2.598     2.520
    52   1 H        0.926     0.030     2.590     2.517
    53   1 H        0.926     0.030     2.587     2.515
    54   1 H        0.925     0.030     2.584     2.514
    55   1 H        0.926     0.033     2.544     2.494
    56   1 H        0.925     0.032     2.553     2.499

molecular dipole:
                 x           y           z       tot (Debye)
 q only:       -0.920      -0.124      -0.095
   full:       -0.881      -0.117      -0.094       2.272

 projected vibrational frequencies (cm⁻¹)
eigval :       -0.00    -0.00    -0.00    -0.00     0.00     0.00
eigval :       -7.75     7.52    22.69    39.03    43.51    48.34
eigval :       57.04    84.63    94.39   102.47   120.48   128.05
eigval :      140.33   158.16   178.59   197.91   210.23   231.53
eigval :      237.87   259.26   273.64   286.76   335.09   341.78
eigval :      348.00   368.17   383.83   388.67   398.74   410.66
eigval :      423.82   463.42   467.01   480.03   489.34   514.75
eigval :      540.86   560.74   574.26   580.95   607.35   655.49
eigval :      674.46   682.26   702.13   734.58   752.34   753.21
eigval :      769.20   773.43   776.70   792.94   798.11   804.37
eigval :      806.53   815.24   821.14   845.34   846.60   861.71
eigval :      866.29   868.32   883.61   885.18   894.19   906.29
eigval :      906.54   911.30   920.76   923.81   940.86   966.64
eigval :      978.46  1003.70  1029.09  1063.48  1073.17  1085.24
eigval :     1091.94  1105.25  1114.53  1124.05  1124.53  1141.24
eigval :     1149.56  1173.21  1177.29  1182.82  1185.30  1205.54
eigval :     1212.76  1217.45  1220.76  1247.40  1253.95  1256.96
eigval :     1258.13  1263.72  1264.80  1277.06  1283.40  1285.00
eigval :     1290.94  1300.90  1317.62  1323.60  1331.64  1343.64
eigval :     1355.17  1361.54  1362.17  1377.23  1406.33  1412.92
eigval :     1413.62  1414.43  1427.92  1447.30  1453.27  1476.40
eigval :     1478.61  1487.61  1490.74  1495.02  1496.60  1501.19
eigval :     1501.61  1503.94  1505.83  1531.20  1532.41  1542.45
eigval :     1561.14  1587.62  2949.95  2955.52  2958.03  2961.87
eigval :     2967.42  2969.73  2972.19  2976.66  2979.27  2983.25
eigval :     3023.11  3025.52  3032.62  3054.27  3059.17  3061.31
eigval :     3063.00  3064.21  3064.71  3065.23  3066.40  3067.23
eigval :     3070.31  3072.94  3074.49  3085.53  3088.25  3090.96

   temp. (K)  partition function   enthalpy   heat capacity  entropy
                                   cal/mol     cal/K/mol   cal/K/mol   J/K/mol
 298.15  VIB  0.111E+13            14628.687     91.099     92.626
         ROT  0.316E+08              888.752      2.981     37.299
         INT  0.350E+20            15517.439     94.080    129.926
         TR   0.673E+28             1481.254      4.968     43.554
         TOT                       16998.6930    99.0480   173.4793   725.8374

       T/K    H(0)-H(T)+PV         H(T)/Eh          T*S/Eh         G(T)/Eh
   ------------------------------------------------------------------------
    298.15    0.270891E-01    0.489632E+00    0.824256E-01    0.407206E+00
   ------------------------------------------------------------------------

         :::::::::::::::::::::::::::::::::::::::::::::::::::::
         ::                  THERMODYNAMIC                  ::
         :::::::::::::::::::::::::::::::::::::::::::::::::::::
         :: total free energy         -73.784991018000 Eh   ::
         ::.................................................::
         :: total energy              -74.192197135704 Eh   ::
         :: zero point energy           0.462542587997 Eh   ::
         :: G(RRHO) w/o ZPVE           -0.055336470293 Eh   ::
         :: G(RRHO) contrib.            0.407206117703 Eh   ::
         :::::::::::::::::::::::::::::::::::::::::::::::::::::

           -------------------------------------------------
          | TOTAL ENERGY              -74.192197135704 Eh   |
          | TOTAL ENTHALPY            -73.702565406110 Eh   |
          | TOTAL FREE ENERGY         -73.784991018000 Eh   |
          | GRADIENT NORM               0.000068684469 Eh/α |
          | HOMO-LUMO GAP               0.750341738056 eV   |
           -------------------------------------------------

 * finished run on 2025/09/13 at 06:20:03.386
