   * xtb version 6.7.1 (edcfbbe) compiled by 'albert@albert-system' on 2024-07-22

   ID    Z sym.   atoms
    1    6 C      1-6, 8-13, 15-22, 24-29, 31-36, 38-47, 49, 50
    2    8 O      7, 37
    3    7 N      14, 23, 30, 48
    4    1 H      51-76

          program call               : xtb data2507/gas/POZDBPHZ/POZDBPHZ_gas_S0_finalOpt.xtbopt.xyz --gfn 2 --spinpol --tblite --uhf 2 --ohess vtight --parallel 40 --molden --ceasefiles --namespace data2507/gas/POZDBPHZ/POZDBPHZ_gas_T1_preOpt
 * total energy  :  -127.3493932 Eh     change       -0.4729714E-08 Eh
 * total energy  :  -127.3521398 Eh     change       -0.2746659E-02 Eh
 * total energy  :  -127.3529528 Eh     change       -0.8129717E-03 Eh
 * total energy  :  -127.3530594 Eh     change       -0.1065702E-03 Eh
 * total energy  :  -127.3531114 Eh     change       -0.5204980E-04 Eh
 * total energy  :  -127.3531244 Eh     change       -0.1296233E-04 Eh
 * total energy  :  -127.3531386 Eh     change       -0.1423399E-04 Eh
 * total energy  :  -127.3531579 Eh     change       -0.1928924E-04 Eh
 * total energy  :  -127.3531781 Eh     change       -0.2024251E-04 Eh
 * total energy  :  -127.3531938 Eh     change       -0.1569973E-04 Eh
 * total energy  :  -127.3532763 Eh     change       -0.7259788E-06 Eh
 * total energy  :  -127.3532770 Eh     change       -0.7537856E-06 Eh
 * total energy  :  -127.3532774 Eh     change       -0.3777156E-06 Eh
 * total energy  :  -127.3532782 Eh     change       -0.7839966E-06 Eh
 * total energy  :  -127.3532789 Eh     change       -0.7227508E-06 Eh
 * total energy  :  -127.3532796 Eh     change       -0.6454914E-06 Eh
 * total energy  :  -127.3532796 Eh     change        0.1013265E-07 Eh
 * total energy  :  -127.3532795 Eh     change        0.2034076E-07 Eh
 * total energy  :  -127.3532796 Eh     change       -0.3051403E-07 Eh
   *** GEOMETRY OPTIMIZATION CONVERGED AFTER 46 ITERATIONS ***

 final structure:
================
76
 xtb: 6.7.1 (edcfbbe)
C            8.77899723214779       -0.46020080573074        3.03901615146490
C            7.58684055470844        0.23474492704001        3.10515506050440
C            6.67769030744531        0.17020093417331        2.06184178459417
C            6.95017024572310       -0.58700058156531        0.92771154351716
C            8.15152700820703       -1.31097645936608        0.88268798270732
C            9.05582366954699       -1.24007234530909        1.92648723802547
O            8.48023776022158       -2.12252578815918       -0.17270116321061
C            7.59156052503413       -2.20044960700084       -1.21390001074531
C            7.93445056652612       -3.01665158747621       -2.27607595871470
C            7.09400390470850       -3.12398453477495       -3.37388603406329
C            5.91893976539619       -2.39829459811648       -3.40774628403629
C            5.56883425038052       -1.57938988548448       -2.34645861929493
C            6.38684556401839       -1.48124677804104       -1.22609869569952
N            6.06276134056495       -0.67306940145594       -0.14102508766904
C            4.83599855853613        0.03599681423450       -0.12094226892754
C            3.62480048468178       -0.68331276435393       -0.06029981940052
C            2.43491263886955       -0.01317165336010       -0.03525830702410
C            2.39610269509873        1.39405181580280       -0.05670341890797
C            3.61520944992616        2.12260329429177       -0.11180265575990
C            3.57834336160988        3.53266363890074       -0.12623312373523
C            2.38965848487615        4.20656206500583       -0.07947631023508
C            1.16147923383392        3.52192950534494       -0.01954818195456
N           -0.00048500169335        4.17147391453945        0.03537924578316
C           -1.16234808500062        3.52089368956197        0.07899835485122
C           -2.39062305756069        4.20418239499081        0.15109234122513
C           -3.57919354824763        3.52938348510354        0.18635212711649
C           -3.61584835188233        2.11978292365748        0.14732825160504
C           -4.82732630112371        1.40441412984315        0.17581400189938
C           -4.83629491733236        0.03312577701541        0.12073475782937
N           -6.06291084272802       -0.67643177850201        0.12941085483637
C           -6.95115459612134       -0.57207144906396       -0.93698231753239
C           -6.67960743010006        0.20453406412524       -2.05814559502517
C           -7.58956953136240        0.28692893076505       -3.09948653807987
C           -8.78163798631812       -0.40914025539046       -3.04437027464806
C           -9.05755374682045       -1.20803223222598       -1.94519374889515
C           -8.15244156821045       -1.29680813309740       -0.90346781751250
O           -8.48026859907476       -2.12638614623853        0.13807649251281
C           -7.59077143836710       -2.22214798411329        1.17707005891236
C           -7.93275964063233       -3.05652596616422        2.22532936393380
C           -7.09143914356032       -3.18266788865291        3.32046143802847
C           -5.91638951527571       -2.45757547423621        3.36586856419120
C           -5.56718261641218       -1.62050965415802        2.31855169637491
C           -6.38608384431920       -1.50316401812100        1.20068477532670
C           -3.62501025400685       -0.68480611708454        0.04690838660415
C           -2.43523980976809       -0.01413434719293        0.03303951707912
C           -2.39664477377153        1.39250361638866        0.07911157098177
C           -1.16027697167499        2.08882824434406        0.05284355065649
N           -0.00028074355436        1.43919244820941        0.01143909678019
C            1.15962167980926        2.08962436131387       -0.01849113039616
C            4.82681826901416        1.40803158569022       -0.15220534462116
H            9.49084224765769       -0.40823682889131        3.84749730477994
H            7.35215831347042        0.83301230543749        3.97197442139120
H            5.74475707411105        0.70713226150598        2.12904818119754
H            9.96955583006361       -1.80741165759656        1.85017696128461
H            8.86617811082906       -3.55696284645749       -2.22574080475111
H            7.36741440700237       -3.76515556661071       -4.19683835321879
H            5.26440012731728       -2.46082693884972       -4.26333257463584
H            4.65572642334609       -1.00686181258470       -2.38791411625084
H            3.65740515078486       -1.76218799317148       -0.02905209020490
H            1.49769346079038       -0.54577719548512        0.01331649950362
H            4.51006666690857        4.07670361942108       -0.17131076112689
H            2.35761911790849        5.28500931313456       -0.08507626371300
H           -2.35874703594378        5.28237180512065        0.17554722750762
H           -4.51098655121099        4.07240707066449        0.24118498355908
H           -5.75903744518190        1.94888366395680        0.23712514099761
H           -5.74675672566842        0.74261094223653       -2.11681996305033
H           -7.35560777641612        0.90002270934459       -3.95608050794699
H           -9.49412086979876       -0.34333318950458       -3.85127968259535
H           -9.97120013405276       -1.77665320931674       -1.87792743965423
H           -8.86449497412634       -3.59595946957932        2.16644639784644
H           -7.36414953685654       -3.83792519664032        4.13247727763937
H           -5.26115994607401       -2.53477144328024        4.21972689414823
H           -4.65407730262821       -1.04871264002469        2.36913499154464
H           -3.65746222106880       -1.76297672761351       -0.00316253438513
H           -1.49795626173187       -0.54565208291347       -0.02524806096504
H            5.75846632692865        1.95363723564013       -0.20356764902221

 projected vibrational frequencies (cm⁻¹)
eigval :       -0.00    -0.00    -0.00    -0.00     0.00     0.00
eigval :        9.68     9.95    17.08    22.62    27.44    29.67
eigval :       41.54    50.50    51.94    64.80    69.81   104.94
eigval :      110.82   116.32   128.31   137.14   140.67   155.32
eigval :      165.56   180.54   197.94   227.43   239.01   247.46
eigval :      248.75   258.64   262.76   269.20   273.10   296.56
eigval :      330.77   336.55   356.50   369.53   372.17   387.26
eigval :      393.10   396.77   402.66   407.79   419.59   426.03
eigval :      428.95   429.62   429.82   438.49   454.25   455.22
eigval :      491.88   492.12   507.11   507.20   507.74   507.97
eigval :      515.93   519.23   521.77   526.27   529.42   556.55
eigval :      562.24   570.85   577.10   592.63   607.19   611.74
eigval :      621.59   640.68   642.43   659.68   661.25   662.41
eigval :      664.05   664.39   665.00   674.68   709.64   710.39
eigval :      711.32   756.23   763.75   765.87   777.82   777.93
eigval :      778.22   778.45   799.70   800.75   801.43   801.87
eigval :      824.45   824.81   850.74   854.28   855.22   855.26
eigval :      863.74   863.85   864.94   865.00   878.59   878.99
eigval :      884.83   885.54   897.24   897.39   898.90   899.09
eigval :      912.00   913.72   915.49   915.71   916.29   917.30
eigval :      917.59   917.68   989.99   991.77   995.17  1021.63
eigval :     1088.09  1088.12  1088.96  1089.42  1106.71  1110.00
eigval :     1110.04  1113.47  1118.37  1121.06  1147.85  1152.98
eigval :     1163.63  1165.18  1174.73  1174.95  1180.94  1181.44
eigval :     1198.22  1198.62  1203.27  1203.38  1221.64  1223.44
eigval :     1230.29  1232.17  1241.27  1241.68  1244.48  1245.68
eigval :     1258.57  1259.21  1273.32  1283.83  1293.76  1298.79
eigval :     1312.08  1313.11  1313.61  1319.63  1331.78  1334.49
eigval :     1342.14  1348.81  1351.53  1359.37  1380.86  1386.50
eigval :     1410.60  1422.10  1422.31  1423.73  1426.85  1443.84
eigval :     1444.09  1468.33  1471.21  1472.89  1473.15  1484.83
eigval :     1489.12  1489.48  1511.78  1516.47  1548.13  1548.16
eigval :     1563.69  1563.78  1574.09  1574.18  1581.17  1583.75
eigval :     1584.12  1585.96  1596.82  1597.95  3077.34  3077.38
eigval :     3082.50  3082.58  3085.42  3085.84  3090.78  3090.89
eigval :     3091.10  3091.21  3098.70  3099.05  3099.67  3100.35
eigval :     3100.56  3100.61  3100.82  3101.24  3108.16  3108.30
eigval :     3108.63  3108.98  3113.08  3113.59  3113.94  3114.14

   temp. (K)  partition function   enthalpy   heat capacity  entropy
                                   cal/mol     cal/K/mol   cal/K/mol   J/K/mol
 298.15  VIB  0.381E+17            21722.146    141.628    132.660
         ROT  0.647E+08              888.752      2.981     38.722
         INT  0.246E+25            22610.899    144.608    171.382
         TR   0.158E+29             1481.254      4.968     45.243
         TOT                       24092.1525   149.5766   216.6251   906.3594

       T/K    H(0)-H(T)+PV         H(T)/Eh          T*S/Eh         G(T)/Eh
   ------------------------------------------------------------------------
    298.15    0.383933E-01    0.601080E+00    0.102926E+00    0.498155E+00
   ------------------------------------------------------------------------

         :::::::::::::::::::::::::::::::::::::::::::::::::::::
         ::                  THERMODYNAMIC                  ::
         :::::::::::::::::::::::::::::::::::::::::::::::::::::
         :: total free energy        -126.855124753973 Eh   ::
         ::.................................................::
         :: total energy             -127.353279577219 Eh   ::
         :: zero point energy           0.562687110706 Eh   ::
         :: G(RRHO) w/o ZPVE           -0.064532287460 Eh   ::
         :: G(RRHO) contrib.            0.498154823245 Eh   ::
         :::::::::::::::::::::::::::::::::::::::::::::::::::::

           -------------------------------------------------
          | TOTAL ENERGY             -127.353279577219 Eh   |
          | TOTAL ENTHALPY           -126.752199177597 Eh   |
          | TOTAL FREE ENERGY        -126.855124753973 Eh   |
          | GRADIENT NORM               0.000104595103 Eh/α |
           -------------------------------------------------

 * finished run on 2025/09/10 at 03:40:47.227
