   * xtb version 6.7.1 (edcfbbe) compiled by 'albert@albert-system' on 2024-07-22

   ID    Z sym.   atoms
    1    6 C      1-6, 8-13, 15-22, 24-29, 31-36, 38-47, 49, 50
    2    8 O      7, 37
    3    7 N      14, 23, 30, 48
    4    1 H      51-76

          program call               : xtb data2507/gas/POZDBPHZ/POZDBPHZ_gas_S0_crest.xyz --gfn 2 --ohess vtight --parallel 40 --molden --ceasefiles --namespace data2507/gas/POZDBPHZ/POZDBPHZ_gas_S0_finalOpt
          :  Hamiltonian                  GFN2-xTB          :
 * total energy  :  -127.3947197 Eh     change       -0.2235311E-08 Eh
 * total energy  :  -127.3947203 Eh     change       -0.5828446E-06 Eh
 * total energy  :  -127.3947210 Eh     change       -0.6881136E-06 Eh
 * total energy  :  -127.3947218 Eh     change       -0.8136567E-06 Eh
 * total energy  :  -127.3947223 Eh     change       -0.4980502E-06 Eh
 * total energy  :  -127.3947226 Eh     change       -0.3637995E-06 Eh
 * total energy  :  -127.3947230 Eh     change       -0.3231493E-06 Eh
 * total energy  :  -127.3947232 Eh     change       -0.2558782E-06 Eh
 * total energy  :  -127.3947234 Eh     change       -0.2150316E-06 Eh
 * total energy  :  -127.3947237 Eh     change       -0.2354899E-06 Eh
 * total energy  :  -127.3947240 Eh     change       -0.2935420E-06 Eh
 * total energy  :  -127.3947242 Eh     change       -0.2752258E-06 Eh
 * total energy  :  -127.3947244 Eh     change       -0.1718803E-06 Eh
 * total energy  :  -127.3947245 Eh     change       -0.1157077E-06 Eh
 * total energy  :  -127.3947246 Eh     change       -0.1162811E-06 Eh
 * total energy  :  -127.3947247 Eh     change       -0.9262756E-07 Eh
   *** GEOMETRY OPTIMIZATION CONVERGED AFTER 16 ITERATIONS ***

 final structure:
================
76
 xtb: 6.7.1 (edcfbbe)
C            8.86438207270870       -0.29869469852740        2.97696769756224
C            7.65584912215281        0.36256148844612        3.05493710068657
C            6.72394193681459        0.24385107948874        2.03493600074922
C            6.99028452950523       -0.53128360253017        0.91325956756885
C            8.20615263072992       -1.22642190328250        0.86068664136105
C            9.13295793760678       -1.10230672308741        1.87875295873850
O            8.53135763033136       -2.06656793295723       -0.17501442661151
C            7.61907025994409       -2.20095557455829       -1.19181734830505
C            7.96353583556306       -3.03960139954045       -2.23519911156591
C            7.10814278007366       -3.20187019391546       -3.31513032596887
C            5.91807017763264       -2.50440256164320       -3.35006972172056
C            5.56706316866109       -1.66292631674153       -2.30518063686122
C            6.39691679166110       -1.51547094281613       -1.20085868472918
N            6.07414890030979       -0.67580107106258       -0.13191110144446
C            4.84149229306821        0.00858669508513       -0.10879124119408
C            3.64164588439872       -0.71849499513192       -0.07517664742952
C            2.43881078973235       -0.06045456940594       -0.04829904496300
C            2.38937810741349        1.33959660176015       -0.04714338170749
C            3.59227947852248        2.07835043359346       -0.07601618551589
C            3.54862991714866        3.50725505288092       -0.07281725813150
C            2.37639222753375        4.17916776648312       -0.03640562142698
C            1.13826238800646        3.47223762835093       -0.00332551779450
N           -0.00040281749414        4.15816517223901        0.03677747862618
C           -1.13904472668196        3.47149496707972        0.06264930187812
C           -2.37719707980401        4.17749952301965        0.11080912111536
C           -3.54939116989314        3.50489955725478        0.13381893499688
C           -3.59295741656852        2.07622596889112        0.10797935329739
C           -4.81076227719269        1.38638260716635        0.13319965287131
C           -4.84188784016072        0.00606864598568        0.10317621449483
N           -6.07419854667670       -0.67917292294947        0.11827617121355
C           -6.99480022294515       -0.51593722289367       -0.92013423876792
C           -6.73286710621213        0.27868499564474       -2.02913441367714
C           -7.66915739840279        0.41573565454220       -3.04280956383355
C           -8.87773784203368       -0.24617129098435       -2.97114787735448
C           -9.14199539277540       -1.06885017640753       -1.88607973829026
C           -8.21078338677833       -1.21135931572626       -0.87447115899951
O           -8.53185399355629       -2.06950161587548        0.14767940960477
C           -7.61497259818322       -2.22253091989691        1.15769458447958
C           -7.95501031316910       -3.07977345473962        2.18733054482382
C           -7.09487578204435       -3.26165164769879        3.26035210011516
C           -5.90451059218694       -2.56510137085361        3.30256803885589
C           -5.55791505075075       -1.70505562100127        2.27141812317365
C           -6.39254942345635       -1.53765318413828        1.17355676023328
C           -3.64201697721095       -0.72001866312190        0.05242082355610
C           -2.43930599187548       -0.06145128224445        0.03599126591789
C           -2.39001797787463        1.33834954099674        0.06290532037385
C           -1.13964427413150        2.04472324565300        0.04281637845753
N           -0.00033529688605        1.36032091668361        0.00753693559133
C            1.13894104686840        2.04535190228089       -0.01330080055607
C            4.81017926812447        1.38923946287360       -0.11272733513326
H            9.59485939885531       -0.20569543753974        3.76495044665953
H            7.42262584524962        0.97576861574812        3.91180921238972
H            5.77645119137295        0.75272828878871        2.11852843135876
H           10.05846924861805       -1.64920937640845        1.79514743776944
H            8.91018512051008       -3.55345694197349       -2.18557162378065
H            7.38383343340302       -3.86105673634791       -4.12300166557225
H            5.25090863176351       -2.60384737907697       -4.19244372784564
H            4.64173515594572       -1.11057488701679       -2.35429394571089
H            3.68199638102157       -1.79761383268583       -0.06248407876328
H            1.50727323288544       -0.60279305372052       -0.01707096743829
H            4.48825920562254        4.04052264627093       -0.09801684070779
H            2.33167388869078        5.25713435777193       -0.03081611657639
H           -2.33254371938229        5.25535359688038        0.12751974272452
H           -4.48902557675745        4.03749027379808        0.17040760827730
H           -5.73594341323623        1.94295822870203        0.17938331213238
H           -5.78543009022416        0.78846825075838       -2.10778729943632
H           -7.43934695726298        1.04366737252160       -3.88988500736582
H           -9.61160863210999       -0.13893446807984       -3.75415443299556
H          -10.06747030299980       -1.61663889208118       -1.80804159456056
H           -8.90202771960321       -3.59243624324864        2.13268103531095
H           -7.36714385802178       -3.93525982037236        4.05741467470289
H           -5.23362549073410       -2.67972311859325        4.14004340473626
H           -4.63224604481945       -1.15384682167907        2.32646357798608
H           -3.68234619743460       -1.79868920180590        0.01880719837612
H           -1.50777873730072       -0.60294444743999       -0.00769868270765
H            5.73540386168159        1.94665173976042       -0.14623082932403

          :  Hamiltonian                  GFN2-xTB          :
         :: gradient norm              0.000037195191 Eh/a0 ::
         :: HOMO-LUMO gap              1.030680651392 eV    ::
         :: SCC energy              -129.621848579744 Eh    ::
         :: -> dispersion             -0.109039121355 Eh    ::
         :: repulsion energy           2.227123842690 Eh    ::

    * Orbital Energies and Occupations

         #    Occupation            Energy/Eh            Energy/eV
      -------------------------------------------------------------
         1        2.0000           -0.7269908             -19.7824
       ...           ...                  ...                  ...
       105        2.0000           -0.4160677             -11.3218
       106        2.0000           -0.4150775             -11.2948
       107        2.0000           -0.4150679             -11.2946
       108        2.0000           -0.4149570             -11.2916
       109        2.0000           -0.4120022             -11.2112
       110        2.0000           -0.4119222             -11.2090
       111        2.0000           -0.3967423             -10.7959
       112        2.0000           -0.3943615             -10.7311
       113        2.0000           -0.3892949             -10.5933
       114        2.0000           -0.3887762             -10.5791
       115        2.0000           -0.3532627              -9.6128
       116        2.0000           -0.3427047              -9.3255
       117        2.0000           -0.3424135              -9.3175 (HOMO)
       118                         -0.3045368              -8.2869 (LUMO)
       119                         -0.2796351              -7.6093
       120                         -0.2558079              -6.9609
       121                         -0.2458079              -6.6888
       122                         -0.2375955              -6.4653
       123                         -0.2375908              -6.4652
       124                         -0.2290166              -6.2319
       125                         -0.2289824              -6.2309
       126                         -0.2248755              -6.1192
       127                         -0.2158368              -5.8732
       128                         -0.2119570              -5.7676
       ...                                ...                  ...
       226                          0.7161866              19.4884
      -------------------------------------------------------------
                  HL-Gap            0.0378767 Eh            1.0307 eV

     #   Z          covCN         q      C6AA      α(0)
     1   6 C        2.919    -0.040    29.000     8.831
     2   6 C        2.919    -0.039    28.963     8.825
     3   6 C        2.924    -0.060    29.497     8.907
     4   6 C        2.922     0.042    27.050     8.529
     5   6 C        2.884     0.125    25.263     8.240
     6   6 C        2.920    -0.056    29.397     8.891
     7   8 O        1.709    -0.255    18.227     5.764
     8   6 C        2.884     0.125    25.265     8.240
     9   6 C        2.920    -0.056    29.398     8.891
    10   6 C        2.919    -0.040    28.999     8.831
    11   6 C        2.919    -0.039    28.963     8.825
    12   6 C        2.924    -0.060    29.490     8.905
    13   6 C        2.922     0.043    27.046     8.528
    14   7 N        2.752    -0.071    22.609     7.062
    15   6 C        2.918     0.068    26.484     8.439
    16   6 C        2.919    -0.040    29.006     8.832
    17   6 C        2.919    -0.027    28.674     8.781
    18   6 C        2.987    -0.002    28.068     8.691
    19   6 C        2.983     0.013    27.725     8.637
    20   6 C        2.914    -0.032    28.794     8.799
    21   6 C        2.913    -0.040    29.000     8.831
    22   6 C        2.965     0.084    26.116     8.382
    23   7 N        1.850    -0.238    27.077     7.712
    24   6 C        2.965     0.084    26.116     8.382
    25   6 C        2.913    -0.040    29.000     8.831
    26   6 C        2.914    -0.032    28.794     8.799
    27   6 C        2.983     0.013    27.725     8.637
    28   6 C        2.924    -0.047    29.171     8.857
    29   6 C        2.918     0.068    26.484     8.439
    30   7 N        2.752    -0.071    22.609     7.062
    31   6 C        2.922     0.042    27.049     8.529
    32   6 C        2.924    -0.060    29.497     8.906
    33   6 C        2.919    -0.039    28.963     8.825
    34   6 C        2.919    -0.040    29.000     8.831
    35   6 C        2.920    -0.056    29.397     8.891
    36   6 C        2.884     0.125    25.263     8.240
    37   8 O        1.709    -0.255    18.227     5.764
    38   6 C        2.884     0.125    25.265     8.240
    39   6 C        2.920    -0.056    29.398     8.891
    40   6 C        2.919    -0.040    28.999     8.831
    41   6 C        2.919    -0.039    28.963     8.825
    42   6 C        2.924    -0.060    29.490     8.905
    43   6 C        2.922     0.043    27.046     8.528
    44   6 C        2.919    -0.040    29.006     8.832
    45   6 C        2.919    -0.027    28.674     8.781
    46   6 C        2.987    -0.002    28.068     8.691
    47   6 C        2.964     0.081    26.188     8.394
    48   7 N        1.847    -0.241    27.135     7.720
    49   6 C        2.964     0.081    26.188     8.394
    50   6 C        2.924    -0.047    29.171     8.857
    51   1 H        0.926     0.038     2.477     2.461
    52   1 H        0.926     0.036     2.508     2.476
    53   1 H        0.926     0.034     2.527     2.486
    54   1 H        0.926     0.050     2.315     2.380
    55   1 H        0.926     0.050     2.317     2.380
    56   1 H        0.926     0.038     2.477     2.461
    57   1 H        0.926     0.036     2.505     2.475
    58   1 H        0.926     0.035     2.518     2.481
    59   1 H        0.926     0.045     2.384     2.414
    60   1 H        0.926     0.060     2.195     2.317
    61   1 H        0.926     0.042     2.416     2.431
    62   1 H        0.926     0.055     2.254     2.348
    63   1 H        0.926     0.055     2.254     2.348
    64   1 H        0.926     0.042     2.416     2.431
    65   1 H        0.926     0.044     2.396     2.421
    66   1 H        0.926     0.034     2.528     2.486
    67   1 H        0.926     0.036     2.508     2.476
    68   1 H        0.926     0.038     2.477     2.461
    69   1 H        0.926     0.050     2.316     2.380
    70   1 H        0.926     0.050     2.317     2.380
    71   1 H        0.926     0.038     2.477     2.461
    72   1 H        0.926     0.036     2.505     2.475
    73   1 H        0.926     0.035     2.518     2.481
    74   1 H        0.926     0.045     2.383     2.414
    75   1 H        0.926     0.060     2.195     2.317
    76   1 H        0.926     0.044     2.396     2.421

molecular dipole:
                 x           y           z       tot (Debye)
 q only:        0.001       0.211       0.000
   full:        0.000       0.341       0.002       0.866

 projected vibrational frequencies (cm⁻¹)
eigval :       -0.00    -0.00     0.00     0.00     0.00     0.00
eigval :       10.51    10.52    16.71    23.00    26.37    32.26
eigval :       39.77    48.40    50.65    67.96    68.43   104.03
eigval :      112.07   117.78   129.73   137.99   144.56   162.42
eigval :      172.36   176.80   198.37   228.80   248.36   249.12
eigval :      250.74   258.92   265.24   269.49   273.29   295.78
eigval :      331.05   340.46   343.86   368.98   372.47   390.97
eigval :      396.86   401.12   405.54   407.59   420.58   425.49
eigval :      429.53   430.05   430.81   440.29   450.11   456.73
eigval :      491.36   495.48   502.78   510.13   510.24   512.32
eigval :      518.48   520.11   524.26   529.49   543.57   561.37
eigval :      564.21   572.77   579.98   595.66   611.40   622.32
eigval :      623.58   646.72   659.53   660.00   660.21   661.44
eigval :      661.53   668.29   674.75   691.44   720.62   738.52
eigval :      758.86   767.28   768.85   776.38   778.84   778.86
eigval :      778.95   779.09   804.40   810.55   812.22   822.08
eigval :      845.43   845.76   853.16   854.00   855.20   855.21
eigval :      864.01   864.02   866.37   866.60   887.39   887.87
eigval :      897.17   897.33   899.44   899.50   914.35   914.48
eigval :      915.49   915.53   917.75   917.87   921.90   922.50
eigval :      927.41   929.42   993.61   995.15  1013.14  1014.80
eigval :     1090.51  1090.53  1091.36  1091.47  1108.46  1108.47
eigval :     1115.55  1116.46  1122.86  1125.50  1146.75  1153.53
eigval :     1163.69  1165.20  1175.74  1175.74  1182.33  1183.13
eigval :     1193.80  1197.08  1201.81  1201.81  1225.53  1228.29
eigval :     1230.42  1233.92  1243.87  1244.07  1251.05  1261.66
eigval :     1262.30  1262.38  1281.98  1294.57  1303.63  1310.70
eigval :     1310.87  1319.03  1331.07  1336.44  1337.43  1349.96
eigval :     1352.87  1357.87  1365.67  1375.55  1379.73  1421.11
eigval :     1423.18  1424.96  1440.01  1440.31  1445.65  1447.33
eigval :     1460.59  1474.04  1488.63  1488.91  1492.17  1495.43
eigval :     1504.19  1505.14  1529.38  1543.22  1567.36  1567.37
eigval :     1580.59  1580.60  1585.16  1585.41  1590.97  1591.19
eigval :     1594.45  1603.48  1603.48  1606.47  3075.55  3075.68
eigval :     3082.60  3082.73  3088.34  3088.56  3088.62  3088.64
eigval :     3089.11  3089.20  3098.59  3098.61  3098.67  3098.71
eigval :     3101.53  3102.22  3105.23  3105.27  3105.88  3105.90
eigval :     3110.37  3112.11  3112.81  3112.81  3113.33  3113.40

   temp. (K)  partition function   enthalpy   heat capacity  entropy
                                   cal/mol     cal/K/mol   cal/K/mol   J/K/mol
 298.15  VIB  0.285E+17            21574.265    140.519    131.634
         ROT  0.645E+08              888.752      2.981     38.716
         INT  0.184E+25            22463.017    143.500    170.350
         TR   0.158E+29             1481.254      4.968     45.243
         TOT                       23944.2714   148.4678   215.5933   902.0423

       T/K    H(0)-H(T)+PV         H(T)/Eh          T*S/Eh         G(T)/Eh
   ------------------------------------------------------------------------
    298.15    0.381576E-01    0.603443E+00    0.102435E+00    0.501008E+00
   ------------------------------------------------------------------------

         :::::::::::::::::::::::::::::::::::::::::::::::::::::
         ::                  THERMODYNAMIC                  ::
         :::::::::::::::::::::::::::::::::::::::::::::::::::::
         :: total free energy        -126.893717103357 Eh   ::
         ::.................................................::
         :: total energy             -127.394724737088 Eh   ::
         :: zero point energy           0.565285338585 Eh   ::
         :: G(RRHO) w/o ZPVE           -0.064277704854 Eh   ::
         :: G(RRHO) contrib.            0.501007633731 Eh   ::
         :::::::::::::::::::::::::::::::::::::::::::::::::::::

           -------------------------------------------------
          | TOTAL ENERGY             -127.394724737088 Eh   |
          | TOTAL ENTHALPY           -126.791281773228 Eh   |
          | TOTAL FREE ENERGY        -126.893717103357 Eh   |
          | GRADIENT NORM               0.000037191818 Eh/α |
          | HOMO-LUMO GAP               1.030678607192 eV   |
           -------------------------------------------------

 * finished run on 2025/09/10 at 03:40:35.724
