   * xtb version 6.7.1 (edcfbbe) compiled by 'albert@albert-system' on 2024-07-22

   ID    Z sym.   atoms
    1    6 C      1-6, 8-13, 15-22, 24-29, 31-36, 38-47, 49, 50
    2    8 O      7, 37
    3    7 N      14, 23, 30, 48
    4    1 H      51-76

          program call               : xtb data2507/gas/POZDBPHZ/POZDBPHZ.xyz --gfn 2 --ohess vtight --parallel 40 --molden --ceasefiles --namespace data2507/gas/POZDBPHZ/POZDBPHZ_gas_S0_preOpt
          :  Hamiltonian                  GFN2-xTB          :
 * total energy  :  -127.3672808 Eh     change       -0.3887806E-08 Eh
 * total energy  :  -127.3844244 Eh     change       -0.1714363E-01 Eh
 * total energy  :  -127.3894602 Eh     change       -0.5035739E-02 Eh
 * total energy  :  -127.3906848 Eh     change       -0.1224676E-02 Eh
 * total energy  :  -127.3916021 Eh     change       -0.9172462E-03 Eh
 * total energy  :  -127.3919470 Eh     change       -0.3449464E-03 Eh
 * total energy  :  -127.3920982 Eh     change       -0.1511251E-03 Eh
 * total energy  :  -127.3922071 Eh     change       -0.1089542E-03 Eh
 * total energy  :  -127.3923016 Eh     change       -0.9444770E-04 Eh
 * total energy  :  -127.3923758 Eh     change       -0.7418153E-04 Eh
 * total energy  :  -127.3947201 Eh     change       -0.4153697E-06 Eh
 * total energy  :  -127.3947203 Eh     change       -0.2527945E-06 Eh
 * total energy  :  -127.3947205 Eh     change       -0.1979713E-06 Eh
 * total energy  :  -127.3947207 Eh     change       -0.2108950E-06 Eh
 * total energy  :  -127.3947210 Eh     change       -0.2528487E-06 Eh
 * total energy  :  -127.3947213 Eh     change       -0.2927299E-06 Eh
 * total energy  :  -127.3947216 Eh     change       -0.2788740E-06 Eh
 * total energy  :  -127.3947218 Eh     change       -0.2160006E-06 Eh
 * total energy  :  -127.3947218 Eh     change       -0.1494428E-08 Eh
   *** GEOMETRY OPTIMIZATION CONVERGED AFTER 185 ITERATIONS ***

 final structure:
================
76
 xtb: 6.7.1 (edcfbbe)
C            8.73370762860190       -3.31238726181360       -0.31415952344734
C            7.52603078292029       -3.35113848241640        0.35209353572867
C            6.63670753703877       -2.29158033071529        0.25481110055902
C            6.94596600212463       -1.16970758896557       -0.50381288701421
C            8.16036238421002       -1.15531423769285       -1.20335985359167
C            9.04455813340857       -2.21282461844095       -1.10061024584517
O            8.52501203182881       -0.11929169018909       -2.02691057974527
C            7.65520338152623        0.93672550146345       -2.13934986190385
C            8.03967421592964        1.98042445859884       -2.95998209860541
C            7.22852984703569        3.09711025170857       -3.09958948571051
C            6.04240059497793        3.16754236848063       -2.39811568758462
C            5.65126607608472        2.12254375100237       -1.57464715069179
C            6.43637553323120        0.98334433122647       -1.44952386202551
N            6.07289699782768       -0.08607412257453       -0.62752903473752
C            4.84091730908646       -0.07073139106146        0.05878673140508
C            3.64031777396994       -0.05305487476918       -0.66747092749767
C            2.43778092312010       -0.03919890957778       -0.00852794925358
C            2.38958635224100       -0.04639873353219        1.39153524658456
C            3.59314843480721       -0.06879009449791        2.12941270452610
C            3.55019824340088       -0.07415296104741        3.55833924085434
C            2.37793469300621       -0.05867098129062        4.23107429722434
C            1.13904258199261       -0.03662278476360        3.52503648718089
N            0.00017598147843       -0.01935114051419        4.21162293791567
C           -1.13894042655753        0.00140831374868        3.52554307826916
C           -2.37753421339936        0.02158807945484        4.23215860556940
C           -3.55001502027518        0.04269176600511        3.55995582002940
C           -3.59349443984569        0.04474269648386        2.13103554200260
C           -4.81167511091146        0.06052182482290        1.44145502301952
C           -4.84200564047513        0.06254731283098        0.06089957681934
N           -6.07434808498314        0.08875585820808       -0.62446921165474
C           -6.93966516570574        1.17801800639145       -0.49540379245081
C           -6.62296196518776        2.29339417987160        0.26970490080705
C           -7.50458616554029        3.35888918277884        0.37204385590015
C           -8.71184891292826        3.33270086833840       -0.29556035751096
C           -9.03004918216731        2.23972911712363       -1.08822424318281
C           -8.15359600998782        1.17627371093911       -1.19589232548042
O           -8.52528556657852        0.14729898055453       -2.02510166308998
C           -7.66197577761547       -0.91327470062014       -2.14455636934860
C           -8.05245976684855       -1.94872558479660       -2.97275045275615
C           -7.24813057452032       -3.06936521309791       -3.11989559539153
C           -6.06275284500932       -3.15203738241077       -2.41849094221994
C           -5.66559511432629       -2.11535128712163       -1.58742741587552
C           -6.44381931191864       -0.97232820626790       -1.45448460538293
C           -3.64177975468583        0.04358889108823       -0.66592322154718
C           -2.43906101115426        0.02218904764750       -0.00749048745481
C           -2.39028546721298        0.02274182618802        1.39257253013288
C           -1.13969987992864        0.00310105562989        2.09864395446440
N           -0.00035559929057       -0.01305195838693        1.41367708806579
C            1.13924915692562       -0.03189165870612        2.09814849764665
C            4.81112952450292       -0.07665092431121        1.43934149054215
H            9.43105693830097       -4.13158857450799       -0.23812862291066
H            7.26023846474236       -4.20773305911402        0.95230235590553
H            5.68885555548059       -2.34357917685343        0.76727475071092
H            9.97058666863941       -2.15856483005394       -1.65033089635650
H            8.98207265431823        1.90183280763752       -3.47801485618855
H            7.53535253823907        3.90515888121729       -3.74465711546255
H            5.40972384988671        4.03792336327904       -2.48027331451742
H            4.72971912664067        2.19848671819596       -1.01897487630214
H            3.67977525342190       -0.05790958978198       -1.74668574747964
H            1.50529527506426       -0.03060663674666       -0.55004746171633
H            4.49033817283369       -0.09103001571469        4.09102655548791
H            2.33382196737262       -0.06193784811998        5.30907622733965
H           -2.33300095245638        0.01949197076786        5.31014738491952
H           -4.48992767457795        0.05886404029178        4.09306826409990
H           -5.73780970843397        0.06797481766583        1.99830768614251
H           -5.67528231745035        2.33568570486051        0.78336741099139
H           -7.23308584669969        4.21014474216489        0.97727213722719
H           -9.40317671066971        4.15662973581593       -0.21574648839701
H           -9.95593587221233        2.19526380823313       -1.63906017784061
H           -8.99410097641090       -1.86064888943676       -3.49063681321411
H           -7.55965611671546       -3.87093723597949       -3.77076606369313
H           -5.43541467959203       -4.02569637632961       -2.50658647126125
H           -4.74479465072404       -2.20082170706972       -1.03188799823660
H           -3.68156077256544        0.05403770636500       -1.74508906700662
H           -1.50682142040481        0.01311920344983       -0.54942922050686
H            5.73748011977747       -0.08346482125665        1.99584200399717

          :  Hamiltonian                  GFN2-xTB          :
         :: gradient norm              0.000028798738 Eh/a0 ::
         :: HOMO-LUMO gap              1.023618493012 eV    ::
         :: SCC energy              -129.621942919594 Eh    ::
         :: -> dispersion             -0.109022639633 Eh    ::
         :: repulsion energy           2.227221132363 Eh    ::

    * Orbital Energies and Occupations

         #    Occupation            Energy/Eh            Energy/eV
      -------------------------------------------------------------
         1        2.0000           -0.7268885             -19.7796
       ...           ...                  ...                  ...
       105        2.0000           -0.4161858             -11.3250
       106        2.0000           -0.4151529             -11.2969
       107        2.0000           -0.4150000             -11.2927
       108        2.0000           -0.4149941             -11.2926
       109        2.0000           -0.4119531             -11.2098
       110        2.0000           -0.4118974             -11.2083
       111        2.0000           -0.3968943             -10.8000
       112        2.0000           -0.3944580             -10.7337
       113        2.0000           -0.3892686             -10.5925
       114        2.0000           -0.3887957             -10.5797
       115        2.0000           -0.3534312              -9.6174
       116        2.0000           -0.3426154              -9.3230
       117        2.0000           -0.3423408              -9.3156 (HOMO)
       118                         -0.3047235              -8.2919 (LUMO)
       119                         -0.2798057              -7.6139
       120                         -0.2559672              -6.9652
       121                         -0.2459585              -6.6929
       122                         -0.2375141              -6.4631
       123                         -0.2375079              -6.4629
       124                         -0.2289518              -6.2301
       125                         -0.2289149              -6.2291
       126                         -0.2249261              -6.1206
       127                         -0.2157702              -5.8714
       128                         -0.2119789              -5.7682
       ...                                ...                  ...
       226                          0.7160107              19.4836
      -------------------------------------------------------------
                  HL-Gap            0.0376173 Eh            1.0236 eV

     #   Z          covCN         q      C6AA      α(0)
     1   6 C        2.919    -0.040    29.002     8.831
     2   6 C        2.919    -0.039    28.963     8.825
     3   6 C        2.924    -0.060    29.498     8.907
     4   6 C        2.922     0.042    27.048     8.529
     5   6 C        2.884     0.125    25.264     8.240
     6   6 C        2.920    -0.056    29.397     8.891
     7   8 O        1.709    -0.255    18.228     5.764
     8   6 C        2.884     0.125    25.265     8.240
     9   6 C        2.920    -0.056    29.398     8.891
    10   6 C        2.919    -0.040    29.000     8.831
    11   6 C        2.919    -0.039    28.963     8.825
    12   6 C        2.924    -0.060    29.490     8.906
    13   6 C        2.922     0.043    27.045     8.528
    14   7 N        2.752    -0.071    22.613     7.063
    15   6 C        2.918     0.068    26.481     8.439
    16   6 C        2.919    -0.040    29.003     8.831
    17   6 C        2.919    -0.027    28.673     8.781
    18   6 C        2.987    -0.002    28.066     8.690
    19   6 C        2.983     0.013    27.724     8.637
    20   6 C        2.914    -0.032    28.793     8.799
    21   6 C        2.913    -0.040    28.999     8.830
    22   6 C        2.965     0.084    26.115     8.382
    23   7 N        1.849    -0.238    27.075     7.712
    24   6 C        2.965     0.084    26.115     8.382
    25   6 C        2.913    -0.040    28.999     8.830
    26   6 C        2.914    -0.032    28.793     8.799
    27   6 C        2.983     0.013    27.725     8.637
    28   6 C        2.924    -0.047    29.167     8.857
    29   6 C        2.918     0.068    26.481     8.439
    30   7 N        2.752    -0.071    22.614     7.063
    31   6 C        2.922     0.042    27.048     8.529
    32   6 C        2.924    -0.060    29.498     8.907
    33   6 C        2.919    -0.039    28.963     8.825
    34   6 C        2.919    -0.040    29.002     8.831
    35   6 C        2.920    -0.056    29.397     8.891
    36   6 C        2.884     0.125    25.264     8.240
    37   8 O        1.709    -0.255    18.228     5.764
    38   6 C        2.884     0.125    25.265     8.240
    39   6 C        2.920    -0.056    29.398     8.891
    40   6 C        2.919    -0.040    29.000     8.831
    41   6 C        2.919    -0.039    28.963     8.825
    42   6 C        2.924    -0.060    29.490     8.905
    43   6 C        2.922     0.043    27.045     8.528
    44   6 C        2.919    -0.040    29.003     8.831
    45   6 C        2.919    -0.027    28.673     8.781
    46   6 C        2.987    -0.002    28.066     8.690
    47   6 C        2.964     0.081    26.188     8.394
    48   7 N        1.847    -0.240    27.132     7.720
    49   6 C        2.964     0.081    26.188     8.394
    50   6 C        2.924    -0.047    29.167     8.857
    51   1 H        0.926     0.038     2.477     2.461
    52   1 H        0.926     0.036     2.509     2.477
    53   1 H        0.926     0.034     2.530     2.487
    54   1 H        0.926     0.050     2.316     2.380
    55   1 H        0.926     0.050     2.317     2.380
    56   1 H        0.926     0.038     2.477     2.461
    57   1 H        0.926     0.036     2.505     2.475
    58   1 H        0.926     0.035     2.521     2.483
    59   1 H        0.926     0.045     2.383     2.414
    60   1 H        0.926     0.060     2.194     2.316
    61   1 H        0.926     0.043     2.415     2.430
    62   1 H        0.926     0.055     2.254     2.348
    63   1 H        0.926     0.055     2.254     2.348
    64   1 H        0.926     0.043     2.415     2.430
    65   1 H        0.926     0.044     2.395     2.420
    66   1 H        0.926     0.034     2.530     2.487
    67   1 H        0.926     0.036     2.509     2.477
    68   1 H        0.926     0.038     2.477     2.461
    69   1 H        0.926     0.050     2.316     2.380
    70   1 H        0.926     0.050     2.317     2.380
    71   1 H        0.926     0.038     2.477     2.461
    72   1 H        0.926     0.036     2.505     2.475
    73   1 H        0.926     0.035     2.522     2.483
    74   1 H        0.926     0.045     2.383     2.414
    75   1 H        0.926     0.060     2.194     2.316
    76   1 H        0.926     0.044     2.395     2.420

molecular dipole:
                 x           y           z       tot (Debye)
 q only:        0.001      -0.002       0.224
   full:        0.001      -0.003       0.353       0.898

 projected vibrational frequencies (cm⁻¹)
eigval :       -0.00    -0.00    -0.00     0.00     0.00     0.00
eigval :       10.40    10.42    16.58    22.96    26.28    31.75
eigval :       39.67    47.94    50.06    67.63    68.39   103.81
eigval :      111.97   117.30   129.40   137.74   144.40   162.10
eigval :      171.66   176.40   197.84   228.67   248.43   249.10
eigval :      250.38   258.88   264.82   269.46   273.16   295.43
eigval :      331.00   340.28   343.59   369.17   372.44   390.71
eigval :      396.90   400.99   405.10   407.53   420.61   425.53
eigval :      429.53   429.77   430.48   439.96   449.96   456.47
eigval :      491.71   494.87   502.79   510.14   510.25   512.13
eigval :      518.50   520.06   524.14   529.28   543.42   561.34
eigval :      564.22   572.74   579.92   595.74   611.39   622.37
eigval :      623.59   646.71   659.50   659.96   660.22   661.36
eigval :      661.44   668.30   674.80   691.50   720.69   738.60
eigval :      758.86   767.28   768.89   776.38   778.77   778.78
eigval :      778.87   779.02   804.36   810.53   812.05   821.93
eigval :      845.28   845.65   853.20   854.04   855.11   855.12
eigval :      863.90   863.92   866.06   866.27   887.04   887.53
eigval :      897.03   897.18   899.15   899.19   914.33   914.45
eigval :      915.35   915.39   917.80   917.94   921.90   922.51
eigval :      926.92   928.99   993.62   995.14  1013.14  1014.79
eigval :     1090.41  1090.44  1091.25  1091.37  1108.43  1108.44
eigval :     1115.44  1116.34  1122.82  1125.49  1146.67  1153.46
eigval :     1163.67  1165.18  1175.77  1175.77  1182.23  1183.01
eigval :     1193.73  1196.99  1201.67  1201.67  1225.46  1228.19
eigval :     1230.30  1233.92  1243.83  1244.02  1251.02  1261.61
eigval :     1262.27  1262.35  1281.90  1294.62  1303.72  1310.75
eigval :     1310.93  1318.99  1331.09  1336.78  1337.77  1349.96
eigval :     1353.00  1357.93  1365.60  1375.53  1379.74  1421.18
eigval :     1423.26  1424.98  1440.01  1440.33  1445.63  1447.29
eigval :     1460.57  1474.02  1488.80  1489.10  1492.31  1495.46
eigval :     1504.31  1505.25  1529.42  1543.31  1567.34  1567.36
eigval :     1580.62  1580.64  1585.26  1585.50  1591.02  1591.23
eigval :     1594.39  1603.53  1603.54  1606.41  3075.60  3075.73
eigval :     3082.65  3082.78  3088.33  3088.53  3088.58  3088.59
eigval :     3089.08  3089.20  3098.49  3098.50  3098.57  3098.61
eigval :     3101.53  3102.22  3105.08  3105.12  3105.72  3105.74
eigval :     3110.46  3112.21  3112.79  3112.79  3113.32  3113.38

   temp. (K)  partition function   enthalpy   heat capacity  entropy
                                   cal/mol     cal/K/mol   cal/K/mol   J/K/mol
 298.15  VIB  0.313E+17            21585.135    140.502    131.745
         ROT  0.646E+08              888.752      2.981     38.718
         INT  0.202E+25            22473.887    143.483    170.463
         TR   0.158E+29             1481.254      4.968     45.243
         TOT                       23955.1411   148.4511   215.7063   902.5150

       T/K    H(0)-H(T)+PV         H(T)/Eh          T*S/Eh         G(T)/Eh
   ------------------------------------------------------------------------
    298.15    0.381749E-01    0.603424E+00    0.102489E+00    0.500935E+00
   ------------------------------------------------------------------------

         :::::::::::::::::::::::::::::::::::::::::::::::::::::
         ::                  THERMODYNAMIC                  ::
         :::::::::::::::::::::::::::::::::::::::::::::::::::::
         :: total free energy        -126.893786876780 Eh   ::
         ::.................................................::
         :: total energy             -127.394721787231 Eh   ::
         :: zero point energy           0.565248968657 Eh   ::
         :: G(RRHO) w/o ZPVE           -0.064314058206 Eh   ::
         :: G(RRHO) contrib.            0.500934910451 Eh   ::
         :::::::::::::::::::::::::::::::::::::::::::::::::::::

           -------------------------------------------------
          | TOTAL ENERGY             -127.394721787231 Eh   |
          | TOTAL ENTHALPY           -126.791297871313 Eh   |
          | TOTAL FREE ENERGY        -126.893786876780 Eh   |
          | GRADIENT NORM               0.000028795832 Eh/α |
          | HOMO-LUMO GAP               1.023618348728 eV   |
           -------------------------------------------------

 * finished run on 2025/09/10 at 03:36:38.939
