   * xtb version 6.7.1 (edcfbbe) compiled by 'albert@albert-system' on 2024-07-22

   ID    Z sym.   atoms
    1    6 C      1-6, 8-13, 15-22, 24-29, 31-36, 38-47, 49, 50
    2    8 O      7, 37
    3    7 N      14, 23, 30, 48
    4    1 H      51-76

          program call               : xtb data2507/gas/POZDBPHZ/POZDBPHZ_gas_T1_crest.xyz --gfn 2 --spinpol --tblite --uhf 2 --ohess vtight --parallel 40 --molden --ceasefiles --namespace data2507/gas/POZDBPHZ/POZDBPHZ_gas_T1_finalOpt
 * total energy  :  -127.3533071 Eh     change       -0.2041942E-07 Eh
 * total energy  :  -127.3533301 Eh     change       -0.2302285E-04 Eh
 * total energy  :  -127.3533341 Eh     change       -0.4021468E-05 Eh
 * total energy  :  -127.3533347 Eh     change       -0.6177598E-06 Eh
 * total energy  :  -127.3533350 Eh     change       -0.2619345E-06 Eh
 * total energy  :  -127.3533356 Eh     change       -0.5632037E-06 Eh
 * total energy  :  -127.3533365 Eh     change       -0.9441663E-06 Eh
 * total energy  :  -127.3533372 Eh     change       -0.7066934E-06 Eh
 * total energy  :  -127.3533377 Eh     change       -0.4948576E-06 Eh
 * total energy  :  -127.3533381 Eh     change       -0.4263301E-06 Eh
 * total energy  :  -127.3533389 Eh     change       -0.1959603E-06 Eh
 * total energy  :  -127.3533391 Eh     change       -0.2032812E-06 Eh
 * total energy  :  -127.3533393 Eh     change       -0.2409282E-06 Eh
 * total energy  :  -127.3533396 Eh     change       -0.3123324E-06 Eh
 * total energy  :  -127.3533399 Eh     change       -0.3309803E-06 Eh
 * total energy  :  -127.3533402 Eh     change       -0.2469178E-06 Eh
 * total energy  :  -127.3533403 Eh     change       -0.1502331E-06 Eh
 * total energy  :  -127.3533405 Eh     change       -0.1158168E-06 Eh
 * total energy  :  -127.3533405 Eh     change       -0.8675514E-07 Eh
   *** GEOMETRY OPTIMIZATION CONVERGED AFTER 21 ITERATIONS ***

 final structure:
================
76
 xtb: 6.7.1 (edcfbbe)
C            7.23933279920818       -2.78433068115096        3.55118898592828
C            6.06105058192669       -2.06307437083504        3.56070514905867
C            5.66257002860469       -1.35518245375680        2.43836515620607
C            6.43569739666219       -1.36555954149544        1.28261555975196
C            7.64196265671787       -2.08229083575556        1.29051167980579
C            8.03313284022498       -2.78703164777513        2.41392451790201
O            8.48355255940052       -2.11053146729375        0.20816228210769
C            8.10526534264820       -1.40989388806761       -0.90856036340625
C            8.95900278252163       -1.44804960384954       -1.99561501661999
C            8.63001326934164       -0.78078454489274       -3.16590220752775
C            7.43806481248262       -0.08667120110462       -3.24423465039353
C            6.57886009796658       -0.04261308084926       -2.15835937023538
C            6.90280435968036       -0.68899803800238       -0.97063325749453
N            6.06463162374875       -0.66696347540024        0.13913484165572
C            4.83636207578810        0.04095552486564        0.10268567858805
C            3.62526344497047       -0.68027172315222        0.11162595114517
C            2.43479035111386       -0.01182755047768        0.06822952655097
C            2.39617976069185        1.39428637727129        0.00953516775326
C            3.61567473448115        2.12438675500938        0.00159246955577
C            3.57825033800615        3.53340995744425       -0.05316736063411
C            2.38828821522500        4.20490748224572       -0.10088124443582
C            1.15955419425341        3.51852030539214       -0.10113046183068
N           -0.00377263591274        4.16601353716474       -0.15303347733790
C           -1.16566371515851        3.51385473519711       -0.15073228845148
C           -2.39576198089926        4.19480021324134       -0.21451389125074
C           -3.58409190368281        3.51875834401230       -0.21195549163157
C           -3.61843157086113        2.11004327577509       -0.14758752836290
C           -4.82918325827658        1.39278784243402       -0.15231675184710
C           -4.83460381899271        0.02223859514648       -0.08675575119201
N           -6.06056430382548       -0.69002745042900       -0.08427718318601
C           -6.40630500764005       -1.48908298353509       -1.16877703159117
C           -5.60676896990407       -1.58320901254525       -2.30262802374979
C           -5.97987373538243       -2.39054581618781       -3.36494292661282
C           -7.15908941223703       -3.10873200501603       -3.31760354657785
C           -7.97951625522241       -3.00775693429357       -2.20402261736686
C           -7.61359670016464       -2.20352676688345       -1.14046677506602
O           -8.48132661097554       -2.13267847185526       -0.08103155571321
C           -8.13010169952772       -1.33064213594252        0.97457097389889
C           -9.01230971411544       -1.26629797099857        2.03740716219487
C           -8.71181924150717       -0.49335441694061        3.14880147939336
C           -7.51945486864600        0.20299809808330        3.19394121544798
C           -6.63196105221454        0.14479935726403        2.13174309361263
C           -6.92730593099291       -0.60809535373076        1.00061727770990
C           -3.62209922755219       -0.69364681510393       -0.01868932860766
C           -2.43328022264308       -0.02091688124876       -0.02043575000708
C           -2.39755662301830        1.38509992760619       -0.08333945996010
C           -1.16175234669557        2.08323700428419       -0.08454872118281
N           -0.00082344548942        1.43567597298767       -0.03462266624634
C            1.15871859314726        2.08753800092446       -0.04330871659282
C            4.82829947223489        1.41206863581925        0.05322421645706
H            7.55087877663877       -3.33825676764071        4.42252472803161
H            5.44204879514789       -2.04240492625524        4.44431668865924
H            4.74704348685624       -0.78519836941251        2.45781622646879
H            8.96472288117915       -3.32882171818725        2.37946649837204
H            9.87516347591582       -2.00960938247900       -1.90672802666442
H            9.30231366094122       -0.81433157324786       -4.00850186327235
H            7.16462309503616        0.42567653869333       -4.15368431362353
H            5.64545200187667        0.49282152037646       -2.23201204594127
H            3.65846662470248       -1.75894772930021        0.14808867525084
H            1.49687067832657       -0.54537190531374        0.07027551812204
H            4.51044433896876        4.07848161925352       -0.05714845880705
H            2.35546946794928        5.28253572243326       -0.14268001965355
H           -2.36529322705703        5.27214343463135       -0.26461892343432
H           -4.51734729740924        4.05987480828449       -0.26029980806817
H           -5.76273178545225        1.93475730279515       -0.20743303539389
H           -4.69036285907338       -1.01663891154577       -2.35318936964848
H           -5.34020587414185       -2.44983817334035       -4.23193372441498
H           -7.45087184067325       -3.73997841844171       -4.14192284169221
H           -8.91288861398931       -3.54404508262165       -2.14247685530668
H           -9.92783642084131       -1.83264008520167        1.97679906794251
H           -9.40630213680750       -0.44719325303708        3.97260242950538
H           -7.26784468116146        0.79707218237289        4.05889194792586
H           -5.69853929842595        0.68303446686608        2.18047541502053
H           -3.65292488973878       -1.77153092076010        0.03780465443510
H           -1.49453115816443       -0.55031684797867        0.03303611717427
H            5.76113688338780        1.95802666485816        0.05043477960074

 projected vibrational frequencies (cm⁻¹)
eigval :       -0.00    -0.00    -0.00    -0.00    -0.00     0.00
eigval :        7.83     9.33    16.65    21.96    26.08    27.95
eigval :       41.32    49.06    49.25    63.27    69.36   104.37
eigval :      110.36   114.34   127.23   136.07   140.09   153.68
eigval :      164.59   179.32   195.75   227.20   237.81   247.45
eigval :      248.42   258.43   261.87   269.17   272.72   296.40
eigval :      330.15   336.22   355.95   369.82   372.63   386.26
eigval :      392.43   398.01   401.92   408.87   419.52   426.09
eigval :      428.33   428.87   429.50   437.86   454.14   454.85
eigval :      491.89   492.39   507.05   507.13   507.29   507.50
eigval :      515.36   519.20   521.46   525.83   528.95   555.64
eigval :      562.18   570.87   576.95   592.75   607.47   611.93
eigval :      621.54   640.66   642.14   659.81   661.30   662.38
eigval :      664.02   664.26   665.03   674.65   709.86   710.71
eigval :      711.59   756.38   763.71   765.79   777.49   777.58
eigval :      777.85   778.01   799.18   799.77   800.25   801.91
eigval :      822.50   823.06   851.01   854.43   854.89   854.98
eigval :      863.47   863.50   864.20   864.30   875.92   876.94
eigval :      883.09   883.98   896.92   896.98   898.33   898.35
eigval :      910.16   912.66   914.98   915.09   915.39   915.72
eigval :      917.75   917.83   990.08   991.98   994.43  1021.59
eigval :     1087.38  1087.47  1088.28  1088.60  1106.56  1109.85
eigval :     1109.90  1113.12  1117.93  1120.66  1147.45  1152.25
eigval :     1162.31  1164.06  1174.30  1174.63  1180.29  1180.81
eigval :     1197.46  1198.01  1202.73  1202.77  1221.53  1222.31
eigval :     1230.92  1231.80  1240.91  1241.10  1244.66  1247.27
eigval :     1258.49  1259.13  1273.19  1285.40  1294.20  1299.29
eigval :     1311.98  1313.28  1313.69  1319.74  1332.52  1335.10
eigval :     1341.78  1348.09  1352.11  1358.41  1380.18  1386.14
eigval :     1410.33  1422.28  1422.51  1424.01  1426.74  1443.69
eigval :     1444.07  1468.83  1471.27  1472.85  1473.16  1484.95
eigval :     1488.83  1489.84  1511.71  1516.38  1548.12  1548.41
eigval :     1563.58  1563.60  1574.01  1574.05  1581.31  1583.70
eigval :     1584.07  1585.91  1596.53  1597.91  3077.44  3077.56
eigval :     3082.64  3082.83  3085.65  3086.11  3091.16  3091.17
eigval :     3091.26  3091.28  3098.76  3099.09  3099.95  3100.52
eigval :     3100.59  3100.68  3100.76  3101.40  3107.90  3108.05
eigval :     3108.09  3108.25  3113.45  3113.56  3113.60  3113.98

   temp. (K)  partition function   enthalpy   heat capacity  entropy
                                   cal/mol     cal/K/mol   cal/K/mol   J/K/mol
 298.15  VIB  0.694E+17            21763.398    141.553    133.292
         ROT  0.130E+09              888.752      2.981     40.102
         INT  0.899E+25            22652.151    144.534    173.394
         TR   0.158E+29             1481.254      4.968     45.243
         TOT                       24133.4047   149.5022   218.6376   914.7796

       T/K    H(0)-H(T)+PV         H(T)/Eh          T*S/Eh         G(T)/Eh
   ------------------------------------------------------------------------
    298.15    0.384590E-01    0.600983E+00    0.103882E+00    0.497101E+00
   ------------------------------------------------------------------------

         :::::::::::::::::::::::::::::::::::::::::::::::::::::
         ::                  THERMODYNAMIC                  ::
         :::::::::::::::::::::::::::::::::::::::::::::::::::::
         :: total free energy        -126.856239596798 Eh   ::
         ::.................................................::
         :: total energy             -127.353340560386 Eh   ::
         :: zero point energy           0.562523699397 Eh   ::
         :: G(RRHO) w/o ZPVE           -0.065422735809 Eh   ::
         :: G(RRHO) contrib.            0.497100963588 Eh   ::
         :::::::::::::::::::::::::::::::::::::::::::::::::::::

           -------------------------------------------------
          | TOTAL ENERGY             -127.353340560386 Eh   |
          | TOTAL ENTHALPY           -126.752357832575 Eh   |
          | TOTAL FREE ENERGY        -126.856239596798 Eh   |
          | GRADIENT NORM               0.000047156971 Eh/α |
           -------------------------------------------------

 * finished run on 2025/09/10 at 03:47:21.071
