   * xtb version 6.7.1 (edcfbbe) compiled by 'albert@albert-system' on 2024-07-22

   ID    Z sym.   atoms
    1    7 N      1, 7, 13, 34, 50
    2    6 C      2-6, 8-12, 14-19, 21-33, 35-40, 42-49, 51, 52
    3    8 O      20, 41
    4    1 H      53-79

          program call               : xtb data2507/gas/CN-QP/CN-QP.xyz --gfn 2 --ohess vtight --parallel 40 --molden --ceasefiles --namespace data2507/gas/CN-QP/CN-QP_gas_S0_preOpt
          :  Hamiltonian                  GFN2-xTB          :
 * total energy  :  -132.8710438 Eh     change       -0.2176932E-08 Eh
 * total energy  :  -132.8867104 Eh     change       -0.1566667E-01 Eh
 * total energy  :  -132.8923528 Eh     change       -0.5642345E-02 Eh
 * total energy  :  -132.8941998 Eh     change       -0.1846969E-02 Eh
 * total energy  :  -132.8952432 Eh     change       -0.1043458E-02 Eh
 * total energy  :  -132.8962772 Eh     change       -0.1033970E-02 Eh
 * total energy  :  -132.8968476 Eh     change       -0.5704679E-03 Eh
 * total energy  :  -132.8976084 Eh     change       -0.7607036E-03 Eh
 * total energy  :  -132.8981908 Eh     change       -0.5824931E-03 Eh
 * total energy  :  -132.8988767 Eh     change       -0.6858140E-03 Eh
 * total energy  :  -132.9004274 Eh     change       -0.7123623E-06 Eh
 * total energy  :  -132.9004282 Eh     change       -0.7738348E-06 Eh
 * total energy  :  -132.9004290 Eh     change       -0.7989781E-06 Eh
 * total energy  :  -132.9004298 Eh     change       -0.8445110E-06 Eh
 * total energy  :  -132.9004307 Eh     change       -0.8390712E-06 Eh
 * total energy  :  -132.9004315 Eh     change       -0.8622860E-06 Eh
 * total energy  :  -132.9004323 Eh     change       -0.8107517E-06 Eh
 * total energy  :  -132.9004332 Eh     change       -0.8353176E-06 Eh
 * total energy  :  -132.9004332 Eh     change       -0.5271232E-08 Eh
   *** GEOMETRY OPTIMIZATION CONVERGED AFTER 68 ITERATIONS ***

 final structure:
================
79
 xtb: 6.7.1 (edcfbbe)
N            5.72327341592407        8.84501207715876       -0.44726600894320
C            4.84615870740109        8.12079394544430       -0.30607852516493
C            3.75628210623246        7.23599005678019       -0.13110713279385
C            2.49624020077388        7.76652798538717        0.23475268488613
C            1.42121061464715        6.94144797606022        0.39926960824253
C            1.56516499228444        5.55331437550251        0.20265828346366
N            0.49038385669752        4.74582308111575        0.27199525209912
C            0.65759797650348        3.45764995118184        0.10096802930740
C           -0.54195638422977        2.61850060289433        0.06374281906318
C           -0.65862455006403        1.55846514006191       -0.83662956893953
C           -1.76376213131313        0.73622416989571       -0.80236897957967
C           -2.77625175592577        0.95704396751230        0.12953483641030
N           -3.86813127104569        0.07008561707296        0.19635134161371
C           -3.65950461094187       -1.26452413104696        0.55518731230309
C           -2.41801332792280       -1.73650039449288        0.96225954748734
C           -2.24506042945189       -3.06597247385077        1.31622497376131
C           -3.31030141691874       -3.94188933784074        1.27486693551829
C           -4.56399778859007       -3.47837782154108        0.90391394701195
C           -4.74360420939115       -2.15196733592278        0.55782625153190
O           -6.01848605636586       -1.75609271866079        0.23910168629547
C           -6.21742739078094       -0.42766951644265       -0.04618533379385
C           -7.51359828568643       -0.03260199458797       -0.31928373220655
C           -7.78853446818825        1.28555609268829       -0.65274994756376
C           -6.75606089742267        2.19809296906326       -0.72690822866882
C           -5.45432993681624        1.80831069011634       -0.45024174821125
C           -5.16723385340344        0.49946208446683       -0.08500955462309
C           -2.68974809204892        2.04666660221283        0.99210846273801
C           -1.58564530117951        2.87305688200448        0.95152686763567
C            1.97659256534236        2.90206623151516       -0.04908448108281
C            2.21165496548493        1.45617040124762       -0.02699810517265
C            3.12189425019265        0.89432278631321       -0.91996338692010
C            3.29937769261455       -0.47304323704580       -0.97342661812817
C            2.57826120358351       -1.30269970676390       -0.11900701831432
N            2.70334502975646       -2.70347731090176       -0.19898121258335
C            1.60252483336840       -3.47972450671139       -0.57099131655069
C            0.40210234508790       -2.91354788768245       -0.98103195760194
C           -0.67062663410686       -3.71188764755000       -1.34809043551845
C           -0.55832303478731       -5.08664995971886       -1.31683489105155
C            0.64471147165539       -5.66719221837588       -0.94256109556873
C            1.71987891361957       -4.87578993389911       -0.58343537007857
O            2.88927080804350       -5.51797323942808       -0.26140192781732
C            3.98029430975767       -4.73811217961690        0.03489723362303
C            5.16486714398522       -5.39559190223290        0.30889175647817
C            6.30105147751944       -4.67770205270055        0.65266815510896
C            6.23728336126233       -3.30177001132737        0.73573623644199
C            5.05255580000469       -2.63657568903901        0.45824842750551
C            3.91468993401400       -3.33911191501167        0.08350939281044
C            1.71355905880546       -0.74001449887912        0.81782470284516
C            1.53255143841065        0.62523232507713        0.86506491261351
N            3.01543373500690        3.68243014034457       -0.20850090713099
C            2.84131081282379        5.01666577167464       -0.12659588153950
C            3.93305833416874        5.88028292609815       -0.30967460881267
H            2.40269759356705        8.83336642937264        0.37443362016624
H            0.44810082388067        7.32328383491839        0.66549945029677
H            0.11041854495488        1.39044164041116       -1.57589471510896
H           -1.85321121048721       -0.08824684862387       -1.49416969416551
H           -1.57977257083701       -1.05865895993953        1.00499790016407
H           -1.26929010671972       -3.41005457633927        1.62165834082209
H           -3.17785874317432       -4.97885054889223        1.53895336287985
H           -5.42148197588125       -4.13174018575181        0.88235954137046
H           -8.29408749416179       -0.77506789349313       -0.27296541365456
H           -8.80319997327553        1.58469140841917       -0.86256759479831
H           -6.95114044801749        3.22244815315736       -1.00456210328676
H           -4.65399244767344        2.52712533550719       -0.53019039108631
H           -3.48183731243551        2.22625682743882        1.70374770175615
H           -1.50091201039206        3.70997575900431        1.62735870945428
H            3.66352520415272        1.54495140101629       -1.58904966304726
H            3.98106149416832       -0.90880727609065       -1.68859908095272
H            0.30590032545309       -1.83951478527004       -1.01566040997783
H           -1.59495129977634       -3.24840184865211       -1.65580225840259
H           -1.39333635666471       -5.71122310353906       -1.59117053630297
H            0.77210225162265       -6.73780026758498       -0.92835708581932
H            5.17541554905138       -6.47242700063883        0.25506912404152
H            7.22114522438076       -5.19941749719905        0.86312644852229
H            7.10733384994905       -2.73067987860199        1.02084763069775
H            5.01125243674492       -1.56212854543749        0.54477402066784
H            1.18409593089127       -1.38567361970869        1.50278262090208
H            0.87490368837490        1.05238227770861        1.60758067516781
H            4.89375850388989        5.46503454116057       -0.57292288274432

          :  Hamiltonian                  GFN2-xTB          :
         :: gradient norm              0.000060598813 Eh/a0 ::
         :: HOMO-LUMO gap              0.862926831462 eV    ::
         :: SCC energy              -135.255929695037 Eh    ::
         :: -> dispersion             -0.120736927159 Eh    ::
         :: repulsion energy           2.355496521776 Eh    ::

    * Orbital Energies and Occupations

         #    Occupation            Energy/Eh            Energy/eV
      -------------------------------------------------------------
         1        2.0000           -0.7306277             -19.8814
       ...           ...                  ...                  ...
       110        2.0000           -0.4258442             -11.5878
       111        2.0000           -0.4238464             -11.5334
       112        2.0000           -0.4198872             -11.4257
       113        2.0000           -0.4181028             -11.3772
       114        2.0000           -0.4167011             -11.3390
       115        2.0000           -0.4157404             -11.3129
       116        2.0000           -0.4146102             -11.2821
       117        2.0000           -0.4071989             -11.0804
       118        2.0000           -0.3940354             -10.7222
       119        2.0000           -0.3914094             -10.6508
       120        2.0000           -0.3682379             -10.0203
       121        2.0000           -0.3470616              -9.4440
       122        2.0000           -0.3456201              -9.4048 (HOMO)
       123        0.0000           -0.3139081              -8.5419 (LUMO)
       124                         -0.2872466              -7.8164
       125                         -0.2593571              -7.0575
       126                         -0.2509681              -6.8292
       127                         -0.2453202              -6.6755
       128                         -0.2425434              -6.5999
       129                         -0.2419947              -6.5850
       130                         -0.2395523              -6.5186
       131                         -0.2329632              -6.3393
       132                         -0.2314697              -6.2986
       133                         -0.2303979              -6.2694
       ...                                ...                  ...
       235                          1.1640332              31.6750
      -------------------------------------------------------------
                  HL-Gap            0.0317120 Eh            0.8629 eV

     #   Z          covCN         q      C6AA      α(0)
     1   7 N        0.911    -0.224    25.895     7.360
     2   6 C        1.913     0.114    28.291     8.590
     3   6 C        2.971     0.022    27.521     8.605
     4   6 C        2.923    -0.022    28.547     8.762
     5   6 C        2.916    -0.036    28.898     8.815
     6   6 C        2.965     0.083    26.146     8.387
     7   7 N        1.850    -0.231    26.898     7.687
     8   6 C        2.952     0.089    26.010     8.365
     9   6 C        2.981     0.004    27.928     8.669
    10   6 C        2.922    -0.029    28.733     8.790
    11   6 C        2.921    -0.039    28.978     8.828
    12   6 C        2.922     0.069    26.455     8.435
    13   7 N        2.752    -0.070    22.604     7.061
    14   6 C        2.924     0.042    27.062     8.531
    15   6 C        2.924    -0.059    29.456     8.900
    16   6 C        2.919    -0.036    28.891     8.814
    17   6 C        2.919    -0.039    28.972     8.827
    18   6 C        2.920    -0.056    29.388     8.890
    19   6 C        2.883     0.125    25.259     8.239
    20   8 O        1.709    -0.254    18.212     5.762
    21   6 C        2.884     0.125    25.264     8.240
    22   6 C        2.920    -0.056    29.387     8.890
    23   6 C        2.919    -0.040    28.990     8.829
    24   6 C        2.919    -0.038    28.954     8.824
    25   6 C        2.923    -0.060    29.497     8.906
    26   6 C        2.921     0.042    27.054     8.530
    27   6 C        2.920    -0.040    28.989     8.829
    28   6 C        2.925    -0.026    28.642     8.777
    29   6 C        2.952     0.089    26.013     8.365
    30   6 C        2.981     0.004    27.931     8.669
    31   6 C        2.925    -0.026    28.642     8.777
    32   6 C        2.920    -0.040    28.986     8.829
    33   6 C        2.922     0.069    26.455     8.435
    34   7 N        2.752    -0.071    22.612     7.062
    35   6 C        2.924     0.042    27.061     8.531
    36   6 C        2.924    -0.059    29.461     8.901
    37   6 C        2.919    -0.036    28.895     8.815
    38   6 C        2.919    -0.039    28.977     8.827
    39   6 C        2.920    -0.056    29.391     8.890
    40   6 C        2.883     0.125    25.260     8.240
    41   8 O        1.709    -0.255    18.217     5.763
    42   6 C        2.884     0.125    25.266     8.241
    43   6 C        2.920    -0.056    29.387     8.890
    44   6 C        2.919    -0.040    28.991     8.829
    45   6 C        2.919    -0.038    28.952     8.824
    46   6 C        2.923    -0.060    29.496     8.906
    47   6 C        2.921     0.042    27.053     8.530
    48   6 C        2.921    -0.039    28.979     8.828
    49   6 C        2.922    -0.029    28.736     8.791
    50   7 N        1.850    -0.231    26.903     7.687
    51   6 C        2.965     0.081    26.198     8.395
    52   6 C        2.926    -0.030    28.745     8.792
    53   1 H        0.926     0.050     2.320     2.382
    54   1 H        0.926     0.060     2.204     2.321
    55   1 H        0.926     0.035     2.515     2.480
    56   1 H        0.926     0.044     2.394     2.420
    57   1 H        0.926     0.031     2.578     2.511
    58   1 H        0.926     0.033     2.548     2.496
    59   1 H        0.926     0.039     2.456     2.451
    60   1 H        0.926     0.052     2.297     2.370
    61   1 H        0.926     0.051     2.305     2.374
    62   1 H        0.926     0.039     2.462     2.454
    63   1 H        0.926     0.037     2.490     2.468
    64   1 H        0.926     0.036     2.509     2.477
    65   1 H        0.926     0.048     2.346     2.395
    66   1 H        0.926     0.055     2.262     2.352
    67   1 H        0.926     0.055     2.260     2.351
    68   1 H        0.926     0.048     2.343     2.394
    69   1 H        0.926     0.030     2.584     2.514
    70   1 H        0.926     0.032     2.554     2.499
    71   1 H        0.926     0.039     2.460     2.453
    72   1 H        0.926     0.052     2.300     2.371
    73   1 H        0.926     0.051     2.307     2.375
    74   1 H        0.926     0.039     2.462     2.454
    75   1 H        0.926     0.037     2.487     2.466
    76   1 H        0.926     0.036     2.508     2.477
    77   1 H        0.926     0.044     2.397     2.421
    78   1 H        0.926     0.035     2.520     2.483
    79   1 H        0.926     0.062     2.177     2.307

molecular dipole:
                 x           y           z       tot (Debye)
 q only:       -0.814      -0.536       0.143
   full:       -1.091      -0.649       0.201       3.268

 projected vibrational frequencies (cm⁻¹)
eigval :       -0.00    -0.00    -0.00     0.00     0.00     0.00
eigval :        7.84    12.95    17.25    23.28    23.99    31.15
eigval :       38.48    43.56    49.09    52.98    64.07    74.63
eigval :       75.65    87.17    99.96   111.96   119.59   124.26
eigval :      126.22   139.30   157.43   170.00   194.95   200.30
eigval :      215.75   232.27   247.02   250.12   256.59   258.89
eigval :      271.90   273.57   298.96   307.34   336.15   344.97
eigval :      357.84   361.15   373.75   380.87   382.14   392.23
eigval :      398.67   403.63   415.28   422.90   429.43   430.38
eigval :      441.23   444.37   447.23   450.64   456.38   468.66
eigval :      496.69   505.93   510.62   511.17   521.72   523.27
eigval :      524.13   540.24   550.71   561.97   569.23   581.94
eigval :      588.37   594.49   600.76   607.92   613.66   618.43
eigval :      619.72   650.10   659.74   660.59   661.24   661.67
eigval :      671.49   675.89   689.84   703.05   711.33   731.38
eigval :      743.66   764.82   778.17   778.50   779.38   779.44
eigval :      801.44   803.02   818.10   820.24   825.86   839.64
eigval :      854.66   855.25   861.72   864.51   865.40   867.09
eigval :      870.56   874.86   875.08   896.69   897.28   898.25
eigval :      898.39   905.82   913.91   914.34   914.87   915.23
eigval :      916.83   917.18   917.85   918.41   924.01   925.87
eigval :      931.20   932.59   959.32   974.69  1009.96  1031.87
eigval :     1090.29  1090.36  1091.60  1091.92  1094.71  1108.23
eigval :     1108.45  1120.87  1121.61  1131.79  1132.59  1144.61
eigval :     1160.72  1171.13  1171.89  1175.99  1176.11  1183.14
eigval :     1183.68  1190.41  1192.97  1201.53  1201.65  1215.53
eigval :     1223.66  1224.37  1243.20  1243.41  1250.94  1261.81
eigval :     1262.51  1263.60  1263.96  1267.70  1288.56  1309.26
eigval :     1309.70  1311.29  1314.08  1315.37  1317.85  1329.88
eigval :     1339.30  1340.91  1355.20  1356.96  1380.08  1398.16
eigval :     1403.06  1407.02  1424.47  1424.75  1431.25  1443.14
eigval :     1443.71  1470.35  1483.51  1486.44  1486.66  1489.93
eigval :     1505.73  1506.05  1511.11  1524.98  1554.41  1555.39
eigval :     1567.77  1567.88  1580.87  1580.95  1585.74  1587.57
eigval :     1590.01  1591.17  1592.54  1603.23  1603.49  2374.97
eigval :     3081.72  3082.82  3089.09  3089.35  3090.00  3090.12
eigval :     3090.31  3090.63  3091.20  3093.90  3094.31  3098.57
eigval :     3099.54  3099.55  3100.42  3101.42  3103.11  3103.33
eigval :     3105.28  3105.48  3106.25  3106.53  3106.84  3113.57
eigval :     3113.67  3114.24  3114.52

   temp. (K)  partition function   enthalpy   heat capacity  entropy
                                   cal/mol     cal/K/mol   cal/K/mol   J/K/mol
 298.15  VIB  0.286E+19            23580.480    149.299    146.232
         ROT  0.112E+09              888.752      2.981     39.816
         INT  0.321E+27            24469.232    152.280    186.048
         TR   0.168E+29             1481.254      4.968     45.366
         TOT                       25950.4858   157.2481   231.4139   968.2359

       T/K    H(0)-H(T)+PV         H(T)/Eh          T*S/Eh         G(T)/Eh
   ------------------------------------------------------------------------
    298.15    0.413547E-01    0.625767E+00    0.109952E+00    0.515814E+00
   ------------------------------------------------------------------------

         :::::::::::::::::::::::::::::::::::::::::::::::::::::
         ::                  THERMODYNAMIC                  ::
         :::::::::::::::::::::::::::::::::::::::::::::::::::::
         :: total free energy        -132.384618846414 Eh   ::
         ::.................................................::
         :: total energy             -132.900433173261 Eh   ::
         :: zero point energy           0.584411818829 Eh   ::
         :: G(RRHO) w/o ZPVE           -0.068597491982 Eh   ::
         :: G(RRHO) contrib.            0.515814326847 Eh   ::
         :::::::::::::::::::::::::::::::::::::::::::::::::::::

           -------------------------------------------------
          | TOTAL ENERGY             -132.900433173261 Eh   |
          | TOTAL ENTHALPY           -132.274666622973 Eh   |
          | TOTAL FREE ENERGY        -132.384618846414 Eh   |
          | GRADIENT NORM               0.000060598403 Eh/α |
          | HOMO-LUMO GAP               0.862927202532 eV   |
           -------------------------------------------------

 * finished run on 2025/07/16 at 18:12:23.116
