   * xtb version 6.7.1 (edcfbbe) compiled by 'albert@albert-system' on 2024-07-22

   ID    Z sym.   atoms
    1    7 N      1, 7, 13, 34, 50
    2    6 C      2-6, 8-12, 14-19, 21-33, 35-40, 42-49, 51, 52
    3    8 O      20, 41
    4    1 H      53-79

          program call               : xtb data2507/gas/CN-QP/CN-QP_gas_S0_crest.xyz --gfn 2 --ohess vtight --parallel 40 --molden --ceasefiles --namespace data2507/gas/CN-QP/CN-QP_gas_S0_finalOpt
          :  Hamiltonian                  GFN2-xTB          :
 * total energy  :  -132.9019881 Eh     change       -0.3054339E-08 Eh
 * total energy  :  -132.9019864 Eh     change        0.1634920E-05 Eh
 * total energy  :  -132.9019891 Eh     change       -0.2681863E-05 Eh
 * total energy  :  -132.9019897 Eh     change       -0.6078948E-06 Eh
 * total energy  :  -132.9019907 Eh     change       -0.9356598E-06 Eh
 * total energy  :  -132.9019916 Eh     change       -0.9648380E-06 Eh
 * total energy  :  -132.9019920 Eh     change       -0.3361603E-06 Eh
 * total energy  :  -132.9019924 Eh     change       -0.4586406E-06 Eh
 * total energy  :  -132.9019929 Eh     change       -0.5074005E-06 Eh
 * total energy  :  -132.9019933 Eh     change       -0.3862825E-06 Eh
 * total energy  :  -132.9019936 Eh     change       -0.3356239E-06 Eh
 * total energy  :  -132.9019939 Eh     change       -0.2349662E-06 Eh
 * total energy  :  -132.9019941 Eh     change       -0.1935373E-06 Eh
 * total energy  :  -132.9019942 Eh     change       -0.1375978E-06 Eh
 * total energy  :  -132.9019943 Eh     change       -0.1063105E-06 Eh
 * total energy  :  -132.9019944 Eh     change       -0.1193366E-06 Eh
 * total energy  :  -132.9019944 Eh     change       -0.4784226E-09 Eh
 * total energy  :  -132.9019945 Eh     change       -0.5517299E-07 Eh
   *** GEOMETRY OPTIMIZATION CONVERGED AFTER 18 ITERATIONS ***

 final structure:
================
79
 xtb: 6.7.1 (edcfbbe)
N           10.62166985324877        1.08572276619417        0.77836417410985
C            9.58822178563140        0.67337898714856        0.50384535290213
C            8.31747689537370        0.15390424111085        0.16034931764089
C            8.24737647171373       -1.04083234961312       -0.59326257469255
C            7.03579808658717       -1.57229271049893       -0.93180865937486
C            5.84891052869298       -0.92991463429633       -0.52900924524017
N            4.65276029148637       -1.49641253450783       -0.80466281904970
C            3.57890889405620       -0.86425648802227       -0.42635966528450
C            2.23553871294379       -1.44800696998983       -0.58075529166741
C            1.50436061186885       -1.73476715835087        0.57048262898753
C            0.17171678361875       -2.07250861179632        0.48843284550821
C           -0.46796001888509       -2.09625475866128       -0.74908005016462
N           -1.86570905896924       -2.26972461929060       -0.81961708203353
C           -2.67871462219546       -1.20595286320097       -1.23456843147947
C           -2.16085898392496       -0.04099728716709       -1.78406574851749
C           -2.99287624261820        0.99391437876254       -2.18395610303146
C           -4.36066725506073        0.88287585721969       -2.04378276652246
C           -4.89362105488195       -0.26571939387343       -1.48013788697178
C           -4.06681586051912       -1.29569357942550       -1.07062514463329
O           -4.67396830678666       -2.37951217082018       -0.49115559387340
C           -3.86381274134907       -3.38893308281413       -0.03845532443532
C           -4.48158429279693       -4.46357456639827        0.57395840432596
C           -3.73214138831368       -5.54238971633887        1.01932792386967
C           -2.36510734640980       -5.54619711027890        0.82897985524194
C           -1.74029572163933       -4.46833691775501        0.22048979785825
C           -2.47260714572055       -3.36424745981913       -0.19728711055660
C            0.28317263572527       -1.90448596285055       -1.90504392264146
C            1.62751423354465       -1.58983856448421       -1.82147828374620
C            3.65202024891447        0.43394207415698        0.19830467397663
C            2.37507896877529        1.13721530846708        0.41020261674949
C            1.83670904326015        1.33052540515768        1.67584655925537
C            0.53133353555449        1.76562375601053        1.81706276027081
C           -0.24902729935554        2.02649449075982        0.69444215667638
N           -1.62112565512968        2.32488625493386        0.82547162149102
C           -2.50728995303581        1.33852190279395        1.27979334983512
C           -2.07266595822468        0.13113213047082        1.80953720159825
C           -2.97590742574975       -0.82485744354289        2.24940765077746
C           -4.33300171518689       -0.59092301301256        2.16981583536554
C           -4.78482636656829        0.60152304234577        1.62669660144227
C           -3.88764482340226        1.55307143196204        1.17757317466682
O           -4.41999942354465        2.68762494393284        0.62219933238502
C           -3.54323226724162        3.61974772364226        0.12954768319540
C           -4.08856551555192        4.74547270819269       -0.45941706632270
C           -3.26577362673354        5.75218251984023       -0.94254311347611
C           -1.89681993614448        5.63282874914442       -0.81327600345463
C           -1.34495890560527        4.50328736520818       -0.22841427360040
C           -2.15419380815850        3.46978023428898        0.22632465499378
C            0.33162071915700        1.94762674039744       -0.56959158801946
C            1.62375456300469        1.49166177323900       -0.70866509345175
N            4.79399864931642        0.96277480336230        0.52966129030225
C            5.92038493070598        0.28641983809865        0.20419069858754
C            7.17267106783920        0.81351900372264        0.55542394570509
H            9.16671556732318       -1.52368813290831       -0.88984855753265
H            6.95481531477421       -2.48712987438839       -1.49754081030762
H            1.98427906552986       -1.67403465709724        1.53649046276723
H           -0.39154329941087       -2.28806747837346        1.38311650102213
H           -1.09323772242525        0.06285695093466       -1.88936649196811
H           -2.56193844959985        1.88994894852857       -2.60636781067045
H           -5.01235922260633        1.68383999102156       -2.35434744012767
H           -5.95594015525178       -0.37990926251470       -1.33740828642357
H           -5.55358998374940       -4.43933910219774        0.68718204063225
H           -4.22280153371946       -6.37499327585876        1.49815537615421
H           -1.77128430938333       -6.38878212554302        1.14834517838320
H           -0.67314060873275       -4.48800863317164        0.06138794600106
H           -0.19699912844517       -1.98306954766441       -2.86906791010783
H            2.20145397362709       -1.41794382328183       -2.71971101518805
H            2.43121880249212        1.10573812580992        2.54864821832895
H            0.10267385647867        1.88581922051794        2.80086401656770
H           -1.01513496101788       -0.06865773488281        1.86780971464657
H           -2.60899647822876       -1.75629892245413        2.65540945097394
H           -5.03975834795800       -1.33003035033870        2.51175709202926
H           -5.83783446690954        0.81119057037818        1.53103432055528
H           -5.16240064574262        4.81797789495225       -0.52452581312474
H           -3.70046812248128        6.62542679345226       -1.40269116939451
H           -1.24439747929505        6.41828775195163       -1.16248495156640
H           -0.27433329443617        4.42705039086957       -0.11694093411145
H           -0.24809438239229        2.21473540721405       -1.43952261079981
H            2.05402155659629        1.39034267860104       -1.69447851367279
H            7.21486768024796        1.73207538438850        1.12031222265356

          :  Hamiltonian                  GFN2-xTB          :
         :: gradient norm              0.000091099949 Eh/a0 ::
         :: HOMO-LUMO gap              0.849252838511 eV    ::
         :: SCC energy              -135.258882009499 Eh    ::
         :: -> dispersion             -0.135001804267 Eh    ::
         :: repulsion energy           2.356887511088 Eh    ::

    * Orbital Energies and Occupations

         #    Occupation            Energy/Eh            Energy/eV
      -------------------------------------------------------------
         1        2.0000           -0.7285845             -19.8258
       ...           ...                  ...                  ...
       110        2.0000           -0.4244838             -11.5508
       111        2.0000           -0.4224085             -11.4943
       112        2.0000           -0.4220492             -11.4845
       113        2.0000           -0.4177488             -11.3675
       114        2.0000           -0.4172709             -11.3545
       115        2.0000           -0.4162141             -11.3258
       116        2.0000           -0.4132503             -11.2451
       117        2.0000           -0.4097431             -11.1497
       118        2.0000           -0.3926855             -10.6855
       119        2.0000           -0.3902772             -10.6200
       120        2.0000           -0.3701018             -10.0710
       121        2.0000           -0.3456956              -9.4069
       122        2.0000           -0.3449224              -9.3858 (HOMO)
       123        0.0000           -0.3137130              -8.5366 (LUMO)
       124                         -0.2826201              -7.6905
       125                         -0.2558333              -6.9616
       126                         -0.2508248              -6.8253
       127                         -0.2464617              -6.7066
       128                         -0.2436869              -6.6311
       129                         -0.2404330              -6.5425
       130                         -0.2389490              -6.5021
       131                         -0.2371737              -6.4538
       132                         -0.2314846              -6.2990
       133                         -0.2307192              -6.2782
       ...                                ...                  ...
       235                          1.1622803              31.6273
      -------------------------------------------------------------
                  HL-Gap            0.0312094 Eh            0.8493 eV

     #   Z          covCN         q      C6AA      α(0)
     1   7 N        0.911    -0.221    25.834     7.351
     2   6 C        1.913     0.114    28.283     8.589
     3   6 C        2.971     0.023    27.497     8.601
     4   6 C        2.923    -0.021    28.534     8.760
     5   6 C        2.917    -0.035    28.870     8.811
     6   6 C        2.973     0.083    26.152     8.388
     7   7 N        1.844    -0.224    26.742     7.664
     8   6 C        2.963     0.094    25.915     8.350
     9   6 C        2.979     0.002    27.967     8.675
    10   6 C        2.927    -0.031    28.769     8.796
    11   6 C        2.922    -0.040    29.005     8.832
    12   6 C        2.922     0.067    26.491     8.440
    13   7 N        2.750    -0.074    22.669     7.071
    14   6 C        2.923     0.041    27.074     8.533
    15   6 C        2.925    -0.063    29.564     8.917
    16   6 C        2.919    -0.038    28.949     8.823
    17   6 C        2.919    -0.037    28.918     8.818
    18   6 C        2.921    -0.055    29.355     8.885
    19   6 C        2.886     0.125    25.251     8.238
    20   8 O        1.709    -0.252    18.171     5.755
    21   6 C        2.885     0.126    25.241     8.237
    22   6 C        2.920    -0.056    29.391     8.890
    23   6 C        2.919    -0.040    28.995     8.830
    24   6 C        2.919    -0.039    28.974     8.827
    25   6 C        2.924    -0.059    29.465     8.902
    26   6 C        2.923     0.043    27.043     8.528
    27   6 C        2.922    -0.041    29.012     8.833
    28   6 C        2.922    -0.027    28.684     8.783
    29   6 C        2.963     0.094    25.920     8.351
    30   6 C        2.979     0.002    27.969     8.675
    31   6 C        2.922    -0.027    28.683     8.783
    32   6 C        2.922    -0.041    29.011     8.833
    33   6 C        2.922     0.067    26.492     8.441
    34   7 N        2.750    -0.074    22.669     7.071
    35   6 C        2.923     0.041    27.074     8.533
    36   6 C        2.925    -0.063    29.566     8.917
    37   6 C        2.919    -0.038    28.950     8.823
    38   6 C        2.919    -0.037    28.921     8.819
    39   6 C        2.921    -0.055    29.356     8.885
    40   6 C        2.886     0.125    25.251     8.238
    41   8 O        1.709    -0.252    18.173     5.756
    42   6 C        2.885     0.126    25.242     8.237
    43   6 C        2.920    -0.056    29.392     8.890
    44   6 C        2.919    -0.040    28.995     8.830
    45   6 C        2.919    -0.039    28.973     8.827
    46   6 C        2.924    -0.059    29.464     8.902
    47   6 C        2.923     0.043    27.043     8.528
    48   6 C        2.922    -0.041    29.008     8.832
    49   6 C        2.927    -0.031    28.771     8.796
    50   7 N        1.844    -0.225    26.748     7.665
    51   6 C        2.973     0.080    26.202     8.396
    52   6 C        2.927    -0.029    28.720     8.789
    53   1 H        0.926     0.052     2.298     2.371
    54   1 H        0.926     0.062     2.172     2.305
    55   1 H        0.926     0.034     2.525     2.485
    56   1 H        0.926     0.048     2.350     2.397
    57   1 H        0.926     0.033     2.548     2.496
    58   1 H        0.926     0.029     2.604     2.523
    59   1 H        0.926     0.041     2.433     2.439
    60   1 H        0.926     0.053     2.283     2.363
    61   1 H        0.926     0.051     2.311     2.377
    62   1 H        0.926     0.039     2.464     2.454
    63   1 H        0.926     0.037     2.495     2.470
    64   1 H        0.926     0.035     2.521     2.483
    65   1 H        0.926     0.049     2.331     2.388
    66   1 H        0.926     0.044     2.394     2.419
    67   1 H        0.926     0.044     2.392     2.418
    68   1 H        0.926     0.049     2.330     2.387
    69   1 H        0.926     0.033     2.549     2.497
    70   1 H        0.926     0.029     2.606     2.524
    71   1 H        0.926     0.041     2.435     2.440
    72   1 H        0.926     0.053     2.284     2.363
    73   1 H        0.926     0.051     2.312     2.378
    74   1 H        0.926     0.039     2.464     2.455
    75   1 H        0.926     0.037     2.493     2.469
    76   1 H        0.926     0.035     2.518     2.482
    77   1 H        0.926     0.047     2.352     2.398
    78   1 H        0.926     0.034     2.528     2.487
    79   1 H        0.926     0.065     2.147     2.291

molecular dipole:
                 x           y           z       tot (Debye)
 q only:       -0.693      -0.428      -0.283
   full:       -0.914      -0.602      -0.397       2.959

 projected vibrational frequencies (cm⁻¹)
eigval :       -0.00    -0.00    -0.00     0.00     0.00     0.00
eigval :       17.08    19.99    22.61    25.37    30.49    41.88
eigval :       50.10    53.29    57.57    62.69    73.92    75.49
eigval :       92.42    96.08   102.01   115.14   121.18   128.72
eigval :      130.99   144.96   154.85   173.16   195.86   204.12
eigval :      211.42   225.69   243.85   248.58   258.43   261.86
eigval :      273.26   277.05   298.68   319.00   333.87   344.01
eigval :      356.98   364.85   369.25   378.90   391.13   392.74
eigval :      398.71   404.59   416.15   427.34   430.72   434.93
eigval :      444.79   446.90   452.23   454.65   457.88   468.94
eigval :      491.39   504.29   511.13   511.95   522.70   525.60
eigval :      526.35   533.98   553.33   563.13   576.32   581.34
eigval :      589.28   596.79   600.70   609.43   614.68   616.67
eigval :      621.89   648.18   660.10   660.37   663.10   663.23
eigval :      671.30   686.07   690.00   702.93   707.99   733.45
eigval :      741.02   770.87   778.35   780.08   781.42   781.84
eigval :      802.34   804.00   818.71   820.96   825.75   836.67
eigval :      856.26   856.49   859.84   863.03   868.37   869.34
eigval :      873.24   877.76   878.02   895.41   898.66   899.09
eigval :      899.66   903.67   913.33   914.56   915.26   915.92
eigval :      916.70   917.16   917.65   918.82   927.35   928.93
eigval :      937.01   939.26   959.32   973.23  1009.27  1032.68
eigval :     1087.47  1089.79  1089.88  1095.08  1095.79  1109.07
eigval :     1109.12  1121.54  1122.93  1129.33  1131.64  1143.60
eigval :     1159.63  1170.90  1171.29  1176.03  1176.34  1183.00
eigval :     1184.47  1192.63  1193.71  1205.39  1205.41  1214.49
eigval :     1219.29  1224.96  1232.69  1244.54  1244.61  1256.80
eigval :     1262.42  1263.05  1267.12  1268.10  1283.80  1301.66
eigval :     1306.69  1308.06  1312.23  1312.64  1317.01  1321.24
eigval :     1338.59  1339.31  1355.60  1356.43  1385.33  1398.56
eigval :     1399.97  1400.16  1424.37  1424.79  1431.55  1443.66
eigval :     1444.03  1471.14  1482.86  1488.21  1490.03  1494.30
eigval :     1505.76  1506.21  1539.31  1548.30  1557.51  1557.78
eigval :     1569.30  1569.36  1581.39  1581.43  1589.89  1590.77
eigval :     1594.11  1594.34  1597.49  1604.30  1604.58  2376.34
eigval :     3077.97  3078.19  3079.17  3080.07  3085.48  3085.72
eigval :     3088.31  3088.48  3091.49  3095.94  3096.27  3096.77
eigval :     3096.92  3102.51  3102.66  3102.80  3102.94  3103.02
eigval :     3104.11  3104.32  3106.74  3112.95  3113.00  3113.77
eigval :     3115.20  3116.11  3117.59

   temp. (K)  partition function   enthalpy   heat capacity  entropy
                                   cal/mol     cal/K/mol   cal/K/mol   J/K/mol
 298.15  VIB  0.112E+18            23365.953    150.370    143.285
         ROT  0.807E+08              888.752      2.981     39.162
         INT  0.901E+25            24254.705    153.351    182.447
         TR   0.168E+29             1481.254      4.968     45.366
         TOT                       25735.9590   158.3191   227.8130   953.1698

       T/K    H(0)-H(T)+PV         H(T)/Eh          T*S/Eh         G(T)/Eh
   ------------------------------------------------------------------------
    298.15    0.410129E-01    0.626031E+00    0.108241E+00    0.517790E+00
   ------------------------------------------------------------------------

         :::::::::::::::::::::::::::::::::::::::::::::::::::::
         ::                  THERMODYNAMIC                  ::
         :::::::::::::::::::::::::::::::::::::::::::::::::::::
         :: total free energy        -132.384204713877 Eh   ::
         ::.................................................::
         :: total energy             -132.901994498411 Eh   ::
         :: zero point energy           0.585018253306 Eh   ::
         :: G(RRHO) w/o ZPVE           -0.067228468773 Eh   ::
         :: G(RRHO) contrib.            0.517789784533 Eh   ::
         :::::::::::::::::::::::::::::::::::::::::::::::::::::

           -------------------------------------------------
          | TOTAL ENERGY             -132.901994498411 Eh   |
          | TOTAL ENTHALPY           -132.275963383933 Eh   |
          | TOTAL FREE ENERGY        -132.384204713877 Eh   |
          | GRADIENT NORM               0.000091266008 Eh/α |
          | HOMO-LUMO GAP               0.849251594714 eV   |
           -------------------------------------------------

 * finished run on 2025/07/16 at 18:16:35.824
