   * xtb version 6.7.1 (edcfbbe) compiled by 'albert@albert-system' on 2024-07-22

   ID    Z sym.   atoms
    1    7 N      1, 7, 13, 34, 50
    2    6 C      2-6, 8-12, 14-19, 21-33, 35-40, 42-49, 51, 52
    3    8 O      20, 41
    4    1 H      53-79

          program call               : xtb data2507/gas/CN-QP/CN-QP_gas_S0_finalOpt.xtbopt.xyz --gfn 2 --spinpol --tblite --uhf 2 --ohess vtight --parallel 40 --molden --ceasefiles --namespace data2507/gas/CN-QP/CN-QP_gas_T1_preOpt
 * total energy  :  -132.8494171 Eh     change        0.1478250E-07 Eh
 * total energy  :  -132.8528999 Eh     change       -0.3482872E-02 Eh
 * total energy  :  -132.8538857 Eh     change       -0.9857980E-03 Eh
 * total energy  :  -132.8537564 Eh     change        0.1293286E-03 Eh
 * total energy  :  -132.8540632 Eh     change       -0.3068222E-03 Eh
 * total energy  :  -132.8540793 Eh     change       -0.1612901E-04 Eh
 * total energy  :  -132.8540921 Eh     change       -0.1279571E-04 Eh
 * total energy  :  -132.8540992 Eh     change       -0.7063031E-05 Eh
 * total energy  :  -132.8541210 Eh     change       -0.2176042E-04 Eh
 * total energy  :  -132.8541301 Eh     change       -0.9127917E-05 Eh
 * total energy  :  -132.8541559 Eh     change       -0.1199751E-05 Eh
 * total energy  :  -132.8541562 Eh     change       -0.2634203E-06 Eh
 * total energy  :  -132.8541559 Eh     change        0.2301095E-06 Eh
 * total energy  :  -132.8541564 Eh     change       -0.4201416E-06 Eh
 * total energy  :  -132.8541565 Eh     change       -0.1536459E-06 Eh
 * total energy  :  -132.8541567 Eh     change       -0.2115442E-06 Eh
 * total energy  :  -132.8541569 Eh     change       -0.1994281E-06 Eh
 * total energy  :  -132.8541570 Eh     change       -0.1071558E-06 Eh
 * total energy  :  -132.8541571 Eh     change       -0.7261713E-07 Eh
   *** GEOMETRY OPTIMIZATION CONVERGED AFTER 32 ITERATIONS ***

 final structure:
================
79
 xtb: 6.7.1 (edcfbbe)
N           10.65099550720897        1.17587488205209        0.64539087074219
C            9.62139227921089        0.72800053102620        0.40179596299627
C            8.36427878083905        0.17220132454464        0.10035553297339
C            8.28593358972547       -1.05438140159925       -0.56124035006597
C            7.05781929883814       -1.60845970842670       -0.85445549098842
C            5.87032564903584       -0.96124686489555       -0.49988604237141
N            4.67487033351738       -1.49203166259679       -0.74368397461525
C            3.55901425315101       -0.85729117567726       -0.39755999220237
C            2.22283099846084       -1.44868788868221       -0.56059463292797
C            1.47557237818726       -1.71726169310517        0.58620413504831
C            0.14584603587324       -2.06352262970506        0.49533268449781
C           -0.47362710053121       -2.12011652699073       -0.75008140418643
N           -1.87523844639179       -2.29347638312117       -0.82655075209242
C           -2.68239069908928       -1.23039398634296       -1.24004892037003
C           -2.15811593142875       -0.06406823565767       -1.78395523029123
C           -2.98674572203594        0.97327133682104       -2.18057392548861
C           -4.35674126775834        0.86527483448291       -2.04383305156821
C           -4.89618059503866       -0.28414874767440       -1.48969523691075
C           -4.07295070982695       -1.31913687741760       -1.08314665420502
O           -4.68091917013476       -2.40536029880202       -0.51403966822100
C           -3.87533596889855       -3.42016229931659       -0.06921389885356
C           -4.49550891450682       -4.50167703178299        0.53021034138649
C           -3.74558578254527       -5.58057150082362        0.97215528273360
C           -2.37519828276493       -5.57863280646256        0.79452930402321
C           -1.74787492459518       -4.49638637999269        0.19941558705388
C           -2.48189807760687       -3.39242505093903       -0.21983873173483
C            0.29142136560794       -1.95516640915069       -1.90100378081744
C            1.63223850892326       -1.63055888111386       -1.80666932348431
C            3.63302522194690        0.41454116625430        0.19845421829814
C            2.36033312231375        1.12189606290776        0.41905588836132
C            1.83233941248546        1.33638629837157        1.68694059957865
C            0.53175523222613        1.78390270776596        1.83248532320484
C           -0.25350724031093        2.03629579051555        0.71151062576469
N           -1.62822298537106        2.34117009637582        0.83935140588689
C           -2.51859686255817        1.35938068077904        1.28290938085210
C           -2.09012056743684        0.14802252994664        1.81190353583192
C           -2.99973584623929       -0.80637453770470        2.23819282580643
C           -4.35703916351895       -0.56848118842450        2.14710321686754
C           -4.80275203186433        0.62757575559294        1.60868018246889
C           -3.89889909767203        1.57987261064427        1.17220431155079
O           -4.42005720375525        2.71883128800412        0.62054093860974
C           -3.53736274789659        3.65618128236538        0.15278740016767
C           -4.07237517934142        4.79499912255367       -0.42219784063487
C           -3.23925760561426        5.80175491363156       -0.88468829909452
C           -1.87012044322162        5.67052279662372       -0.75139757653540
C           -1.32832218080327        4.53034649548049       -0.18096424808096
C           -2.14865817602906        3.49676034831757        0.25725143129007
C            0.31485619558251        1.93938195152998       -0.55569374416123
C            1.60334162947048        1.47392990985856       -0.69748322704066
N            4.80683548617221        0.95498779231107        0.47587490077541
C            5.95010925207222        0.31786504748046        0.17303533909997
C            7.19361069235235        0.85400771215747        0.46244591200337
H            9.19419641263704       -1.56797743614302       -0.83930420400927
H            6.98428786004412       -2.55975244267124       -1.35756240544729
H            1.94178962072860       -1.62987547398315        1.55628856811910
H           -0.42979470379735       -2.26313978200090        1.38609775745137
H           -1.08982449173777        0.03394991049501       -1.88676417983311
H           -2.55391314698393        1.86990430497892       -2.59934963927529
H           -5.00457859840944        1.67008811415705       -2.35235515605000
H           -5.95944227304099       -0.39642416997518       -1.35320689016185
H           -5.56825228006176       -4.48127042613703        0.63613638296873
H           -4.23675534128926       -6.41875866744861        1.44022351160895
H           -1.78286185099252       -6.42164352396920        1.11469643477477
H           -0.67929431581920       -4.50846387772775        0.05130060106577
H           -0.17640067098094       -2.05925528233473       -2.86885705074516
H            2.21743397118714       -1.47978425820700       -2.70132562787865
H            2.43097228131989        1.11889622445239        2.55866089097303
H            0.11038875868361        1.91910544165978        2.81763720994660
H           -1.03329336796260       -0.05141365003155        1.87919434435531
H           -2.64014111861452       -1.74049986976665        2.64414174251112
H           -5.06780762574239       -1.30823092723130        2.47903746931473
H           -5.85445292402702        0.84074999040211        1.50745241705437
H           -5.14517088828190        4.87577004450786       -0.49293482334212
H           -3.66442043895234        6.68523913857635       -1.33365544955140
H           -1.21186219188294        6.45660435623420       -1.08719764174763
H           -0.25912208002962        4.44197514037422       -0.06728739171988
H           -0.27036181610340        2.20159274160256       -1.42368664050360
H            2.02569706249387        1.35647752739501       -1.68435298110977
H            7.24858333238973        1.80738196425963        0.96434232389923

 projected vibrational frequencies (cm⁻¹)
eigval :       -0.00    -0.00     0.00     0.00     0.00     0.00
eigval :       15.25    18.17    22.62    25.31    31.18    41.62
eigval :       47.57    52.51    57.55    63.27    73.05    74.90
eigval :       90.25    93.21   102.16   112.29   119.95   124.24
eigval :      132.56   147.50   154.07   173.90   195.87   205.48
eigval :      209.89   222.23   242.80   247.89   256.58   259.19
eigval :      267.37   276.58   291.59   306.67   327.04   343.23
eigval :      354.28   367.10   372.96   380.60   392.14   392.89
eigval :      398.64   403.50   415.61   428.52   430.86   434.66
eigval :      436.96   445.33   454.15   454.45   459.31   462.84
eigval :      496.03   502.96   508.06   508.81   518.86   526.06
eigval :      526.97   532.03   553.81   561.84   573.21   578.80
eigval :      582.30   591.41   593.76   596.87   608.04   614.35
eigval :      620.72   640.14   647.65   662.16   662.36   665.07
eigval :      665.51   669.74   680.86   686.33   693.20   699.75
eigval :      722.33   732.55   777.39   780.19   781.30   781.40
eigval :      800.32   800.43   802.59   807.07   817.92   820.47
eigval :      829.67   856.56   856.79   859.70   863.39   868.98
eigval :      870.17   874.25   876.82   885.13   894.84   897.78
eigval :      900.27   901.03   901.32   914.25   915.13   916.05
eigval :      916.76   917.15   917.44   918.03   926.19   927.77
eigval :      935.41   937.47   953.43   962.52  1010.35  1026.19
eigval :     1088.15  1088.27  1093.64  1094.38  1108.24  1110.78
eigval :     1110.89  1121.15  1123.39  1128.44  1129.19  1131.75
eigval :     1167.50  1170.93  1171.32  1175.80  1176.07  1182.19
eigval :     1183.30  1191.14  1194.07  1207.47  1207.72  1214.58
eigval :     1224.48  1226.90  1231.07  1242.86  1243.02  1256.00
eigval :     1260.80  1261.68  1264.84  1265.10  1279.29  1293.56
eigval :     1304.82  1305.77  1310.80  1313.07  1313.69  1314.35
eigval :     1324.71  1332.96  1333.48  1343.71  1349.58  1352.69
eigval :     1395.06  1400.08  1400.94  1413.29  1423.33  1423.58
eigval :     1443.48  1443.78  1468.05  1473.30  1474.46  1478.64
eigval :     1486.73  1490.96  1496.21  1511.96  1531.35  1552.28
eigval :     1554.64  1566.55  1566.79  1575.34  1575.43  1582.03
eigval :     1584.24  1585.21  1588.39  1595.95  1598.28  2350.10
eigval :     3080.95  3081.00  3084.17  3085.04  3085.94  3086.46
eigval :     3088.80  3092.79  3093.05  3095.87  3096.36  3099.60
eigval :     3100.18  3100.97  3101.09  3101.33  3101.69  3104.59
eigval :     3104.67  3107.39  3107.56  3114.94  3115.00  3116.29
eigval :     3117.60  3118.52  3119.00

   temp. (K)  partition function   enthalpy   heat capacity  entropy
                                   cal/mol     cal/K/mol   cal/K/mol   J/K/mol
 298.15  VIB  0.177E+18            23520.055    151.226    144.369
         ROT  0.816E+08              888.752      2.981     39.183
         INT  0.144E+26            24408.808    154.207    183.552
         TR   0.168E+29             1481.254      4.968     45.366
         TOT                       25890.0615   159.1755   228.9176   957.7911

       T/K    H(0)-H(T)+PV         H(T)/Eh          T*S/Eh         G(T)/Eh
   ------------------------------------------------------------------------
    298.15    0.412584E-01    0.623977E+00    0.108766E+00    0.515211E+00
   ------------------------------------------------------------------------

         :::::::::::::::::::::::::::::::::::::::::::::::::::::
         ::                  THERMODYNAMIC                  ::
         :::::::::::::::::::::::::::::::::::::::::::::::::::::
         :: total free energy        -132.338946549774 Eh   ::
         ::.................................................::
         :: total energy             -132.854157097946 Eh   ::
         :: zero point energy           0.582718235434 Eh   ::
         :: G(RRHO) w/o ZPVE           -0.067507687263 Eh   ::
         :: G(RRHO) contrib.            0.515210548172 Eh   ::
         :::::::::::::::::::::::::::::::::::::::::::::::::::::

           -------------------------------------------------
          | TOTAL ENERGY             -132.854157097946 Eh   |
          | TOTAL ENTHALPY           -132.230180423279 Eh   |
          | TOTAL FREE ENERGY        -132.338946549774 Eh   |
          | GRADIENT NORM               0.000075857066 Eh/α |
           -------------------------------------------------

 * finished run on 2025/07/16 at 18:16:46.281
