   * xtb version 6.7.1 (edcfbbe) compiled by 'albert@albert-system' on 2024-07-22

   ID    Z sym.   atoms
    1    7 N      1, 7, 13, 34, 50
    2    6 C      2-6, 8-12, 14-19, 21-33, 35-40, 42-49, 51, 52
    3    8 O      20, 41
    4    1 H      53-79

          program call               : xtb data2507/gas/CN-QP/CN-QP_gas_T1_crest.xyz --gfn 2 --spinpol --tblite --uhf 2 --ohess vtight --parallel 40 --molden --ceasefiles --namespace data2507/gas/CN-QP/CN-QP_gas_T1_finalOpt
 * total energy  :  -132.8546233 Eh     change       -0.1725465E-07 Eh
 * total energy  :  -132.8546543 Eh     change       -0.3100291E-04 Eh
 * total energy  :  -132.8546643 Eh     change       -0.9979560E-05 Eh
 * total energy  :  -132.8546290 Eh     change        0.3535228E-04 Eh
 * total energy  :  -132.8546661 Eh     change       -0.3712296E-04 Eh
 * total energy  :  -132.8546725 Eh     change       -0.6408160E-05 Eh
 * total energy  :  -132.8546755 Eh     change       -0.2962366E-05 Eh
 * total energy  :  -132.8546791 Eh     change       -0.3585730E-05 Eh
 * total energy  :  -132.8546829 Eh     change       -0.3856952E-05 Eh
 * total energy  :  -132.8546864 Eh     change       -0.3486123E-05 Eh
 * total energy  :  -132.8547000 Eh     change       -0.2668541E-06 Eh
 * total energy  :  -132.8547002 Eh     change       -0.2094280E-06 Eh
 * total energy  :  -132.8547004 Eh     change       -0.2001926E-06 Eh
 * total energy  :  -132.8547006 Eh     change       -0.2268868E-06 Eh
 * total energy  :  -132.8547005 Eh     change        0.1226325E-06 Eh
 * total energy  :  -132.8547008 Eh     change       -0.2985281E-06 Eh
 * total energy  :  -132.8547011 Eh     change       -0.2618663E-06 Eh
 * total energy  :  -132.8547013 Eh     change       -0.2700868E-06 Eh
 * total energy  :  -132.8547013 Eh     change       -0.4345452E-08 Eh
   *** GEOMETRY OPTIMIZATION CONVERGED AFTER 44 ITERATIONS ***

 final structure:
================
79
 xtb: 6.7.1 (edcfbbe)
N           10.40142392066811        0.10018236305047        0.27151184646528
C            9.32026142588688       -0.27561922375549        0.17283203233580
C            7.99823227397422       -0.74268301623773        0.05173741240438
C            7.75840856186560       -2.09291552352053       -0.21403334024341
C            6.46681032873347       -2.56054483547697       -0.32603497478599
C            5.37389013996540       -1.70042704835237       -0.17788882072776
N            4.11829587591131       -2.13116534115672       -0.23867511984744
C            3.08530935396485       -1.30136082122535       -0.09042345962973
C            1.73450623115475       -1.85120257342068       -0.07310548631278
C            0.78226775367581       -1.39048204060600        0.84138464294603
C           -0.51422450728583       -1.85080815702918        0.79045108013355
C           -0.88634815319248       -2.78891444405788       -0.16918540292134
N           -2.24139763760064       -3.18830943933072       -0.26036347830393
C           -3.20291853081276       -2.26415566616065       -0.65908101143737
C           -2.86454916065798       -0.99220830110041       -1.10802489978690
C           -3.84680589259540       -0.09379094698265       -1.49070620409322
C           -5.18006453198386       -0.45164140722568       -1.43831189014907
C           -5.53288103865265       -1.72623472686057       -1.02214860479918
C           -4.55704500158265       -2.63098920529078       -0.64453994879721
O           -4.97066737960641       -3.88302155340388       -0.27203085925530
C           -4.00625891411064       -4.79653375275070        0.06991988205798
C           -4.43263086399094       -6.06665706465073        0.41279267671178
C           -3.51369520038561       -7.03104284085181        0.79751755740140
C           -2.16982568709018       -6.71340886742445        0.84981131084959
C           -1.73516104609768       -5.44397872093135        0.50542629457075
C           -2.64115111576713       -4.47267023100519        0.09510402654707
C            0.07024878593054       -3.30650804429924       -1.03602746103149
C            1.37056955357927       -2.84697002537401       -0.98091258551098
C            3.32658721227515        0.08106969322935        0.05499117734646
C            2.22757663457100        1.04761593151993        0.05753850985171
C            2.20148486685531        2.07980117398600        0.99381651435875
C            1.12524739005874        2.94302080222153        1.05594840698769
C            0.06497041870201        2.79515306346073        0.16859816321533
N           -1.07898452644020        3.62283216212288        0.26161139956620
C           -2.30281738025858        3.06527152742296        0.62247732030530
C           -2.42071347807306        1.74101015725499        1.02978639493870
C           -3.65428337824712        1.21612278598142        1.37824533930676
C           -4.78749158354655        2.00468006383036        1.33193092467909
C           -4.68287084631395        3.33530201160507        0.95683913144631
C           -3.45320781393582        3.86814700986963        0.61408042087693
O           -3.41452931530037        5.19688213005869        0.28218276993307
C           -2.19278241393145        5.74207483203442       -0.02069096177980
C           -2.16084933568941        7.09177189697628       -0.32061887387998
C           -0.96439462269667        7.70212103477356       -0.66461445168420
C            0.19494883086724        6.95225965599237       -0.71968566246323
C            0.17086408477471        5.60027912243184       -0.41843902341137
C           -1.01611020042333        4.97835814766041       -0.04874083755446
C            0.11737520773821        1.80998600564294       -0.81414765583924
C            1.18959089385804        0.94743790220519       -0.87164756010517
N            4.56804008044121        0.52769750757121        0.16230020154237
C            5.62159943456456       -0.29886969723301        0.07682114835225
C            6.92700070108209        0.14956615943962        0.19310262099068
H            8.59324086313730       -2.76848751005601       -0.32711065836385
H            6.26879802268797       -3.60332340144514       -0.51841784782573
H            1.06715466840857       -0.67487447072699        1.59783069352122
H           -1.25332828128967       -1.48783839728033        1.48967500245620
H           -1.82514242483356       -0.70827324119856       -1.15569562201375
H           -3.56293457895989        0.89035326007865       -1.82946510798957
H           -5.94641678709443        0.24959299825119       -1.72697278667857
H           -6.56322909587609       -2.04183480258649       -0.98759400517226
H           -5.48920664217825       -6.27839691851308        0.37791290828357
H           -3.85430354971489       -8.01937968088359        1.06202389579480
H           -1.44753840931860       -7.45136344771662        1.16243411349610
H           -0.68609444335280       -5.19992043022069        0.56199345014629
H           -0.21650042848310       -4.05194184816040       -1.76317118134199
H            2.11398700798583       -3.23105622673033       -1.66231108317797
H            3.02009223828988        2.17826411848357        1.69003755457903
H            1.09124652079989        3.72213966325723        1.80314675141035
H           -1.53918212197654        1.12112058074786        1.07265779306574
H           -3.72435016917264        0.18438273814066        1.68560522924457
H           -5.74981642846641        1.59532846656455        1.59406662709192
H           -5.54548638363314        3.98143435806682        0.92837978506068
H           -3.08519136052887        7.64558533091096       -0.28489945355928
H           -0.94788279671821        8.75525341333818       -0.89568162607913
H            1.12900832130987        7.41309611152241       -1.00092840542805
H            1.07790234995183        5.01974710658315       -0.47783187031298
H           -0.69169144137095        1.72808739360450       -1.52507124441360
H            1.23094051926306        0.19271374683505       -1.64257709296915
H            7.10721609161147        1.19619558470496        0.38310563070730

 projected vibrational frequencies (cm⁻¹)
eigval :       -0.00    -0.00     0.00     0.00     0.00     0.00
eigval :       10.41    10.77    17.31    24.27    25.55    32.54
eigval :       39.25    45.17    50.51    56.20    63.57    74.14
eigval :       76.24    85.27   101.78   110.23   116.78   121.27
eigval :      124.18   140.82   156.20   170.15   195.86   200.42
eigval :      208.46   227.46   246.50   248.38   253.77   255.48
eigval :      267.14   273.56   292.87   301.76   325.10   343.51
eigval :      355.61   364.11   375.14   379.86   381.94   392.27
eigval :      398.79   403.16   413.31   424.72   428.00   429.88
eigval :      433.43   447.42   447.90   451.02   456.01   464.04
eigval :      492.86   506.83   507.07   508.62   517.81   523.78
eigval :      523.92   536.18   548.56   558.91   566.19   578.10
eigval :      586.01   589.03   591.61   598.55   606.59   614.80
eigval :      618.36   637.07   649.55   662.43   662.78   664.07
eigval :      664.54   670.41   682.64   685.51   692.24   698.68
eigval :      724.68   729.96   775.93   777.58   778.70   778.86
eigval :      799.48   800.21   801.63   809.44   813.55   817.70
eigval :      830.80   855.09   855.63   861.18   864.46   864.98
eigval :      866.86   870.14   871.60   885.70   896.80   897.07
eigval :      898.00   899.33   899.58   913.24   913.58   914.47
eigval :      915.22   916.24   916.91   917.13   921.20   921.62
eigval :      927.31   928.18   956.47   962.67  1010.41  1025.69
eigval :     1087.68  1087.90  1089.59  1089.89  1100.44  1110.30
eigval :     1110.57  1121.09  1122.52  1128.87  1130.51  1134.11
eigval :     1167.56  1169.03  1170.73  1175.08  1175.32  1180.90
eigval :     1181.70  1188.90  1192.61  1203.74  1204.01  1216.18
eigval :     1222.62  1225.41  1236.82  1240.82  1241.29  1258.63
eigval :     1259.45  1261.28  1262.48  1264.97  1271.77  1294.90
eigval :     1309.63  1310.23  1311.92  1313.79  1314.65  1317.27
eigval :     1318.65  1333.13  1335.22  1343.89  1348.58  1353.45
eigval :     1394.23  1403.76  1405.43  1412.41  1423.03  1423.30
eigval :     1443.05  1443.11  1462.82  1469.43  1472.43  1476.84
eigval :     1483.42  1487.58  1494.72  1506.52  1531.38  1544.82
eigval :     1550.35  1564.02  1564.49  1573.73  1574.07  1581.39
eigval :     1583.26  1584.23  1585.57  1594.78  1596.77  2350.66
eigval :     3080.36  3081.67  3085.05  3086.24  3087.79  3091.63
eigval :     3091.98  3093.19  3093.63  3093.66  3093.75  3099.88
eigval :     3100.60  3101.52  3101.78  3102.08  3102.29  3102.66
eigval :     3103.56  3107.44  3108.80  3108.86  3109.32  3114.68
eigval :     3114.89  3114.97  3115.56

   temp. (K)  partition function   enthalpy   heat capacity  entropy
                                   cal/mol     cal/K/mol   cal/K/mol   J/K/mol
 298.15  VIB  0.248E+19            23726.484    150.512    146.983
         ROT  0.109E+09              888.752      2.981     39.764
         INT  0.271E+27            24615.236    153.493    186.747
         TR   0.168E+29             1481.254      4.968     45.366
         TOT                       26096.4900   158.4607   232.1128   971.1601

       T/K    H(0)-H(T)+PV         H(T)/Eh          T*S/Eh         G(T)/Eh
   ------------------------------------------------------------------------
    298.15    0.415874E-01    0.623495E+00    0.110284E+00    0.513211E+00
   ------------------------------------------------------------------------

         :::::::::::::::::::::::::::::::::::::::::::::::::::::
         ::                  THERMODYNAMIC                  ::
         :::::::::::::::::::::::::::::::::::::::::::::::::::::
         :: total free energy        -132.341490432314 Eh   ::
         ::.................................................::
         :: total energy             -132.854701329916 Eh   ::
         :: zero point energy           0.581907789342 Eh   ::
         :: G(RRHO) w/o ZPVE           -0.068696891741 Eh   ::
         :: G(RRHO) contrib.            0.513210897601 Eh   ::
         :::::::::::::::::::::::::::::::::::::::::::::::::::::

           -------------------------------------------------
          | TOTAL ENERGY             -132.854701329916 Eh   |
          | TOTAL ENTHALPY           -132.231206136576 Eh   |
          | TOTAL FREE ENERGY        -132.341490432314 Eh   |
          | GRADIENT NORM               0.000056851843 Eh/α |
           -------------------------------------------------

 * finished run on 2025/07/16 at 18:23:18.939
