   * xtb version 6.7.1 (edcfbbe) compiled by 'albert@albert-system' on 2024-07-22

   ID    Z sym.   atoms
    1    6 C      1-7, 9-16, 18-31, 33-52, 54-60
    2    7 N      8, 17
    3    8 O      32, 53
    4    1 H      61-100

          program call               : xtb data2507/toluene/BPPyA/BPPyA_toluene_S0_crest.xyz --gfn 2 --gbsa toluene --ohess vtight --parallel 40 --molden --ceasefiles --namespace data2507/toluene/BPPyA/BPPyA_toluene_S0_finalOpt
      * Solvation model:               GBSA
        Solvent                        toluene
        Solvent mass                       9.2140E+01 g/mol
          :  Hamiltonian                  GFN2-xTB          :
 * total energy  :  -154.4996838 Eh     change       -0.2404846E-08 Eh
 * total energy  :  -154.4997472 Eh     change       -0.6341105E-04 Eh
 * total energy  :  -154.4997962 Eh     change       -0.4894383E-04 Eh
 * total energy  :  -154.4998232 Eh     change       -0.2707492E-04 Eh
 * total energy  :  -154.4998530 Eh     change       -0.2971787E-04 Eh
 * total energy  :  -154.4998912 Eh     change       -0.3824245E-04 Eh
 * total energy  :  -154.4999169 Eh     change       -0.2565826E-04 Eh
 * total energy  :  -154.4999320 Eh     change       -0.1518209E-04 Eh
 * total energy  :  -154.4999509 Eh     change       -0.1880541E-04 Eh
 * total energy  :  -154.4999615 Eh     change       -0.1067910E-04 Eh
 * total energy  :  -154.5002424 Eh     change       -0.2268664E-05 Eh
 * total energy  :  -154.5002438 Eh     change       -0.1426158E-05 Eh
 * total energy  :  -154.5002447 Eh     change       -0.8986183E-06 Eh
 * total energy  :  -154.5002455 Eh     change       -0.8051141E-06 Eh
 * total energy  :  -154.5002464 Eh     change       -0.9067909E-06 Eh
 * total energy  :  -154.5002473 Eh     change       -0.8571300E-06 Eh
 * total energy  :  -154.5002475 Eh     change       -0.2347504E-06 Eh
 * total energy  :  -154.5002479 Eh     change       -0.4097285E-06 Eh
 * total energy  :  -154.5002480 Eh     change       -0.9135823E-07 Eh
   *** GEOMETRY OPTIMIZATION CONVERGED AFTER 46 ITERATIONS ***

 final structure:
================
100
 xtb: 6.7.1 (edcfbbe)
C           -6.38788759610814        4.10820114891625        2.73307009012213
C           -5.47108370541957        3.99902318217647        1.55237593774172
C           -4.96660858680494        5.13064501389923        0.92279423821462
C           -4.14768182418360        5.00702724186600       -0.18341893625908
C           -3.79786907074062        3.76920679433411       -0.70826476543150
C           -2.94154225707065        3.70049339380503       -1.93666926536973
C           -4.28539335849900        2.62601470485011       -0.06305338741096
N           -3.98065291093231        1.32710023513897       -0.51804356105587
C           -2.69226368687529        0.94579169248250       -0.91305371406592
C           -2.56114091095776        0.20170032212159       -2.08739249969380
C           -1.33021824355848       -0.19543416625711       -2.55105671947205
C           -0.16520414121367        0.14205638267399       -1.85787826861281
C            1.12382972686831       -0.20832064762576       -2.34292226508488
C            2.24543654242329        0.09762073249954       -1.64914559702265
C            2.17730000640524        0.77380221363851       -0.39723900895045
C            3.32004364029010        1.05581358591117        0.37911729008515
N            4.57957801128494        0.53889279082543        0.04427491046189
C            5.68982335898022        1.40865907420238        0.10215339668128
C            5.60041714240758        2.61853178877190       -0.58352392670007
C            6.64069646433420        3.53125788094745       -0.57974308828624
C            6.53617951941304        4.83324553218530       -1.31471246377302
C            7.79483235589904        3.20828456723079        0.12698177978855
C            7.88081603721402        2.01934426347687        0.82470512732780
C            6.83632538915932        1.10246993898825        0.84234916888105
C            6.95094512648374       -0.14868916584149        1.65935810098394
C            4.73888497054673       -0.79977445541611       -0.27587321262145
C            5.79495555483758       -1.24501949599557       -1.07316182562036
C            5.96048239619364       -2.58653872765255       -1.39443660344858
C            5.07776203059875       -3.55153866388927       -0.95204013658621
C            4.01028598106762       -3.13909539386375       -0.16039270713692
C            3.85573082591412       -1.78544663757512        0.17822732840729
O            2.76164702858331       -1.58662676406900        0.97690730681316
C            2.19197426863969       -2.80874615569759        1.15078265390482
C            1.05162708645440       -3.08447958163351        1.88459787087694
C            0.64044708255597       -4.40452411285778        1.94094307007650
C            1.34178067636523       -5.41286693992028        1.28323313547121
C            2.47798972977987       -5.13439619662054        0.54846879921390
C            2.91178540667803       -3.81648571820644        0.47973107778246
C            3.20891434321221        1.85202919972835        1.51742673719533
C            1.98157501110762        2.29276028714343        1.95605184940033
C            0.81226196398288        1.94506863380273        1.27446546413182
C           -0.47633532090416        2.30011635399407        1.75733740849015
C           -1.60129055365807        1.97168515391718        1.07875340024550
C           -1.54401720413803        1.27807119320024       -0.16472454614371
C           -0.26993173270487        0.87660457401592       -0.65108496471099
C            0.90760441662075        1.19906184983617        0.07386462688597
C           -5.00811126278096        0.39072227239863       -0.61505020914270
C           -6.31881579563074        0.75765470223791       -0.92279755893792
C           -7.34562645421763       -0.17401289777166       -1.00355495700094
C           -7.11789323814951       -1.52083212337810       -0.79915928305996
C           -5.81893420376955       -1.92095861692157       -0.50482468555342
C           -4.78544299815454       -0.97380259013757       -0.40608604938278
O           -3.58876812775847       -1.56283406574986       -0.10094988263043
C           -3.83485592550018       -2.89882573649191       -0.01169762533348
C           -2.90613324993477       -3.88873331159058        0.25794334172229
C           -3.36764930537532       -5.19272889830592        0.29722032093944
C           -4.70886314789295       -5.49784178104755        0.07601512891242
C           -5.63325487592522       -4.50822836752485       -0.19641750618513
C           -5.19295243289458       -3.19160592228577       -0.24346803257088
C           -5.11598128144145        2.75876100596593        1.04989365547853
H           -6.23912182202001        5.05130529875140        3.25344810803574
H           -7.42616807139969        4.06315531334626        2.40171395359204
H           -6.22321323546925        3.28822439238748        3.42879329041035
H           -5.22079531106113        6.11196503777661        1.29595618647929
H           -3.77588638792061        5.89890231573536       -0.66782661177825
H           -1.90420114595415        3.48678077424267       -1.67622264543992
H           -3.28481784682070        2.91776283699179       -2.61011341989783
H           -2.96968957958853        4.65178421280440       -2.46339375834106
H           -3.45242213455961       -0.04646693801620       -2.64818277358251
H           -1.25476651233199       -0.76025836298584       -3.46932213997273
H            1.18996509425508       -0.72198673067587       -3.29196673968792
H            3.21261609664630       -0.15937399232678       -2.05460535679615
H            4.69135863696287        2.83461239238183       -1.12772566449245
H            5.61755631611582        4.88072343126545       -1.89384911244251
H            7.38340584366012        4.96020659653742       -1.98715208104593
H            6.54440409148860        5.66395598307833       -0.60919876262790
H            8.62470252970509        3.89983181643252        0.13889026467005
H            8.77669331742024        1.79686106347493        1.38714298319582
H            7.65443601301819        0.00081128476212        2.47551754944201
H            5.98581844083140       -0.43371622683732        2.07438379151643
H            7.30741797833724       -0.97982547498995        1.04930077409442
H            6.49321432873006       -0.51457212433862       -1.45434366310682
H            6.79815033045027       -2.87097909150363       -2.01404170282435
H            5.20525723917586       -4.59095913318358       -1.20826511948339
H            0.51294059144918       -2.29456561766157        2.38474636779250
H           -0.24342761032771       -4.65696657251089        2.50767531840192
H            0.98812101921867       -6.43086641276268        1.35242682212551
H            3.01895094767464       -5.91759036421538        0.03971470560197
H            4.10386731426877        2.09327138536301        2.07347480207982
H            1.91108215444896        2.88676542028538        2.85597962249635
H           -0.54118117368388        2.83182264706475        2.69633282217597
H           -2.56355299939528        2.23401897207806        1.48735316204909
H           -6.53215375700361        1.80086846096904       -1.10070849377185
H           -8.34063665884300        0.17063646340215       -1.24246771859737
H           -7.91523895053055       -2.24336863787466       -0.86719229976829
H           -1.86852970524889       -3.64449567606614        0.42277477738904
H           -2.67112731865509       -5.99193641764593        0.50055515834779
H           -5.02775954721341       -6.52877714902474        0.11621794106788
H           -6.67122724480798       -4.74608189658444       -0.37174448066342
H           -5.48424267952147        1.86229293611722        1.53006160503817

          :  Hamiltonian                  GFN2-xTB          :
         :: gradient norm              0.000067730285 Eh/a0 ::
         :: HOMO-LUMO gap              1.810403843770 eV    ::
         :: SCC energy              -157.266158422279 Eh    ::
         :: -> dispersion             -0.153401659730 Eh    ::
         :: -> Gsolv                  -0.057998632514 Eh    ::
         :: repulsion energy           2.765910397213 Eh    ::

    * Orbital Energies and Occupations

         #    Occupation            Energy/Eh            Energy/eV
      -------------------------------------------------------------
         1        2.0000           -0.7362007             -20.0330
       ...           ...                  ...                  ...
       131        2.0000           -0.4061558             -11.0521
       132        2.0000           -0.4035386             -10.9808
       133        2.0000           -0.4024113             -10.9502
       134        2.0000           -0.3957291             -10.7683
       135        2.0000           -0.3927120             -10.6862
       136        2.0000           -0.3897303             -10.6051
       137        2.0000           -0.3884811             -10.5711
       138        2.0000           -0.3882180             -10.5640
       139        2.0000           -0.3864018             -10.5145
       140        2.0000           -0.3861643             -10.5081
       141        2.0000           -0.3725893             -10.1387
       142        2.0000           -0.3541544              -9.6370
       143        2.0000           -0.3398536              -9.2479 (HOMO)
       144                         -0.2733224              -7.4375 (LUMO)
       145                         -0.2522265              -6.8634
       146                         -0.2509477              -6.8286
       147                         -0.2408081              -6.5527
       148                         -0.2309847              -6.2854
       149                         -0.2299993              -6.2586
       150                         -0.2212255              -6.0199
       151                         -0.2187681              -5.9530
       152                         -0.2180307              -5.9329
       153                         -0.2174787              -5.9179
       154                         -0.2152966              -5.8585
       ...                                ...                  ...
       280                          0.7386357              20.0993
      -------------------------------------------------------------
                  HL-Gap            0.0665311 Eh            1.8104 eV

     #   Z          covCN         q      C6AA      α(0)
     1   6 C        3.758    -0.110    22.646     6.785
     2   6 C        2.965     0.013    27.713     8.635
     3   6 C        2.923    -0.049    29.216     8.864
     4   6 C        2.925    -0.042    29.047     8.838
     5   6 C        2.965    -0.003    28.109     8.696
     6   6 C        3.757    -0.104    22.532     6.768
     7   6 C        2.922     0.056    26.743     8.480
     8   7 N        2.751    -0.073    22.654     7.069
     9   6 C        2.920     0.065    26.535     8.447
    10   6 C        2.919    -0.043    29.077     8.843
    11   6 C        2.918    -0.040    28.987     8.829
    12   6 C        2.983     0.003    27.959     8.674
    13   6 C        2.914    -0.040    28.994     8.830
    14   6 C        2.913    -0.038    28.945     8.822
    15   6 C        2.981    -0.001    28.039     8.686
    16   6 C        2.925     0.061    26.623     8.462
    17   7 N        2.752    -0.073    22.664     7.071
    18   6 C        2.928     0.053    26.817     8.492
    19   6 C        2.929    -0.056    29.390     8.891
    20   6 C        2.965     0.014    27.695     8.632
    21   6 C        3.758    -0.110    22.657     6.786
    22   6 C        2.923    -0.048    29.194     8.861
    23   6 C        2.925    -0.043    29.062     8.841
    24   6 C        2.965    -0.002    28.078     8.692
    25   6 C        3.757    -0.104    22.541     6.769
    26   6 C        2.910     0.052    26.823     8.492
    27   6 C        2.927    -0.061    29.507     8.908
    28   6 C        2.920    -0.041    29.012     8.833
    29   6 C        2.912    -0.049    29.224     8.864
    30   6 C        3.053    -0.024    28.541     8.762
    31   6 C        3.099     0.109    25.478     8.272
    32   8 O        1.714    -0.244    18.044     5.735
    33   6 C        3.095     0.127    25.103     8.212
    34   6 C        2.908    -0.054    29.333     8.881
    35   6 C        2.926    -0.033    28.830     8.805
    36   6 C        2.920    -0.040    28.989     8.829
    37   6 C        2.913    -0.035    28.869     8.810
    38   6 C        3.058    -0.022    28.489     8.753
    39   6 C        2.918    -0.047    29.166     8.856
    40   6 C        2.919    -0.040    29.006     8.832
    41   6 C        2.982     0.003    27.941     8.671
    42   6 C        2.914    -0.040    28.990     8.829
    43   6 C        2.912    -0.039    28.981     8.828
    44   6 C        2.979    -0.003    28.104     8.696
    45   6 C        2.994     0.001    27.984     8.678
    46   6 C        2.995     0.002    27.967     8.675
    47   6 C        2.919     0.047    26.950     8.513
    48   6 C        2.927    -0.058    29.445     8.899
    49   6 C        2.920    -0.040    28.994     8.830
    50   6 C        2.912    -0.047    29.171     8.856
    51   6 C        3.053    -0.023    28.532     8.760
    52   6 C        3.097     0.110    25.460     8.269
    53   8 O        1.714    -0.243    18.022     5.732
    54   6 C        3.094     0.127    25.106     8.212
    55   6 C        2.908    -0.054    29.329     8.880
    56   6 C        2.927    -0.033    28.815     8.803
    57   6 C        2.920    -0.039    28.980     8.828
    58   6 C        2.913    -0.035    28.867     8.810
    59   6 C        3.057    -0.021    28.480     8.752
    60   6 C        2.930    -0.058    29.454     8.900
    61   1 H        0.925     0.046     2.369     2.407
    62   1 H        0.924     0.051     2.313     2.378
    63   1 H        0.925     0.045     2.387     2.416
    64   1 H        0.926     0.033     2.539     2.492
    65   1 H        0.926     0.034     2.525     2.485
    66   1 H        0.924     0.043     2.411     2.428
    67   1 H        0.925     0.042     2.425     2.435
    68   1 H        0.925     0.046     2.368     2.407
    69   1 H        0.925     0.024     2.667     2.554
    70   1 H        0.926     0.031     2.573     2.508
    71   1 H        0.926     0.028     2.614     2.528
    72   1 H        0.926     0.026     2.643     2.542
    73   1 H        0.925     0.030     2.580     2.512
    74   1 H        0.925     0.043     2.406     2.426
    75   1 H        0.925     0.050     2.322     2.383
    76   1 H        0.925     0.050     2.314     2.379
    77   1 H        0.926     0.035     2.511     2.478
    78   1 H        0.926     0.036     2.507     2.476
    79   1 H        0.925     0.047     2.356     2.400
    80   1 H        0.925     0.037     2.483     2.464
    81   1 H        0.924     0.048     2.343     2.394
    82   1 H        0.926     0.038     2.470     2.458
    83   1 H        0.926     0.038     2.475     2.460
    84   1 H        0.926     0.037     2.482     2.464
    85   1 H        0.926     0.040     2.453     2.449
    86   1 H        0.926     0.043     2.410     2.427
    87   1 H        0.926     0.041     2.434     2.440
    88   1 H        0.926     0.042     2.425     2.435
    89   1 H        0.926     0.032     2.564     2.504
    90   1 H        0.926     0.034     2.531     2.488
    91   1 H        0.926     0.030     2.586     2.515
    92   1 H        0.926     0.032     2.552     2.498
    93   1 H        0.926     0.041     2.434     2.440
    94   1 H        0.926     0.041     2.438     2.442
    95   1 H        0.926     0.040     2.447     2.446
    96   1 H        0.926     0.043     2.412     2.428
    97   1 H        0.926     0.044     2.396     2.421
    98   1 H        0.926     0.042     2.426     2.435
    99   1 H        0.926     0.042     2.419     2.432
   100   1 H        0.925     0.029     2.603     2.523

molecular dipole:
                 x           y           z       tot (Debye)
 q only:        0.009       0.379      -0.032
   full:        0.026       0.351      -0.002       0.893

 projected vibrational frequencies (cm⁻¹)
eigval :       -0.00    -0.00    -0.00     0.00     0.00     0.00
eigval :      -26.93    13.32    17.55    18.68    23.67    26.69
eigval :       33.58    34.68    41.28    44.02    46.55    48.04
eigval :       53.94    59.39    71.89    95.31    95.69   104.35
eigval :      115.39   117.00   121.53   126.17   130.54   135.58
eigval :      155.55   158.14   169.89   183.02   184.44   204.37
eigval :      207.81   215.23   219.75   223.39   225.19   239.19
eigval :      250.20   258.68   265.23   275.64   283.48   286.34
eigval :      305.57   308.84   314.86   319.22   322.75   323.74
eigval :      334.72   339.02   366.45   397.75   407.23   408.38
eigval :      411.82   418.49   424.31   431.92   438.12   439.16
eigval :      448.47   461.93   471.59   473.23   476.65   482.45
eigval :      496.54   506.21   506.79   509.95   515.60   525.98
eigval :      533.72   537.98   538.58   540.32   541.40   545.52
eigval :      548.00   566.50   569.03   573.14   585.02   594.26
eigval :      604.84   621.48   624.73   635.57   646.13   647.55
eigval :      663.20   669.24   671.97   673.71   678.24   681.06
eigval :      683.49   688.38   708.84   711.47   731.84   743.10
eigval :      750.12   753.86   760.86   778.05   780.34   783.08
eigval :      792.30   793.77   795.73   801.93   806.79   813.06
eigval :      817.00   817.75   838.94   839.34   839.94   845.54
eigval :      847.64   848.29   868.17   869.24   872.36   872.82
eigval :      875.81   883.78   888.83   903.93   904.46   905.38
eigval :      908.19   910.81   911.95   914.11   916.26   917.17
eigval :      917.47   920.99   923.79   928.18   935.52   974.28
eigval :      979.33   998.21  1009.39  1012.40  1020.62  1023.84
eigval :     1029.39  1032.91  1033.84  1036.28  1045.82  1062.35
eigval :     1063.70  1079.98  1091.26  1100.48  1101.60  1113.42
eigval :     1123.91  1139.50  1146.21  1153.86  1155.82  1172.08
eigval :     1173.14  1173.94  1182.02  1182.50  1183.96  1186.13
eigval :     1192.74  1201.48  1206.56  1207.97  1211.38  1213.95
eigval :     1215.90  1218.69  1221.79  1235.45  1241.98  1249.29
eigval :     1251.39  1259.72  1264.33  1265.31  1269.43  1284.08
eigval :     1288.77  1303.09  1306.59  1317.00  1318.28  1324.46
eigval :     1326.38  1328.81  1339.52  1346.02  1346.67  1361.02
eigval :     1362.53  1373.71  1382.36  1387.63  1389.46  1390.75
eigval :     1399.75  1401.75  1404.61  1404.64  1407.23  1413.63
eigval :     1415.23  1416.09  1419.75  1420.45  1454.18  1468.79
eigval :     1470.19  1476.44  1476.47  1476.72  1478.59  1480.20
eigval :     1482.12  1482.16  1485.28  1486.07  1490.28  1495.22
eigval :     1498.04  1499.60  1500.38  1528.79  1560.34  1562.48
eigval :     1568.10  1569.18  1571.69  1572.51  1579.92  1580.83
eigval :     1592.83  1593.18  1597.92  1601.33  1604.22  1605.06
eigval :     1610.16  1610.48  2988.19  2991.55  2992.65  3002.72
eigval :     3018.91  3023.99  3028.02  3031.58  3033.51  3034.52
eigval :     3038.53  3043.74  3061.34  3065.32  3067.10  3068.48
eigval :     3068.78  3069.84  3071.19  3071.74  3076.17  3078.50
eigval :     3079.49  3080.96  3081.73  3082.73  3082.98  3083.44
eigval :     3085.79  3089.28  3090.15  3091.61  3093.53  3095.24
eigval :     3095.95  3100.03  3103.82  3104.35  3105.10  3117.83

   temp. (K)  partition function   enthalpy   heat capacity  entropy
                                   cal/mol     cal/K/mol   cal/K/mol   J/K/mol
 298.15  VIB  0.216E+22            28541.576    181.073    175.339
         ROT  0.125E+09              888.752      2.981     40.038
         INT  0.271E+30            29430.328    184.054    215.377
         TR   0.208E+29             1481.254      4.968     45.793
         TOT                       30911.5821   189.0219   261.1700  1092.7355

       T/K    H(0)-H(T)+PV         H(T)/Eh          T*S/Eh         G(T)/Eh
   ------------------------------------------------------------------------
    298.15    0.492607E-01    0.826047E+00    0.124090E+00    0.701957E+00
   ------------------------------------------------------------------------

         :::::::::::::::::::::::::::::::::::::::::::::::::::::
         ::                  THERMODYNAMIC                  ::
         :::::::::::::::::::::::::::::::::::::::::::::::::::::
         :: total free energy        -153.798290980425 Eh   ::
         ::.................................................::
         :: total energy             -154.500248021774 Eh   ::
         :: zero point energy           0.776786616154 Eh   ::
         :: G(RRHO) w/o ZPVE           -0.074829574805 Eh   ::
         :: G(RRHO) contrib.            0.701957041349 Eh   ::
         :::::::::::::::::::::::::::::::::::::::::::::::::::::

           -------------------------------------------------
          | TOTAL ENERGY             -154.500248021774 Eh   |
          | TOTAL ENTHALPY           -153.674200664034 Eh   |
          | TOTAL FREE ENERGY        -153.798290980425 Eh   |
          | GRADIENT NORM               0.000067759199 Eh/α |
          | HOMO-LUMO GAP               1.810403755758 eV   |
           -------------------------------------------------

 * finished run on 2025/09/12 at 02:31:43.036
