   * xtb version 6.7.1 (edcfbbe) compiled by 'albert@albert-system' on 2024-07-22

   ID    Z sym.   atoms
    1    6 C      1-7, 9-16, 18-31, 33-52, 54-60
    2    7 N      8, 17
    3    8 O      32, 53
    4    1 H      61-100

          program call               : xtb data2507/toluene/BPPyA/BPPyA.xyz --gfn 2 --gbsa toluene --ohess vtight --parallel 40 --molden --ceasefiles --namespace data2507/toluene/BPPyA/BPPyA_toluene_S0_preOpt
      * Solvation model:               GBSA
        Solvent                        toluene
        Solvent mass                       9.2140E+01 g/mol
          :  Hamiltonian                  GFN2-xTB          :
 * total energy  :  -154.4617356 Eh     change       -0.2423832E-08 Eh
 * total energy  :  -154.4824393 Eh     change       -0.2070365E-01 Eh
 * total energy  :  -154.4903690 Eh     change       -0.7929748E-02 Eh
 * total energy  :  -154.4935925 Eh     change       -0.3223497E-02 Eh
 * total energy  :  -154.4955533 Eh     change       -0.1960812E-02 Eh
 * total energy  :  -154.4963200 Eh     change       -0.7667095E-03 Eh
 * total energy  :  -154.4966942 Eh     change       -0.3741903E-03 Eh
 * total energy  :  -154.4970101 Eh     change       -0.3158728E-03 Eh
 * total energy  :  -154.4973030 Eh     change       -0.2929492E-03 Eh
 * total energy  :  -154.4975717 Eh     change       -0.2686661E-03 Eh
 * total energy  :  -154.4986840 Eh     change       -0.2998773E-06 Eh
 * total energy  :  -154.4986842 Eh     change       -0.2039134E-06 Eh
 * total energy  :  -154.4986843 Eh     change       -0.1265703E-06 Eh
 * total energy  :  -154.4986845 Eh     change       -0.1725178E-06 Eh
 * total energy  :  -154.4986847 Eh     change       -0.1933658E-06 Eh
 * total energy  :  -154.4986848 Eh     change       -0.1948267E-06 Eh
 * total energy  :  -154.4986850 Eh     change       -0.1645379E-06 Eh
 * total energy  :  -154.4986851 Eh     change       -0.1140040E-06 Eh
 * total energy  :  -154.4986851 Eh     change       -0.7244125E-08 Eh
   *** GEOMETRY OPTIMIZATION CONVERGED AFTER 83 ITERATIONS ***

 final structure:
================
100
 xtb: 6.7.1 (edcfbbe)
C           -7.98383634110565        2.20812778622556       -2.44141800302677
C           -6.84637950931128        2.39446621481897       -1.48245676551173
C           -6.77929595559034        3.50018732016895       -0.64557087852178
C           -5.71638447394771        3.65707729507855        0.22576556060843
C           -4.69020742280607        2.72653990311158        0.30268914298236
C           -3.57616866449815        2.90690208410088        1.28890130581657
C           -4.74847254643783        1.61787463272711       -0.54938556532721
N           -3.74002933884257        0.62913036545847       -0.50997058059036
C           -2.40912892774866        1.01507726927614       -0.72320864889444
C           -2.14044781926078        2.00717502094256       -1.66447918149685
C           -0.84852890716688        2.39721762580736       -1.93723566635492
C            0.23083554003479        1.80780691795110       -1.27492156181710
C            1.57740619932593        2.14663170860523       -1.57825729395028
C            2.61459371327277        1.58746865489079       -0.91139093346245
C            2.40353945993079        0.64612888146471        0.13745490852557
C            3.45867738592647        0.06369405226598        0.86989887296601
N            4.79651741666658        0.42570227677243        0.67460554962774
C            5.21413896403211        1.76619081921934        0.55057602568612
C            6.14483574188252        2.07892534607202       -0.44092640106718
C            6.60686273559131        3.37029012143098       -0.62601215697386
C            7.62193113521193        3.67818366460879       -1.68487603753298
C            6.11181893103671        4.36954857404504        0.20453442288306
C            5.19793660810804        4.06519256129283        1.19480160088596
C            4.73767531392389        2.77041953397949        1.40137935646321
C            3.77914011966859        2.49314600103004        2.51992020290405
C            5.75742191389634       -0.58301664717074        0.62984556800433
C            7.04601442186483       -0.40430166405004        1.13364789819424
C            8.00466673437484       -1.40773040216387        1.07490932503537
C            7.72579961727375       -2.64388386839507        0.52533288233668
C            6.44670771711278       -2.85651271426384        0.02212058023737
C            5.48396674280484       -1.83410598697033        0.06967482680325
O            4.29852688899846       -2.22962971011511       -0.48619359539695
C            4.48138384455667       -3.51556610570433       -0.89338051274695
C            3.53966974310510       -4.32468326643378       -1.50438006713805
C            3.93028265606213       -5.61039361913981       -1.83488120375665
C            5.21667688203839       -6.07198069982465       -1.56470268588415
C            6.15517003549438       -5.26248593976003       -0.95458677508110
C            5.78549606748189       -3.96773348286055       -0.61288127368432
C            3.17854039661392       -0.91766421907698        1.82360292768876
C            1.88902142347345       -1.30509420928205        2.09625465822754
C            0.81198794289229       -0.72022820887122        1.42501249240526
C           -0.53393036004080       -1.05976908121428        1.72862033704376
C           -1.57018184537719       -0.50349309394842        1.05795199135307
C           -1.35165402984461        0.43659406190913        0.01045788706711
C           -0.01895080963107        0.83028438102349       -0.27929846715941
C            1.06859661773667        0.25429540066476        0.42952394417831
C           -4.11738885030512       -0.70706403155680       -0.58249004702814
C           -3.36597957466417       -1.66632214044781       -1.26278638135563
C           -3.74781597333739       -3.00087730152187       -1.31215077326479
C           -4.90555617988222       -3.44657951117907       -0.70574220062143
C           -5.68438000670042       -2.51199464889727       -0.03093228511054
C           -5.28523570158614       -1.16683908404259        0.03392552487451
O           -6.16972526875311       -0.41128053234288        0.75454568237392
C           -7.15615063111733       -1.25961783821221        1.15251712821529
C           -8.27229219028983       -0.92733933316579        1.90000002620235
C           -9.15989693985127       -1.94610961567329        2.19797662265485
C           -8.94039442998287       -3.25184178196413        1.76436170350485
C           -7.82599764772222       -3.58123889146963        1.01742387549415
C           -6.92081112775890       -2.57465150365402        0.70562242891165
C           -5.81571331809696        1.46895142241941       -1.42885061886770
H           -8.84047453279338        2.80973425419500       -2.14752756610369
H           -7.68218274885815        2.51138491186983       -3.44486142790385
H           -8.28384454394183        1.16259592323041       -2.48388446518597
H           -7.56671123385368        4.23984959413032       -0.66873250273756
H           -5.68964689656292        4.51840776523161        0.87862510655148
H           -3.30809982611108        1.95671709479834        1.74686075322613
H           -2.68557770705526        3.30437255170069        0.80049812101043
H           -3.87457446533932        3.60156255371332        2.07067524820095
H           -2.96716696198725        2.45663887349847       -2.19620116159715
H           -0.66002159184003        3.15460414834186       -2.68443357159973
H            1.75821338499949        2.86071573505709       -2.36929019034608
H            3.62394187722050        1.85092132593626       -1.18219836887377
H            6.50216362130833        1.28456310145837       -1.08217721865796
H            8.62431956239752        3.65865823004621       -1.25527636611367
H            7.45551489696360        4.66862461128978       -2.10286342575875
H            7.58381956517468        2.94332684707922       -2.48566744062316
H            6.44904294095358        5.38804979634611        0.07866535763980
H            4.83575336348662        4.85288582603480        1.84033141285177
H            2.75675415195184        2.41942414024030        2.14741789568672
H            4.02095086772563        1.55719935427770        3.01960490714832
H            3.81613965862988        3.29872735276679        3.24987946382089
H            7.29669357388318        0.54674582343353        1.57883155099916
H            8.98620641739792       -1.21143459006707        1.47978990292244
H            8.47059272159455       -3.42236658746179        0.48453293314135
H            2.54550477025772       -3.95822706563127       -1.70664769165899
H            3.22103725367232       -6.27025597527884       -2.31172714936069
H            5.48155600814948       -7.08230951020164       -1.83895417540243
H            7.15091882386576       -5.62222421357095       -0.74527697263511
H            3.99988926476712       -1.36105394544259        2.37025039488305
H            1.69796063582343       -2.05618449307569        2.84936710139413
H           -0.71407664490118       -1.77176298363840        2.52178420616791
H           -2.58352184525689       -0.76269342870937        1.32440117318676
H           -2.46053618864270       -1.35462296327028       -1.76125398155216
H           -3.12283776574289       -3.69801631480585       -1.85023855499080
H           -5.20229461298538       -4.48214223992411       -0.75091137242322
H           -8.43339139885465        0.08739947613884        2.22826242980961
H          -10.04242233804673       -1.72326660741889        2.77882432600756
H           -9.65745333723317       -4.01830158158021        2.01851922312666
H           -7.65828328475470       -4.59321293598571        0.68167223746679
H           -5.83876255421214        0.60577038123243       -2.08116184026336

          :  Hamiltonian                  GFN2-xTB          :
         :: gradient norm              0.000093328746 Eh/a0 ::
         :: HOMO-LUMO gap              1.792282442085 eV    ::
         :: SCC energy              -157.264370575378 Eh    ::
         :: -> dispersion             -0.150720537373 Eh    ::
         :: -> Gsolv                  -0.058831677986 Eh    ::
         :: repulsion energy           2.765685441557 Eh    ::

    * Orbital Energies and Occupations

         #    Occupation            Energy/Eh            Energy/eV
      -------------------------------------------------------------
         1        2.0000           -0.7368611             -20.0510
       ...           ...                  ...                  ...
       131        2.0000           -0.4064582             -11.0603
       132        2.0000           -0.4046851             -11.0120
       133        2.0000           -0.4029481             -10.9648
       134        2.0000           -0.3953411             -10.7578
       135        2.0000           -0.3922127             -10.6727
       136        2.0000           -0.3901663             -10.6170
       137        2.0000           -0.3890272             -10.5860
       138        2.0000           -0.3876047             -10.5473
       139        2.0000           -0.3866105             -10.5202
       140        2.0000           -0.3852188             -10.4823
       141        2.0000           -0.3739933             -10.1769
       142        2.0000           -0.3542414              -9.6394
       143        2.0000           -0.3405051              -9.2656 (HOMO)
       144                         -0.2746400              -7.4733 (LUMO)
       145                         -0.2528003              -6.8790
       146                         -0.2511093              -6.8330
       147                         -0.2419987              -6.5851
       148                         -0.2314882              -6.2991
       149                         -0.2298866              -6.2555
       150                         -0.2216760              -6.0321
       151                         -0.2183638              -5.9420
       152                         -0.2170591              -5.9065
       153                         -0.2159934              -5.8775
       154                         -0.2147777              -5.8444
       ...                                ...                  ...
       280                          0.7379028              20.0794
      -------------------------------------------------------------
                  HL-Gap            0.0658652 Eh            1.7923 eV

     #   Z          covCN         q      C6AA      α(0)
     1   6 C        3.758    -0.107    22.603     6.778
     2   6 C        2.965     0.012    27.738     8.639
     3   6 C        2.923    -0.048    29.197     8.861
     4   6 C        2.925    -0.043    29.062     8.841
     5   6 C        2.966    -0.001    28.039     8.686
     6   6 C        3.757    -0.103    22.522     6.766
     7   6 C        2.930     0.059    26.686     8.472
     8   7 N        2.750    -0.077    22.737     7.082
     9   6 C        2.922     0.059    26.677     8.470
    10   6 C        2.917    -0.048    29.196     8.861
    11   6 C        2.918    -0.041    29.021     8.834
    12   6 C        2.982     0.003    27.943     8.671
    13   6 C        2.914    -0.040    28.990     8.829
    14   6 C        2.912    -0.039    28.959     8.824
    15   6 C        2.979    -0.003    28.098     8.695
    16   6 C        2.920     0.066    26.527     8.446
    17   7 N        2.751    -0.072    22.638     7.067
    18   6 C        2.923     0.056    26.750     8.482
    19   6 C        2.929    -0.058    29.447     8.899
    20   6 C        2.965     0.013    27.711     8.635
    21   6 C        3.758    -0.110    22.646     6.785
    22   6 C        2.923    -0.049    29.216     8.864
    23   6 C        2.925    -0.042    29.045     8.838
    24   6 C        2.965    -0.003    28.106     8.696
    25   6 C        3.757    -0.104    22.538     6.769
    26   6 C        2.919     0.047    26.953     8.513
    27   6 C        2.927    -0.058    29.431     8.897
    28   6 C        2.920    -0.040    28.989     8.829
    29   6 C        2.912    -0.047    29.161     8.855
    30   6 C        3.053    -0.023    28.529     8.760
    31   6 C        3.099     0.110    25.451     8.268
    32   8 O        1.714    -0.242    18.000     5.728
    33   6 C        3.095     0.127    25.105     8.212
    34   6 C        2.908    -0.054    29.329     8.880
    35   6 C        2.926    -0.033    28.815     8.803
    36   6 C        2.920    -0.039    28.977     8.827
    37   6 C        2.913    -0.035    28.861     8.809
    38   6 C        3.058    -0.021    28.477     8.751
    39   6 C        2.919    -0.043    29.080     8.843
    40   6 C        2.918    -0.039    28.968     8.826
    41   6 C        2.983     0.004    27.938     8.670
    42   6 C        2.914    -0.038    28.948     8.823
    43   6 C        2.913    -0.037    28.930     8.820
    44   6 C        2.981    -0.005    28.130     8.700
    45   6 C        2.994     0.001    27.991     8.679
    46   6 C        2.994     0.002    27.980     8.677
    47   6 C        2.914     0.050    26.874     8.501
    48   6 C        2.927    -0.059    29.470     8.903
    49   6 C        2.920    -0.040    28.990     8.830
    50   6 C        2.912    -0.048    29.203     8.861
    51   6 C        3.053    -0.024    28.553     8.763
    52   6 C        3.100     0.109    25.473     8.271
    53   8 O        1.714    -0.240    17.979     5.725
    54   6 C        3.095     0.127    25.108     8.212
    55   6 C        2.908    -0.054    29.336     8.881
    56   6 C        2.926    -0.033    28.825     8.805
    57   6 C        2.920    -0.040    28.986     8.829
    58   6 C        2.913    -0.035    28.868     8.810
    59   6 C        3.058    -0.022    28.489     8.753
    60   6 C        2.929    -0.053    29.326     8.881
    61   1 H        0.925     0.045     2.387     2.416
    62   1 H        0.924     0.049     2.333     2.388
    63   1 H        0.925     0.043     2.414     2.429
    64   1 H        0.926     0.032     2.558     2.501
    65   1 H        0.926     0.034     2.535     2.490
    66   1 H        0.925     0.043     2.409     2.427
    67   1 H        0.924     0.044     2.390     2.418
    68   1 H        0.925     0.045     2.383     2.414
    69   1 H        0.926     0.031     2.574     2.509
    70   1 H        0.926     0.034     2.525     2.485
    71   1 H        0.926     0.031     2.576     2.510
    72   1 H        0.926     0.033     2.543     2.494
    73   1 H        0.925     0.028     2.610     2.526
    74   1 H        0.924     0.051     2.311     2.377
    75   1 H        0.925     0.047     2.358     2.401
    76   1 H        0.925     0.044     2.401     2.423
    77   1 H        0.926     0.034     2.536     2.490
    78   1 H        0.926     0.034     2.524     2.485
    79   1 H        0.924     0.044     2.402     2.424
    80   1 H        0.925     0.042     2.422     2.434
    81   1 H        0.925     0.046     2.368     2.407
    82   1 H        0.926     0.041     2.430     2.438
    83   1 H        0.926     0.041     2.434     2.440
    84   1 H        0.926     0.040     2.445     2.445
    85   1 H        0.926     0.043     2.407     2.426
    86   1 H        0.926     0.043     2.403     2.424
    87   1 H        0.926     0.042     2.429     2.437
    88   1 H        0.926     0.042     2.418     2.432
    89   1 H        0.925     0.025     2.655     2.548
    90   1 H        0.926     0.033     2.550     2.497
    91   1 H        0.926     0.030     2.586     2.515
    92   1 H        0.926     0.025     2.659     2.550
    93   1 H        0.926     0.035     2.522     2.483
    94   1 H        0.926     0.038     2.479     2.462
    95   1 H        0.926     0.038     2.472     2.458
    96   1 H        0.926     0.044     2.390     2.418
    97   1 H        0.926     0.043     2.406     2.426
    98   1 H        0.926     0.041     2.440     2.443
    99   1 H        0.926     0.041     2.436     2.441
   100   1 H        0.925     0.024     2.670     2.555

molecular dipole:
                 x           y           z       tot (Debye)
 q only:        0.476       0.213      -0.020
   full:        0.417       0.191      -0.071       1.179

 projected vibrational frequencies (cm⁻¹)
eigval :       -0.00    -0.00    -0.00    -0.00    -0.00     0.00
eigval :      -22.30   -19.02     9.18    12.47    14.27    21.36
eigval :       23.71    33.68    35.86    39.91    43.79    46.10
eigval :       49.40    55.57    77.96    87.08    96.45   106.62
eigval :      111.82   118.20   121.02   124.14   128.97   130.95
eigval :      150.73   159.32   164.17   167.91   180.44   204.54
eigval :      205.02   209.32   221.22   223.34   230.64   238.27
eigval :      252.13   257.42   263.22   270.83   280.06   284.21
eigval :      299.88   306.65   318.37   321.20   322.06   322.26
eigval :      334.84   344.49   370.79   398.36   405.74   409.20
eigval :      410.06   421.19   423.23   432.12   436.07   440.83
eigval :      450.35   463.00   468.91   473.10   476.80   479.40
eigval :      495.79   504.07   506.70   510.52   516.33   526.82
eigval :      531.84   533.83   538.11   539.24   539.29   545.57
eigval :      554.68   567.19   568.31   577.44   585.34   588.07
eigval :      604.03   618.61   629.52   638.34   648.16   650.30
eigval :      664.71   667.88   671.00   674.91   678.09   680.73
eigval :      683.15   689.94   709.08   710.95   729.98   748.07
eigval :      750.24   757.00   760.95   771.93   772.10   775.58
eigval :      791.79   793.67   798.12   804.22   811.48   814.81
eigval :      816.65   818.92   839.25   840.04   841.19   846.09
eigval :      847.67   848.17   863.86   865.22   867.93   870.62
eigval :      871.86   889.01   893.39   897.44   902.20   904.25
eigval :      909.35   912.97   913.68   915.76   916.11   916.55
eigval :      917.48   919.99   922.30   922.32   939.67   969.90
eigval :      978.18   998.20  1006.60  1011.93  1017.98  1022.33
eigval :     1029.46  1029.97  1031.66  1033.27  1045.40  1060.08
eigval :     1060.33  1077.98  1094.22  1100.57  1103.80  1113.95
eigval :     1124.49  1138.87  1147.88  1151.28  1152.90  1171.45
eigval :     1171.98  1172.65  1182.20  1182.93  1183.58  1185.92
eigval :     1191.55  1201.88  1206.16  1207.02  1211.44  1214.83
eigval :     1215.27  1217.98  1218.57  1237.32  1243.09  1247.95
eigval :     1248.83  1261.10  1264.47  1267.23  1268.63  1283.49
eigval :     1286.44  1305.22  1306.72  1317.16  1318.36  1322.21
eigval :     1325.99  1328.22  1338.58  1345.72  1346.04  1360.37
eigval :     1361.41  1371.41  1382.42  1387.66  1388.63  1389.86
eigval :     1399.23  1400.01  1401.03  1403.58  1405.02  1413.25
eigval :     1414.84  1416.30  1419.33  1420.04  1454.28  1468.46
eigval :     1469.27  1476.24  1477.33  1477.92  1479.11  1479.73
eigval :     1479.75  1482.21  1486.34  1486.70  1490.07  1492.92
eigval :     1497.58  1500.10  1500.55  1528.20  1560.16  1561.99
eigval :     1567.55  1570.38  1572.05  1575.82  1580.89  1580.94
eigval :     1592.85  1593.15  1597.74  1601.29  1603.85  1604.76
eigval :     1610.00  1610.27  2991.89  2992.19  2992.31  2993.05
eigval :     3022.26  3026.30  3028.61  3032.15  3035.28  3035.59
eigval :     3036.43  3039.44  3061.19  3062.87  3064.87  3067.44
eigval :     3068.26  3068.66  3068.95  3071.24  3077.66  3078.48
eigval :     3078.87  3080.51  3081.15  3082.78  3082.91  3083.43
eigval :     3086.21  3087.61  3093.92  3094.22  3094.60  3095.61
eigval :     3095.79  3102.21  3102.35  3104.14  3104.77  3119.02

   temp. (K)  partition function   enthalpy   heat capacity  entropy
                                   cal/mol     cal/K/mol   cal/K/mol   J/K/mol
 298.15  VIB  0.225E+23            28676.188    180.544    177.401
         ROT  0.152E+09              888.752      2.981     40.418
         INT  0.342E+31            29564.940    183.524    217.818
         TR   0.208E+29             1481.254      4.968     45.793
         TOT                       31046.1938   188.4926   263.6115  1102.9504

       T/K    H(0)-H(T)+PV         H(T)/Eh          T*S/Eh         G(T)/Eh
   ------------------------------------------------------------------------
    298.15    0.494753E-01    0.825845E+00    0.125250E+00    0.700595E+00
   ------------------------------------------------------------------------

         :::::::::::::::::::::::::::::::::::::::::::::::::::::
         ::                  THERMODYNAMIC                  ::
         :::::::::::::::::::::::::::::::::::::::::::::::::::::
         :: total free energy        -153.798090049349 Eh   ::
         ::.................................................::
         :: total energy             -154.498685140315 Eh   ::
         :: zero point energy           0.776370152819 Eh   ::
         :: G(RRHO) w/o ZPVE           -0.075775061853 Eh   ::
         :: G(RRHO) contrib.            0.700595090966 Eh   ::
         :::::::::::::::::::::::::::::::::::::::::::::::::::::

           -------------------------------------------------
          | TOTAL ENERGY             -154.498685140315 Eh   |
          | TOTAL ENTHALPY           -153.672839728412 Eh   |
          | TOTAL FREE ENERGY        -153.798090049349 Eh   |
          | GRADIENT NORM               0.000093379140 Eh/α |
          | HOMO-LUMO GAP               1.792282047262 eV   |
           -------------------------------------------------

 * finished run on 2025/09/12 at 02:10:35.297
