   * xtb version 6.7.1 (edcfbbe) compiled by 'albert@albert-system' on 2024-07-22

   ID    Z sym.   atoms
    1    6 C      1-7, 9-16, 18-31, 33-52, 54-60
    2    7 N      8, 17
    3    8 O      32, 53
    4    1 H      61-100

          program call               : xtb data2507/toluene/BPPyA/BPPyA_toluene_T1_crest.xyz --gfn 2 --uhf 2 --gbsa toluene --ohess vtight --parallel 40 --molden --ceasefiles --namespace data2507/toluene/BPPyA/BPPyA_toluene_T1_finalOpt
      * Solvation model:               GBSA
        Solvent                        toluene
        Solvent mass                       9.2140E+01 g/mol
          :  Hamiltonian                  GFN2-xTB          :
 * total energy  :  -154.4353610 Eh     change       -0.3076963E-08 Eh
 * total energy  :  -154.4354310 Eh     change       -0.6997346E-04 Eh
 * total energy  :  -154.4354822 Eh     change       -0.5122286E-04 Eh
 * total energy  :  -154.4355072 Eh     change       -0.2492060E-04 Eh
 * total energy  :  -154.4355325 Eh     change       -0.2530176E-04 Eh
 * total energy  :  -154.4355697 Eh     change       -0.3729446E-04 Eh
 * total energy  :  -154.4355951 Eh     change       -0.2534875E-04 Eh
 * total energy  :  -154.4356105 Eh     change       -0.1535650E-04 Eh
 * total energy  :  -154.4356296 Eh     change       -0.1919190E-04 Eh
 * total energy  :  -154.4356427 Eh     change       -0.1307745E-04 Eh
 * total energy  :  -154.4359647 Eh     change       -0.1871444E-06 Eh
 * total energy  :  -154.4359649 Eh     change       -0.2025468E-06 Eh
 * total energy  :  -154.4359651 Eh     change       -0.1825695E-06 Eh
 * total energy  :  -154.4359653 Eh     change       -0.1549710E-06 Eh
 * total energy  :  -154.4359654 Eh     change       -0.1292709E-06 Eh
 * total energy  :  -154.4359655 Eh     change       -0.1153003E-06 Eh
 * total energy  :  -154.4359657 Eh     change       -0.1627877E-06 Eh
 * total energy  :  -154.4359659 Eh     change       -0.1999119E-06 Eh
 * total energy  :  -154.4359659 Eh     change       -0.1349377E-08 Eh
   *** GEOMETRY OPTIMIZATION CONVERGED AFTER 68 ITERATIONS ***

 final structure:
================
100
 xtb: 6.7.1 (edcfbbe)
C           -6.41503756105239        4.01572797291162        2.77943170853792
C           -5.52139406066695        3.92080406914560        1.58033253602924
C           -5.02566617496981        5.06844061791328        0.96880243426255
C           -4.19991497834184        4.97183855930841       -0.13426268152518
C           -3.82848974597075        3.74624386828515       -0.67410348484786
C           -2.96576523886379        3.70787164651834       -1.89861963672739
C           -4.30829758149100        2.58861811164230       -0.04823042521162
N           -3.99111725528828        1.30106663925489       -0.52186849936064
C           -2.71177461509180        0.93742910016093       -0.92670200763499
C           -2.57736457019692        0.16683867261075       -2.08916777446814
C           -1.35549558361106       -0.21596823357763       -2.56183333367180
C           -0.16309551282850        0.14563417689493       -1.86906461415255
C            1.09765533189889       -0.19743861531516       -2.35344070336613
C            2.24809911199557        0.12562018275123       -1.65218241952933
C            2.17984519182664        0.78982241879798       -0.42546006709088
C            3.34733666188048        1.10347944474088        0.35612430506806
N            4.59203242220005        0.56440105857696        0.04996338070383
C            5.72029573072203        1.40747914480548        0.13214441597268
C            5.66857869800828        2.62289672055852       -0.54964457866958
C            6.72886109519851        3.51100196044369       -0.52503363787245
C            6.67383170881560        4.80877792771912       -1.27210610674028
C            7.86200661795136        3.16032342576006        0.20377731494265
C            7.90928261367386        1.96753795633117        0.89904206614268
C            6.84700831017284        1.07143505133219        0.89143207923830
C            6.91823104136429       -0.18390550205863        1.70668972770899
C            4.74029170507306       -0.77279275717910       -0.28011224654067
C            5.79475461096636       -1.22024977561687       -1.08236789332529
C            5.94703941313975       -2.55920330492958       -1.41419046719265
C            5.05680188729821       -3.52068232325548       -0.97416964138742
C            3.99417150602333       -3.10661020240389       -0.17565629185711
C            3.84602019570421       -1.75300459475287        0.16720565856209
O            2.76167020694971       -1.55153594636765        0.97217217659945
C            2.18751379620293       -2.77153694248991        1.14954608024736
C            1.05286759329384       -3.04374658844897        1.89316590227590
C            0.63766119975703       -4.36244502433402        1.95145345979839
C            1.32974744634264       -5.37268529638474        1.28616412356506
C            2.45996723634669       -5.09779624422499        0.54134579939806
C            2.89800300126133       -3.78104659166307        0.47045140627933
C            3.23627695770051        1.95796667048830        1.45876098230728
C            2.01871111774862        2.39804747368440        1.89545476677521
C            0.81917347426915        2.00158095873308        1.23243152931763
C           -0.44001444672159        2.34662464811697        1.71802337198660
C           -1.59551413124221        1.98615815795287        1.04222799815337
C           -1.53961429869062        1.30181025682449       -0.17454756767107
C           -0.26721070435072        0.89354072286205       -0.66689413845617
C            0.91185169207163        1.22479323950209        0.04773590260388
C           -5.01620332652368        0.36513513080241       -0.63283571594545
C           -6.32569934493830        0.73571004708956       -0.95721834673249
C           -7.34962268659223       -0.19498429993063       -1.05562896985695
C           -7.12475874536099       -1.54352534255289       -0.84966842958268
C           -5.82914577550151       -1.94662443482010       -0.53882052268491
C           -4.79431426829057       -1.00189134115327       -0.42927352942272
O           -3.60546721154245       -1.59065959026000       -0.10840763114008
C           -3.85355984362591       -2.92709644653849       -0.01971503623806
C           -2.92938418078918       -3.91729301245132        0.26193400137657
C           -3.39296223265170       -5.22099838089170        0.29599954454219
C           -4.73211287414410       -5.52422883152582        0.05888170816029
C           -5.65214701215005       -4.53411646071742       -0.22523895930309
C           -5.20949587105252       -3.21761376833251       -0.26846759630425
C           -5.14982815089196        2.69394112149769        1.06183497976261
H           -6.89262258098596        3.06097834945898        2.98499062239158
H           -5.83558737240868        4.30667381285876        3.65607508899936
H           -7.18416031015625        4.76986704249972        2.62376020282813
H           -5.29512707359256        6.04007693389738        1.35599621639911
H           -3.83872584130911        5.87503005573561       -0.60508523423041
H           -3.01939881582683        4.66023839117105       -2.42136285923963
H           -1.92447749043659        3.52496500138551       -1.63149500818338
H           -3.27922405896700        2.91744082783476       -2.57744325412114
H           -3.47185753659837       -0.09310003284003       -2.64089409164714
H           -1.27211557379578       -0.78012049010703       -3.47884268340400
H            1.17539697035367       -0.73645218549737       -3.28733416298676
H            3.20568547065276       -0.14935119887924       -2.06883899347146
H            4.77410659997278        2.85810503415508       -1.10962487677103
H            5.68162292088139        4.98030613172755       -1.68130675535950
H            7.39126902488930        4.80103001742040       -2.09260596416549
H            6.93107437288463        5.63707446339988       -0.61381057051271
H            8.70592494186586        3.83383369941418        0.23491857749851
H            8.78863419240857        1.72539804996163        1.47877038938254
H            7.25952231085981       -1.02276361940299        1.09877440335373
H            7.61644129573937       -0.05492889407559        2.53066919372968
H            5.94148880624661       -0.44326845460180        2.11131321263742
H            6.49824025168321       -0.49196759526156       -1.45765364787554
H            6.78008004604361       -2.84765248592131       -2.03783910604252
H            5.17597776137718       -4.55922055378485       -1.23741395379593
H            0.52156841147029       -2.25218271079491        2.39844398937559
H           -0.24180029054172       -4.61264323843314        2.52593339951169
H            0.97288214132740       -6.38936868929768        1.35754117917529
H            2.99332102371562       -5.88232410500001        0.02677347517750
H            4.13541550842624        2.22483780853826        1.99732705408387
H            1.94209015291540        3.01980616169788        2.77488190704815
H           -0.51539877462107        2.91018650798604        2.63736070993941
H           -2.54740152324992        2.25779938862879        1.46849977252961
H           -6.53451027489423        1.77952899243205       -1.13592563911706
H           -8.34144000146474        0.14929783902393       -1.30747612377252
H           -7.92152166800985       -2.26525271065710       -0.92959248321071
H           -1.89365937698708       -3.67344394660246        0.43840562979257
H           -2.69997534984931       -6.02110294874323        0.50745635763849
H           -5.05256953049930       -6.55480242530098        0.09561153862798
H           -6.68814126334896       -4.77095387994077       -0.41288952755686
H           -5.50645775676482        1.78438958039248        1.52554495116291

          :  Hamiltonian                  GFN2-xTB          :
         :: gradient norm              0.000022535416 Eh/a0 ::
         :: HOMO-LUMO gap              0.525925293965 eV    ::
         :: SCC energy              -157.188180764075 Eh    ::
         :: -> dispersion             -0.153362357747 Eh    ::
         :: -> Gsolv                  -0.059084697357 Eh    ::
         :: repulsion energy           2.752214886837 Eh    ::

    * Orbital Energies and Occupations

         #    Occupation            Energy/Eh            Energy/eV
      -------------------------------------------------------------
         1        2.0000           -0.7376203             -20.0717
       ...           ...                  ...                  ...
       132        2.0000           -0.3999839             -10.8841
       133        2.0000           -0.3963826             -10.7861
       134        2.0000           -0.3937600             -10.7148
       135        2.0000           -0.3935162             -10.7081
       136        2.0000           -0.3899337             -10.6106
       137        2.0000           -0.3896400             -10.6026
       138        2.0000           -0.3888304             -10.5806
       139        2.0000           -0.3883559             -10.5677
       140        2.0000           -0.3870117             -10.5311
       141        2.0000           -0.3694601             -10.0535
       142        2.0000           -0.3576765              -9.7329
       143        1.0000           -0.3333013              -9.0696
       144        1.0000           -0.2729475              -7.4273 (HOMO)
       145        0.0000           -0.2536200              -6.9014 (LUMO)
       146        0.0000           -0.2525186              -6.8714
       147                         -0.2329991              -6.3402
       148                         -0.2325779              -6.3288
       149                         -0.2307346              -6.2786
       150                         -0.2224937              -6.0544
       151                         -0.2209887              -6.0134
       152                         -0.2199001              -5.9838
       153                         -0.2170864              -5.9072
       154                         -0.2165171              -5.8917
       155                         -0.2094493              -5.6994
       ...                                ...                  ...
       280                          0.7370712              20.0567
      -------------------------------------------------------------
                  HL-Gap            0.0193274 Eh            0.5259 eV

     #   Z          covCN         q      C6AA      α(0)
     1   6 C        3.758    -0.111    22.666     6.788
     2   6 C        2.964     0.015    27.667     8.628
     3   6 C        2.923    -0.046    29.153     8.854
     4   6 C        2.925    -0.041    29.018     8.834
     5   6 C        2.964     0.001    27.995     8.679
     6   6 C        3.757    -0.105    22.552     6.771
     7   6 C        2.925     0.055    26.761     8.484
     8   7 N        2.751    -0.045    22.103     6.983
     9   6 C        2.919     0.046    26.958     8.514
    10   6 C        2.912    -0.041    29.011     8.832
    11   6 C        2.914    -0.054    29.341     8.882
    12   6 C        2.979     0.003    27.964     8.674
    13   6 C        2.917    -0.049    29.224     8.865
    14   6 C        2.915    -0.046    29.154     8.854
    15   6 C        2.976    -0.000    28.030     8.684
    16   6 C        2.924     0.043    27.028     8.526
    17   7 N        2.752    -0.045    22.105     6.983
    18   6 C        2.931     0.051    26.845     8.497
    19   6 C        2.929    -0.053    29.306     8.878
    20   6 C        2.964     0.016    27.653     8.625
    21   6 C        3.758    -0.111    22.673     6.789
    22   6 C        2.923    -0.046    29.138     8.852
    23   6 C        2.925    -0.042    29.036     8.837
    24   6 C        2.964     0.001    28.010     8.681
    25   6 C        3.757    -0.105    22.566     6.773
    26   6 C        2.912     0.049    26.903     8.505
    27   6 C        2.926    -0.057    29.428     8.896
    28   6 C        2.919    -0.040    28.992     8.830
    29   6 C        2.911    -0.047    29.157     8.854
    30   6 C        3.053    -0.023    28.519     8.758
    31   6 C        3.100     0.115    25.360     8.252
    32   8 O        1.715    -0.239    17.952     5.721
    33   6 C        3.098     0.127    25.101     8.211
    34   6 C        2.908    -0.053    29.308     8.877
    35   6 C        2.926    -0.033    28.824     8.805
    36   6 C        2.920    -0.039    28.978     8.828
    37   6 C        2.913    -0.035    28.861     8.809
    38   6 C        3.058    -0.022    28.485     8.752
    39   6 C        2.911    -0.045    29.113     8.848
    40   6 C        2.915    -0.054    29.348     8.883
    41   6 C        2.978     0.003    27.959     8.673
    42   6 C        2.917    -0.048    29.202     8.861
    43   6 C        2.915    -0.048    29.186     8.859
    44   6 C        2.974    -0.003    28.088     8.693
    45   6 C        2.993    -0.001    28.041     8.686
    46   6 C        2.994    -0.000    28.023     8.684
    47   6 C        2.922     0.043    27.041     8.528
    48   6 C        2.925    -0.057    29.407     8.893
    49   6 C        2.919    -0.039    28.976     8.827
    50   6 C        2.911    -0.046    29.139     8.852
    51   6 C        3.053    -0.023    28.532     8.760
    52   6 C        3.097     0.115    25.359     8.253
    53   8 O        1.714    -0.239    17.952     5.721
    54   6 C        3.096     0.127    25.113     8.213
    55   6 C        2.908    -0.053    29.312     8.878
    56   6 C        2.927    -0.033    28.821     8.804
    57   6 C        2.920    -0.039    28.971     8.827
    58   6 C        2.913    -0.035    28.870     8.811
    59   6 C        3.058    -0.021    28.482     8.752
    60   6 C        2.929    -0.055    29.379     8.889
    61   1 H        0.925     0.045     2.388     2.417
    62   1 H        0.924     0.052     2.300     2.371
    63   1 H        0.925     0.051     2.311     2.378
    64   1 H        0.926     0.038     2.477     2.461
    65   1 H        0.926     0.038     2.474     2.460
    66   1 H        0.925     0.048     2.341     2.393
    67   1 H        0.924     0.047     2.364     2.404
    68   1 H        0.925     0.043     2.403     2.424
    69   1 H        0.925     0.017     2.774     2.605
    70   1 H        0.926     0.021     2.725     2.582
    71   1 H        0.926     0.019     2.751     2.594
    72   1 H        0.926     0.017     2.782     2.608
    73   1 H        0.926     0.034     2.529     2.487
    74   1 H        0.925     0.045     2.390     2.417
    75   1 H        0.925     0.053     2.287     2.365
    76   1 H        0.925     0.051     2.305     2.374
    77   1 H        0.926     0.039     2.463     2.454
    78   1 H        0.926     0.039     2.458     2.452
    79   1 H        0.924     0.050     2.315     2.379
    80   1 H        0.925     0.050     2.325     2.384
    81   1 H        0.925     0.038     2.470     2.457
    82   1 H        0.926     0.042     2.428     2.437
    83   1 H        0.926     0.041     2.429     2.437
    84   1 H        0.926     0.041     2.436     2.441
    85   1 H        0.926     0.040     2.443     2.444
    86   1 H        0.926     0.044     2.400     2.423
    87   1 H        0.926     0.042     2.419     2.432
    88   1 H        0.926     0.043     2.410     2.427
    89   1 H        0.925     0.025     2.660     2.550
    90   1 H        0.926     0.024     2.674     2.557
    91   1 H        0.926     0.021     2.714     2.576
    92   1 H        0.926     0.024     2.674     2.557
    93   1 H        0.926     0.043     2.404     2.425
    94   1 H        0.926     0.043     2.404     2.425
    95   1 H        0.926     0.042     2.416     2.431
    96   1 H        0.926     0.043     2.407     2.426
    97   1 H        0.926     0.044     2.391     2.418
    98   1 H        0.926     0.042     2.418     2.432
    99   1 H        0.926     0.043     2.411     2.428
   100   1 H        0.925     0.031     2.566     2.505

molecular dipole:
                 x           y           z       tot (Debye)
 q only:        0.111       0.344       0.071
   full:        0.144       0.336       0.093       0.959

 projected vibrational frequencies (cm⁻¹)
eigval :       -0.00    -0.00    -0.00     0.00     0.00     0.00
eigval :       12.51    17.12    18.20    21.50    25.25    33.58
eigval :       34.51    37.17    42.47    47.95    50.47    54.98
eigval :       57.94    72.18    76.08    94.66    96.15   103.52
eigval :      114.21   116.30   120.35   124.50   129.85   135.42
eigval :      153.87   156.26   164.73   174.55   176.38   201.89
eigval :      204.94   213.95   220.56   221.48   224.95   240.10
eigval :      254.03   257.99   265.82   273.61   282.86   286.23
eigval :      303.77   306.93   313.44   318.40   320.02   320.39
eigval :      326.08   347.99   370.04   397.47   400.01   407.40
eigval :      410.77   414.59   424.08   429.46   431.60   436.94
eigval :      439.12   448.12   458.93   471.85   472.76   480.84
eigval :      487.10   501.66   504.48   507.40   509.79   524.47
eigval :      529.50   536.79   537.96   539.35   540.20   543.71
eigval :      546.28   565.55   567.37   572.03   580.81   587.19
eigval :      602.64   613.25   617.51   624.56   628.41   644.75
eigval :      662.23   666.25   669.37   671.26   673.43   679.14
eigval :      681.69   683.38   708.66   709.72   726.29   736.74
eigval :      743.30   752.02   757.71   768.35   775.28   777.23
eigval :      779.28   782.07   789.51   790.30   796.37   802.13
eigval :      804.32   809.11   813.85   817.26   838.91   840.21
eigval :      845.97   847.52   861.79   865.52   867.63   870.25
eigval :      872.41   875.16   879.26   883.26   883.79   898.73
eigval :      903.30   904.11   905.11   908.45   910.00   913.49
eigval :      914.55   918.12   923.67   927.42   929.09   973.08
eigval :      977.85   988.91  1008.27  1011.37  1020.11  1024.29
eigval :     1027.12  1028.19  1032.74  1033.88  1040.86  1061.39
eigval :     1063.01  1078.21  1087.91  1100.00  1101.19  1122.35
eigval :     1126.53  1137.44  1145.18  1151.86  1154.26  1161.68
eigval :     1171.80  1173.60  1176.23  1181.38  1181.80  1185.54
eigval :     1186.90  1205.37  1205.85  1207.03  1211.58  1212.51
eigval :     1215.77  1218.04  1220.30  1229.79  1234.08  1248.45
eigval :     1249.34  1250.85  1256.50  1263.33  1265.34  1280.93
eigval :     1286.15  1295.28  1306.19  1312.21  1317.36  1323.04
eigval :     1324.26  1330.10  1333.97  1343.81  1345.15  1347.49
eigval :     1349.19  1363.97  1364.71  1375.92  1383.83  1387.63
eigval :     1392.24  1393.22  1401.13  1401.45  1403.04  1403.65
eigval :     1408.81  1409.09  1417.68  1418.38  1421.80  1458.99
eigval :     1464.02  1466.33  1469.14  1474.42  1476.00  1476.95
eigval :     1477.11  1477.81  1480.76  1481.45  1482.42  1483.80
eigval :     1484.52  1496.47  1496.68  1507.34  1514.19  1515.81
eigval :     1530.54  1552.98  1556.10  1559.24  1562.91  1565.08
eigval :     1566.82  1570.50  1589.77  1590.21  1599.52  1599.94
eigval :     1601.96  1604.26  2989.48  2995.55  2997.95  3002.62
eigval :     3021.94  3024.11  3025.74  3029.57  3034.93  3035.70
eigval :     3042.19  3045.70  3051.41  3063.42  3063.95  3066.55
eigval :     3068.75  3071.38  3071.52  3073.32  3078.85  3080.00
eigval :     3081.04  3081.18  3081.97  3084.66  3085.14  3085.84
eigval :     3086.34  3086.87  3089.92  3092.83  3094.41  3096.36
eigval :     3097.11  3100.66  3104.85  3106.16  3106.79  3114.23

   temp. (K)  partition function   enthalpy   heat capacity  entropy
                                   cal/mol     cal/K/mol   cal/K/mol   J/K/mol
 298.15  VIB  0.127E+23            29235.143    184.013    180.593
         ROT  0.126E+09              888.752      2.981     40.044
         INT  0.160E+31            30123.895    186.994    220.637
         TR   0.208E+29             1481.254      4.968     45.793
         TOT                       31605.1488   191.9625   266.4301  1114.7435

       T/K    H(0)-H(T)+PV         H(T)/Eh          T*S/Eh         G(T)/Eh
   ------------------------------------------------------------------------
    298.15    0.503660E-01    0.824452E+00    0.126590E+00    0.697863E+00
   ------------------------------------------------------------------------

         :::::::::::::::::::::::::::::::::::::::::::::::::::::
         ::                  THERMODYNAMIC                  ::
         :::::::::::::::::::::::::::::::::::::::::::::::::::::
         :: total free energy        -153.738103030322 Eh   ::
         ::.................................................::
         :: total energy             -154.435965873337 Eh   ::
         :: zero point energy           0.774086364874 Eh   ::
         :: G(RRHO) w/o ZPVE           -0.076223521860 Eh   ::
         :: G(RRHO) contrib.            0.697862843014 Eh   ::
         :::::::::::::::::::::::::::::::::::::::::::::::::::::

           -------------------------------------------------
          | TOTAL ENERGY             -154.435965873337 Eh   |
          | TOTAL ENTHALPY           -153.611513497938 Eh   |
          | TOTAL FREE ENERGY        -153.738103030322 Eh   |
          | GRADIENT NORM               0.000022548732 Eh/α |
          | HOMO-LUMO GAP               0.525926174287 eV   |
           -------------------------------------------------

 * finished run on 2025/09/12 at 02:53:40.588
