   * xtb version 6.7.1 (edcfbbe) compiled by 'albert@albert-system' on 2024-07-22

   ID    Z sym.   atoms
    1    6 C      1-7, 9-16, 18-31, 33-52, 54-60
    2    7 N      8, 17
    3    8 O      32, 53
    4    1 H      61-100

          program call               : xtb data2507/toluene/BPPyA/BPPyA_toluene_S0_finalOpt.xtbopt.xyz --gfn 2 --uhf 2 --gbsa toluene --ohess vtight --parallel 40 --molden --ceasefiles --namespace data2507/toluene/BPPyA/BPPyA_toluene_T1_preOpt
      * Solvation model:               GBSA
        Solvent                        toluene
        Solvent mass                       9.2140E+01 g/mol
          :  Hamiltonian                  GFN2-xTB          :
 * total energy  :  -154.4302966 Eh     change       -0.6618620E-08 Eh
 * total energy  :  -154.4346777 Eh     change       -0.4381124E-02 Eh
 * total energy  :  -154.4357865 Eh     change       -0.1108758E-02 Eh
 * total energy  :  -154.4358340 Eh     change       -0.4746797E-04 Eh
 * total energy  :  -154.4358563 Eh     change       -0.2238270E-04 Eh
 * total energy  :  -154.4358657 Eh     change       -0.9378134E-05 Eh
 * total energy  :  -154.4358759 Eh     change       -0.1014792E-04 Eh
 * total energy  :  -154.4358861 Eh     change       -0.1018337E-04 Eh
 * total energy  :  -154.4358936 Eh     change       -0.7512729E-05 Eh
 * total energy  :  -154.4359012 Eh     change       -0.7585135E-05 Eh
 * total energy  :  -154.4359214 Eh     change       -0.3066247E-05 Eh
 * total energy  :  -154.4359237 Eh     change       -0.2324837E-05 Eh
 * total energy  :  -154.4359257 Eh     change       -0.1957124E-05 Eh
 * total energy  :  -154.4359275 Eh     change       -0.1779118E-05 Eh
 * total energy  :  -154.4359292 Eh     change       -0.1688860E-05 Eh
 * total energy  :  -154.4359305 Eh     change       -0.1359668E-05 Eh
 * total energy  :  -154.4359316 Eh     change       -0.1078397E-05 Eh
 * total energy  :  -154.4359323 Eh     change       -0.6999077E-06 Eh
 * total energy  :  -154.4359323 Eh     change       -0.1089080E-07 Eh
   *** GEOMETRY OPTIMIZATION CONVERGED AFTER 22 ITERATIONS ***

 final structure:
================
100
 xtb: 6.7.1 (edcfbbe)
C           -6.42422792166250        4.06442658474303        2.73703088276526
C           -5.50350342293755        3.96444303360434        1.55900980658097
C           -5.00673608152403        5.10177940995415        0.93228809711468
C           -4.18277682909024        4.98849604691129       -0.17173741553579
C           -3.81593139705791        3.75587133961840       -0.69655289126389
C           -2.95202796256218        3.69947797243421       -1.91953331313593
C           -4.29988611029819        2.60695714358240       -0.05633214937077
N           -3.98847131924878        1.31277162877884       -0.51582558896135
C           -2.71146423973121        0.93933352328984       -0.91933044214015
C           -2.58226279811744        0.15894757737405       -2.07582693950077
C           -1.36278159756792       -0.23330144093997       -2.54684482062904
C           -0.16786561648597        0.12835632157347       -1.85847530870693
C            1.09070696908664       -0.22208422839680       -2.34312484548849
C            2.24367130613908        0.10277559110967       -1.64689005537636
C            2.18030017600942        0.77412201858689       -0.42372351738177
C            3.35039620818863        1.08960175225294        0.35313203952824
N            4.59572386118238        0.55396654313110        0.04245482771935
C            5.71923963277528        1.40396705912071        0.11573286596694
C            5.65176475649384        2.62116762322439       -0.56191011581347
C            6.70476959250827        3.51779143558419       -0.54422608993810
C            6.62591772534201        4.82494560309138       -1.27242232552878
C            7.84772000513846        3.17390661027507        0.17256608465012
C            7.91129828755381        1.97904382639618        0.86281967664614
C            6.85607500481137        1.07447195683648        0.86268937609740
C            6.94634265313449       -0.18313275892912        1.67249221316985
C            4.74779707455687       -0.78264123551847       -0.28804497788140
C            5.80008984362115       -1.22621372072841       -1.09535525823684
C            5.95542416010961       -2.56450150118297       -1.42847627213312
C            5.06977645051235       -3.52904848393079       -0.98591368486906
C            4.00886036947375       -3.11882796947963       -0.18313544458065
C            3.85862916910849       -1.76612393796140        0.16243754731272
O            2.77627596952120       -1.56850524754993        0.97104367633257
C            2.20492474431482       -2.78998512261227        1.14729764676689
C            1.07221396731944       -3.06574480926839        1.89255199758386
C            0.65861207133953       -4.38506128173187        1.94780128349522
C            1.35048014160000       -5.39252064760664        1.27808705726248
C            2.47919928196425       -5.11418804553818        0.53223441735238
C            2.91557682225096       -3.79672121359345        0.46428286000286
C            3.24305231768036        1.94617363393032        1.45458293854461
C            2.02767485057013        2.39131456726513        1.89201265809444
C            0.82605785683473        1.99855430657789        1.23068637405974
C           -0.43102059818011        2.35360244312349        1.71461843179107
C           -1.58872167767830        1.99611271954520        1.04110142854876
C           -1.53684756531989        1.30316996912632       -0.17095747351056
C           -0.26692342816046        0.88508696156158       -0.66140891206479
C            0.91445312110062        1.21535405958361        0.04986084735538
C           -5.01796223956817        0.38087007183644       -0.61823768292196
C           -6.32606039413592        0.75460143276013       -0.94450529306588
C           -7.35368899123762       -0.17260348613857       -1.03672608765104
C           -7.13409892680711       -1.52073754260803       -0.82256043729471
C           -5.84006996924093       -1.92701939992953       -0.50922057798809
C           -4.80165662287887       -0.98563839446965       -0.40535273093172
O           -3.61498844681081       -1.57702325388936       -0.08117418090650
C           -3.86800961505390       -2.91198123245164        0.01490758192473
C           -2.94731572552810       -3.90405547779835        0.30139985298134
C           -3.41552071811103       -5.20590657597834        0.34214381969349
C           -4.75581417719511       -5.50547672976507        0.10676129781142
C           -5.67236985342988       -4.51350590148236       -0.18211817619625
C           -5.22507858147000       -3.19881077289756       -0.23197330977280
C           -5.13805070586571        2.72895842177934        1.05327851127327
H           -6.27638148511085        5.00296800711201        3.26569658784284
H           -7.46113608500785        4.02356021195605        2.40113938770909
H           -6.26299125000352        3.23850840085413        3.42630996180731
H           -5.27040275158460        6.07988074110390        1.30697810436228
H           -3.81833695140817        5.88487655446560       -0.65296244656770
H           -1.91153528301423        3.51720180281444       -1.64889967674775
H           -3.26679733610732        2.90137245596828       -2.58866119654024
H           -3.00250775730491        4.64529239553180       -2.45435118618481
H           -3.47860762740197       -0.10077728654926       -2.62463864193216
H           -1.28307920599935       -0.80478599103540       -3.45963558791453
H            1.16481360536467       -0.76787939351610       -3.27337729541595
H            3.19937496619170       -0.17684425614821       -2.06469759766960
H            4.75035281793360        2.85087581486717       -1.11296333972271
H            5.70894385589893        4.89277389557825       -1.85199816162404
H            7.47614509483955        4.93919500488321       -1.94327930176390
H            6.64911224382770        5.65142420038808       -0.56243777086207
H            8.68629513529979        3.85428572118927        0.19791811947111
H            8.79839784394438        1.74150411527203        1.43256774463792
H            7.64906891083853       -0.04994627930561        2.49196498678410
H            5.97537102787252       -0.45454809150018        2.08291622771569
H            7.29219289308111       -1.01590962712097        1.05881833168883
H            6.49893600276122       -0.49526800740979       -1.47411296624406
H            6.78683268035736       -2.84985728711474       -2.05572558287029
H            5.19088395095706       -4.56693177913121       -1.25085079310763
H            0.54103187973216       -2.27618375934478        2.40107521106502
H           -0.21938724149567       -4.63797719418636        2.52332800573675
H            0.99456632641100       -6.40974101666655        1.34666871291788
H            3.01244471222176       -5.89659652645518        0.01432399991044
H            4.14382904345156        2.21194033853688        1.99091927927217
H            1.95437066251951        3.01537431338327        2.77008361203849
H           -0.50284955792897        2.92284834909688        2.63072981327596
H           -2.53903392041818        2.27643084472730        1.46534330411147
H           -6.53039699342891        1.79801007233850       -1.13062412079231
H           -8.34415790098002        0.17390490668794       -1.29084106455864
H           -7.93365729789728       -2.23979527294978       -0.89836040011949
H           -1.91058696183693       -3.66307151599587        0.47597247989658
H           -2.72528790721977       -6.00739918476659        0.55745577784675
H           -5.07997544985029       -6.53469563058051        0.14856040934822
H           -6.70921232729654       -4.74759540576009       -0.36853686286474
H           -5.49810088225228        1.82759157394230        1.53008403129652

          :  Hamiltonian                  GFN2-xTB          :
         :: gradient norm              0.000078063160 Eh/a0 ::
         :: HOMO-LUMO gap              0.526820240273 eV    ::
         :: SCC energy              -157.188134830937 Eh    ::
         :: -> dispersion             -0.153306423766 Eh    ::
         :: -> Gsolv                  -0.059127148598 Eh    ::
         :: repulsion energy           2.752202523541 Eh    ::

    * Orbital Energies and Occupations

         #    Occupation            Energy/Eh            Energy/eV
      -------------------------------------------------------------
         1        2.0000           -0.7376170             -20.0716
       ...           ...                  ...                  ...
       132        2.0000           -0.3999641             -10.8836
       133        2.0000           -0.3962717             -10.7831
       134        2.0000           -0.3937016             -10.7132
       135        2.0000           -0.3934767             -10.7070
       136        2.0000           -0.3899319             -10.6106
       137        2.0000           -0.3896606             -10.6032
       138        2.0000           -0.3888714             -10.5817
       139        2.0000           -0.3883404             -10.5673
       140        2.0000           -0.3869897             -10.5305
       141        2.0000           -0.3694795             -10.0540
       142        2.0000           -0.3577002              -9.7335
       143        1.0000           -0.3333618              -9.0712
       144        1.0000           -0.2729690              -7.4279 (HOMO)
       145        0.0000           -0.2536088              -6.9010 (LUMO)
       146        0.0000           -0.2525138              -6.8713
       147                         -0.2329103              -6.3378
       148                         -0.2325599              -6.3283
       149                         -0.2307120              -6.2780
       150                         -0.2226993              -6.0600
       151                         -0.2210090              -6.0140
       152                         -0.2199837              -5.9861
       153                         -0.2170658              -5.9067
       154                         -0.2164149              -5.8889
       155                         -0.2094356              -5.6990
       ...                                ...                  ...
       280                          0.7370451              20.0560
      -------------------------------------------------------------
                  HL-Gap            0.0193602 Eh            0.5268 eV

     #   Z          covCN         q      C6AA      α(0)
     1   6 C        3.758    -0.111    22.666     6.788
     2   6 C        2.964     0.015    27.667     8.628
     3   6 C        2.923    -0.046    29.147     8.853
     4   6 C        2.925    -0.041    29.019     8.834
     5   6 C        2.964     0.001    27.994     8.678
     6   6 C        3.757    -0.105    22.553     6.771
     7   6 C        2.925     0.055    26.759     8.483
     8   7 N        2.751    -0.045    22.106     6.983
     9   6 C        2.919     0.046    26.957     8.514
    10   6 C        2.912    -0.041    29.010     8.832
    11   6 C        2.914    -0.054    29.341     8.882
    12   6 C        2.979     0.003    27.963     8.674
    13   6 C        2.917    -0.049    29.224     8.865
    14   6 C        2.915    -0.046    29.154     8.854
    15   6 C        2.975    -0.000    28.029     8.684
    16   6 C        2.924     0.043    27.029     8.526
    17   7 N        2.752    -0.045    22.103     6.983
    18   6 C        2.931     0.051    26.846     8.497
    19   6 C        2.929    -0.053    29.306     8.878
    20   6 C        2.964     0.016    27.653     8.626
    21   6 C        3.758    -0.111    22.673     6.789
    22   6 C        2.923    -0.046    29.139     8.852
    23   6 C        2.925    -0.042    29.036     8.837
    24   6 C        2.964     0.001    28.012     8.681
    25   6 C        3.757    -0.105    22.568     6.773
    26   6 C        2.912     0.049    26.903     8.505
    27   6 C        2.926    -0.057    29.427     8.896
    28   6 C        2.919    -0.040    28.992     8.830
    29   6 C        2.911    -0.047    29.157     8.854
    30   6 C        3.053    -0.023    28.519     8.758
    31   6 C        3.100     0.115    25.360     8.252
    32   8 O        1.715    -0.239    17.952     5.721
    33   6 C        3.098     0.127    25.101     8.211
    34   6 C        2.908    -0.053    29.308     8.877
    35   6 C        2.926    -0.033    28.825     8.805
    36   6 C        2.920    -0.039    28.978     8.828
    37   6 C        2.913    -0.035    28.860     8.809
    38   6 C        3.058    -0.022    28.485     8.752
    39   6 C        2.911    -0.045    29.111     8.847
    40   6 C        2.915    -0.054    29.347     8.883
    41   6 C        2.978     0.003    27.958     8.673
    42   6 C        2.917    -0.048    29.201     8.861
    43   6 C        2.915    -0.048    29.184     8.859
    44   6 C        2.974    -0.003    28.087     8.693
    45   6 C        2.993    -0.001    28.041     8.686
    46   6 C        2.994    -0.000    28.023     8.684
    47   6 C        2.922     0.043    27.041     8.528
    48   6 C        2.925    -0.057    29.406     8.893
    49   6 C        2.919    -0.039    28.974     8.827
    50   6 C        2.911    -0.046    29.138     8.851
    51   6 C        3.053    -0.023    28.531     8.760
    52   6 C        3.097     0.115    25.359     8.253
    53   8 O        1.714    -0.239    17.952     5.721
    54   6 C        3.096     0.127    25.113     8.213
    55   6 C        2.908    -0.053    29.313     8.878
    56   6 C        2.927    -0.033    28.821     8.804
    57   6 C        2.920    -0.039    28.971     8.827
    58   6 C        2.913    -0.035    28.870     8.811
    59   6 C        3.058    -0.021    28.482     8.752
    60   6 C        2.929    -0.056    29.385     8.890
    61   1 H        0.925     0.048     2.346     2.395
    62   1 H        0.924     0.053     2.285     2.364
    63   1 H        0.925     0.046     2.369     2.407
    64   1 H        0.926     0.037     2.486     2.466
    65   1 H        0.926     0.038     2.474     2.460
    66   1 H        0.924     0.047     2.364     2.404
    67   1 H        0.925     0.044     2.402     2.424
    68   1 H        0.925     0.048     2.341     2.393
    69   1 H        0.925     0.017     2.775     2.605
    70   1 H        0.926     0.021     2.725     2.582
    71   1 H        0.926     0.019     2.752     2.594
    72   1 H        0.926     0.017     2.783     2.609
    73   1 H        0.926     0.034     2.531     2.488
    74   1 H        0.925     0.044     2.391     2.418
    75   1 H        0.925     0.052     2.299     2.371
    76   1 H        0.925     0.052     2.293     2.368
    77   1 H        0.926     0.039     2.463     2.454
    78   1 H        0.926     0.039     2.458     2.452
    79   1 H        0.925     0.050     2.324     2.384
    80   1 H        0.925     0.038     2.470     2.458
    81   1 H        0.924     0.051     2.313     2.378
    82   1 H        0.926     0.042     2.427     2.436
    83   1 H        0.926     0.041     2.429     2.437
    84   1 H        0.926     0.041     2.436     2.441
    85   1 H        0.926     0.040     2.443     2.444
    86   1 H        0.926     0.044     2.400     2.423
    87   1 H        0.926     0.042     2.420     2.432
    88   1 H        0.926     0.043     2.410     2.427
    89   1 H        0.925     0.025     2.660     2.550
    90   1 H        0.926     0.024     2.673     2.557
    91   1 H        0.926     0.021     2.712     2.575
    92   1 H        0.926     0.024     2.676     2.558
    93   1 H        0.926     0.043     2.407     2.426
    94   1 H        0.926     0.043     2.406     2.425
    95   1 H        0.926     0.042     2.416     2.431
    96   1 H        0.926     0.043     2.407     2.426
    97   1 H        0.926     0.044     2.392     2.418
    98   1 H        0.926     0.042     2.418     2.432
    99   1 H        0.926     0.043     2.411     2.428
   100   1 H        0.925     0.032     2.557     2.501

molecular dipole:
                 x           y           z       tot (Debye)
 q only:        0.090       0.342       0.055
   full:        0.107       0.330       0.073       0.901

 projected vibrational frequencies (cm⁻¹)
eigval :       -0.00    -0.00     0.00     0.00     0.00     0.00
eigval :      -47.59    12.63    18.08    18.94    23.65    25.73
eigval :       33.72    35.48    38.63    43.75    46.52    48.84
eigval :       54.58    59.11    72.34    95.32    98.16   103.73
eigval :      114.43   116.15   120.47   125.64   130.56   135.86
eigval :      154.08   156.67   164.81   176.12   178.67   201.08
eigval :      205.26   214.28   221.09   221.92   225.21   239.77
eigval :      254.32   258.12   265.96   273.84   282.96   286.53
eigval :      304.06   307.60   313.62   319.02   321.51   321.73
eigval :      326.32   348.42   370.55   397.55   400.13   407.71
eigval :      411.56   414.68   423.53   429.72   431.90   437.22
eigval :      438.61   447.96   460.16   472.75   474.04   480.81
eigval :      487.12   501.50   504.30   507.40   509.86   524.34
eigval :      529.63   536.81   538.54   539.61   540.15   543.62
eigval :      546.42   565.74   567.46   572.03   580.94   587.58
eigval :      602.72   613.29   617.67   624.67   628.87   644.99
eigval :      662.53   666.24   669.29   671.62   673.57   679.43
eigval :      681.62   683.52   708.83   710.22   726.16   736.84
eigval :      743.55   751.91   757.37   768.09   774.95   776.58
eigval :      778.74   781.86   788.26   789.60   796.39   801.74
eigval :      804.34   809.06   812.55   817.10   838.94   840.23
eigval :      845.99   847.50   861.62   865.65   866.59   870.45
eigval :      872.24   874.91   879.40   883.87   886.15   898.29
eigval :      903.18   903.66   904.66   908.62   910.33   910.70
eigval :      912.47   917.40   923.01   926.60   928.97   972.64
eigval :      977.34   988.70  1008.68  1011.66  1019.82  1023.26
eigval :     1028.15  1031.79  1032.23  1035.01  1041.09  1061.46
eigval :     1063.14  1078.33  1088.00  1099.99  1101.51  1122.44
eigval :     1126.57  1137.89  1145.25  1152.32  1154.60  1161.59
eigval :     1171.93  1173.61  1176.30  1181.49  1181.86  1185.60
eigval :     1187.01  1205.44  1205.82  1207.15  1211.78  1212.69
eigval :     1216.00  1217.94  1220.17  1229.55  1234.12  1248.54
eigval :     1249.27  1250.86  1256.64  1263.60  1265.77  1281.16
eigval :     1286.12  1295.48  1307.35  1313.12  1317.31  1319.50
eigval :     1324.58  1330.04  1333.99  1343.84  1345.03  1347.50
eigval :     1349.21  1363.97  1364.77  1375.90  1384.08  1387.59
eigval :     1392.10  1393.20  1401.08  1403.22  1403.31  1404.42
eigval :     1409.28  1410.41  1417.78  1418.41  1421.83  1458.95
eigval :     1464.10  1466.34  1469.19  1474.40  1474.62  1475.36
eigval :     1476.99  1478.08  1480.77  1480.86  1482.63  1483.32
eigval :     1484.84  1495.64  1496.72  1507.58  1514.11  1515.61
eigval :     1530.73  1553.14  1556.52  1559.29  1563.03  1565.85
eigval :     1566.81  1570.58  1589.76  1590.23  1598.20  1600.03
eigval :     1601.99  1604.28  2989.93  2994.07  2995.70  3004.17
eigval :     3019.57  3024.79  3029.81  3033.10  3035.07  3035.50
eigval :     3039.70  3045.04  3051.56  3063.48  3064.03  3066.60
eigval :     3070.96  3071.54  3071.69  3073.61  3078.82  3079.88
eigval :     3081.01  3081.09  3082.00  3084.35  3084.79  3085.83
eigval :     3086.29  3086.97  3089.72  3092.79  3094.35  3096.27
eigval :     3097.11  3100.61  3104.66  3106.18  3106.84  3113.99

   temp. (K)  partition function   enthalpy   heat capacity  entropy
                                   cal/mol     cal/K/mol   cal/K/mol   J/K/mol
 298.15  VIB  0.283E+22            28717.018    182.229    176.363
         ROT  0.126E+09              888.752      2.981     40.048
         INT  0.357E+30            29605.770    185.210    216.412
         TR   0.208E+29             1481.254      4.968     45.793
         TOT                       31087.0243   190.1779   262.2048  1097.0647

       T/K    H(0)-H(T)+PV         H(T)/Eh          T*S/Eh         G(T)/Eh
   ------------------------------------------------------------------------
    298.15    0.495403E-01    0.823523E+00    0.124582E+00    0.698941E+00
   ------------------------------------------------------------------------

         :::::::::::::::::::::::::::::::::::::::::::::::::::::
         ::                  THERMODYNAMIC                  ::
         :::::::::::::::::::::::::::::::::::::::::::::::::::::
         :: total free energy        -153.736991354234 Eh   ::
         ::.................................................::
         :: total energy             -154.435932304424 Eh   ::
         :: zero point energy           0.773982563864 Eh   ::
         :: G(RRHO) w/o ZPVE           -0.075041613674 Eh   ::
         :: G(RRHO) contrib.            0.698940950190 Eh   ::
         :::::::::::::::::::::::::::::::::::::::::::::::::::::

           -------------------------------------------------
          | TOTAL ENERGY             -154.435932304424 Eh   |
          | TOTAL ENTHALPY           -153.612409413913 Eh   |
          | TOTAL FREE ENERGY        -153.736991354234 Eh   |
          | GRADIENT NORM               0.000078038605 Eh/α |
          | HOMO-LUMO GAP               0.526818871781 eV   |
           -------------------------------------------------

 * finished run on 2025/09/12 at 02:31:53.137
