   * xtb version 6.7.1 (edcfbbe) compiled by 'albert@albert-system' on 2024-07-22

   ID    Z sym.   atoms
    1    6 C      1, 3-12, 14-20, 22-28, 30-34
    2    8 O      2, 13, 21, 29
    3    1 H      35-62

          program call               : xtb data2507/gas/TMOE/TMOE_gas_S0_crest.xyz --gfn 2 --ohess vtight --parallel 40 --molden --ceasefiles --namespace data2507/gas/TMOE/TMOE_gas_S0_finalOpt
          :  Hamiltonian                  GFN2-xTB          :
 * total energy  :   -94.7586954 Eh     change       -0.2707353E-08 Eh
 * total energy  :   -94.7586966 Eh     change       -0.1233046E-05 Eh
 * total energy  :   -94.7586983 Eh     change       -0.1710342E-05 Eh
 * total energy  :   -94.7587020 Eh     change       -0.3672280E-05 Eh
 * total energy  :   -94.7587059 Eh     change       -0.3960622E-05 Eh
 * total energy  :   -94.7587086 Eh     change       -0.2676475E-05 Eh
 * total energy  :   -94.7587107 Eh     change       -0.2129597E-05 Eh
 * total energy  :   -94.7587130 Eh     change       -0.2236645E-05 Eh
 * total energy  :   -94.7587151 Eh     change       -0.2095925E-05 Eh
 * total energy  :   -94.7587164 Eh     change       -0.1330837E-05 Eh
 * total energy  :   -94.7587192 Eh     change       -0.5791549E-06 Eh
 * total energy  :   -94.7587196 Eh     change       -0.3651229E-06 Eh
 * total energy  :   -94.7587199 Eh     change       -0.2859326E-06 Eh
 * total energy  :   -94.7587202 Eh     change       -0.2921907E-06 Eh
 * total energy  :   -94.7587205 Eh     change       -0.3373275E-06 Eh
 * total energy  :   -94.7587208 Eh     change       -0.3393972E-06 Eh
 * total energy  :   -94.7587211 Eh     change       -0.2731591E-06 Eh
 * total energy  :   -94.7587213 Eh     change       -0.2325673E-06 Eh
 * total energy  :   -94.7587213 Eh     change       -0.2273680E-08 Eh
   *** GEOMETRY OPTIMIZATION CONVERGED AFTER 22 ITERATIONS ***

 final structure:
================
62
 xtb: 6.7.1 (edcfbbe)
C           -5.68382003524829       -3.54426671219208        1.28029183534872
O           -4.66347897346530       -3.82027169017173        0.35372567184808
C           -3.56733440725493       -3.00826865213739        0.33138718168006
C           -3.36998290222560       -1.90858812764054        1.15923550477902
C           -2.21925652078627       -1.15113412166927        1.04066840518461
C           -1.23973238015021       -1.46500886998481        0.10426933602849
C           -0.00365250931432       -0.67500502373876       -0.00299924364635
C           -0.00417015281562        0.67852920473811        0.00693140999851
C           -1.24073332894968        1.46752523456417       -0.10230848465063
C           -1.43982676043291        2.58750324478069        0.70652476437943
C           -2.58628047840218        3.34189649933526        0.59974499202024
C           -3.56854716173797        3.00986184463175       -0.33465436324349
O           -4.66463978212332        3.82184219928840       -0.35999259516650
C           -5.68475258281865        3.54276589563100       -1.28589577176837
C           -3.37021138547889        1.90850437253635       -1.16003022094153
C           -2.21935352043733        1.15164546146710       -1.03900711600605
C            1.23349377158562        1.46472802262637        0.12525264381716
C            1.43451668127519        2.59318764363318       -0.67113695563625
C            2.58498983526736        3.34087704141461       -0.56019369895238
C            3.56970547613580        2.99290770361145        0.36575918051264
O            4.67132483422984        3.79730033209353        0.39378293056014
C            5.69668698465579        3.49852298236719        1.30764959846623
C            3.36841895148410        1.88431019488184        1.18066270178499
C            2.21323874204397        1.13475243689635        1.05590287580234
C            1.23458750088098       -1.46055163992109       -0.12010207829436
C            2.21356493580945       -1.13193286057653       -1.05200828579872
C            3.36897365211987       -1.88128462953765       -1.17604228717731
C            3.57139697289441       -2.98794947956700       -0.35879257187939
O            4.67332609432114       -3.79196524223239       -0.38589097703731
C            5.69672124004757       -3.49638844269180       -1.30299448950961
C            2.58762405699873       -3.33426689622074        0.56878197293722
C            1.43670707087976       -2.58709713057202        0.67867532841366
C           -1.43758034557769       -2.58363728050579       -0.70671602288690
C           -2.58404105410074       -3.33838583716222       -0.60261211158910
H           -5.32103202447015       -3.61159160662658        2.31133931397901
H           -6.44472146999180       -4.30616051206022        1.11737830185085
H           -6.12241004615445       -2.55459867465277        1.11449527726013
H           -4.10119482878868       -1.63297058349359        1.90307703114713
H           -2.07486867048284       -0.30611158355556        1.69730443196615
H           -0.68751977631415        2.85586687426992        1.43410478858700
H           -2.74894386048828        4.20233080337760        1.22973965953661
H           -6.44594815138194        4.30486027542855       -1.12531746023618
H           -6.12297359663976        2.55342158781893       -1.11719969345116
H           -5.32191591557899        3.60717895996372       -2.31711131470267
H           -4.10067057824596        1.63118769818081       -1.90397959040829
H           -2.07414775477445        0.30555510470261       -1.69407130861618
H            0.68087284836947        2.87317142244473       -1.39293052216980
H            2.74946161507014        4.20752063711753       -1.18113852124344
H            6.12533678549161        2.50782663608486        1.12296280911507
H            6.46274641277267        4.25637954065881        1.15019560922946
H            5.34299580184270        3.55292984304719        2.34260046666629
H            4.10019191999448        1.59525523779748        1.91882354243245
H            2.06610911201080        0.28254290491619        1.70253687642018
H            2.06558698775421       -0.28099410876493       -1.70014322101705
H            4.10004933241446       -1.59357989243674       -1.91542279838704
H            6.12601136183147       -2.50518348748292       -1.12258775961657
H            6.46297772537159       -4.25388069903131       -1.14473251633603
H            5.34066439984960       -3.55416455789377       -2.33695470524930
H            2.75314348930925       -4.19927509038030        1.19172774131708
H            0.68364945111522       -2.86582660880896        1.40157228523789
H           -0.68438641659362       -2.85047180191836       -1.43394485632605
H           -2.74598267740401       -4.19758034208014       -1.23448154846286

          :  Hamiltonian                  GFN2-xTB          :
         :: gradient norm              0.000035336976 Eh/a0 ::
         :: HOMO-LUMO gap              2.519986597475 eV    ::
         :: SCC energy               -96.255968514884 Eh    ::
         :: -> dispersion             -0.076523810745 Eh    ::
         :: repulsion energy           1.497247167092 Eh    ::

    * Orbital Energies and Occupations

         #    Occupation            Energy/Eh            Energy/eV
      -------------------------------------------------------------
         1        2.0000           -0.7121121             -19.3776
       ...           ...                  ...                  ...
        74        2.0000           -0.4163128             -11.3284
        75        2.0000           -0.4150780             -11.2948
        76        2.0000           -0.4119642             -11.2101
        77        2.0000           -0.4095685             -11.1449
        78        2.0000           -0.4025112             -10.9529
        79        2.0000           -0.4008397             -10.9074
        80        2.0000           -0.4004454             -10.8967
        81        2.0000           -0.3999079             -10.8820
        82        2.0000           -0.3968669             -10.7993
        83        2.0000           -0.3801365             -10.3440
        84        2.0000           -0.3733914             -10.1605
        85        2.0000           -0.3732013             -10.1553
        86        2.0000           -0.3451881              -9.3930 (HOMO)
        87                         -0.2525803              -6.8731 (LUMO)
        88                         -0.2214855              -6.0269
        89                         -0.2178235              -5.9273
        90                         -0.2175444              -5.9197
        91                         -0.2129269              -5.7940
        92                         -0.2121908              -5.7740
        93                         -0.2086982              -5.6790
        94                         -0.1940171              -5.2795
        95                         -0.1513866              -4.1194
        96                         -0.0876270              -2.3845
        97                         -0.0847929              -2.3073
       ...                                ...                  ...
       164                          0.7067811              19.2325
      -------------------------------------------------------------
                  HL-Gap            0.0926078 Eh            2.5200 eV

     #   Z          covCN         q      C6AA      α(0)
     1   6 C        3.644     0.040    20.241     6.467
     2   8 O        1.705    -0.272    18.516     5.810
     3   6 C        2.866     0.141    24.934     8.185
     4   6 C        2.916    -0.067    29.676     8.933
     5   6 C        2.925    -0.035    28.864     8.810
     6   6 C        2.977     0.004    27.923     8.668
     7   6 C        2.967    -0.007    28.191     8.709
     8   6 C        2.967    -0.007    28.191     8.709
     9   6 C        2.977     0.004    27.924     8.668
    10   6 C        2.925    -0.033    28.832     8.806
    11   6 C        2.919    -0.056    29.386     8.889
    12   6 C        2.866     0.141    24.934     8.185
    13   8 O        1.705    -0.272    18.516     5.810
    14   6 C        3.644     0.040    20.241     6.467
    15   6 C        2.916    -0.067    29.676     8.933
    16   6 C        2.925    -0.035    28.864     8.811
    17   6 C        2.977     0.004    27.924     8.668
    18   6 C        2.925    -0.033    28.832     8.806
    19   6 C        2.919    -0.056    29.386     8.890
    20   6 C        2.866     0.141    24.934     8.185
    21   8 O        1.705    -0.272    18.516     5.810
    22   6 C        3.644     0.040    20.240     6.467
    23   6 C        2.916    -0.067    29.676     8.933
    24   6 C        2.925    -0.035    28.864     8.810
    25   6 C        2.977     0.004    27.923     8.668
    26   6 C        2.925    -0.035    28.863     8.810
    27   6 C        2.916    -0.067    29.676     8.933
    28   6 C        2.866     0.141    24.934     8.185
    29   8 O        1.705    -0.272    18.516     5.810
    30   6 C        3.644     0.040    20.240     6.467
    31   6 C        2.919    -0.056    29.386     8.890
    32   6 C        2.925    -0.033    28.832     8.806
    33   6 C        2.925    -0.033    28.832     8.806
    34   6 C        2.919    -0.056    29.386     8.889
    35   1 H        0.924     0.039     2.465     2.455
    36   1 H        0.925     0.060     2.201     2.320
    37   1 H        0.924     0.038     2.476     2.461
    38   1 H        0.926     0.032     2.557     2.500
    39   1 H        0.926     0.033     2.539     2.492
    40   1 H        0.926     0.035     2.518     2.481
    41   1 H        0.926     0.045     2.378     2.411
    42   1 H        0.925     0.060     2.201     2.320
    43   1 H        0.924     0.038     2.476     2.461
    44   1 H        0.924     0.039     2.465     2.455
    45   1 H        0.926     0.032     2.557     2.500
    46   1 H        0.926     0.033     2.538     2.492
    47   1 H        0.926     0.035     2.518     2.481
    48   1 H        0.926     0.045     2.378     2.411
    49   1 H        0.924     0.038     2.477     2.461
    50   1 H        0.925     0.060     2.201     2.320
    51   1 H        0.924     0.039     2.465     2.455
    52   1 H        0.926     0.032     2.557     2.501
    53   1 H        0.926     0.033     2.539     2.492
    54   1 H        0.926     0.033     2.539     2.492
    55   1 H        0.926     0.032     2.557     2.501
    56   1 H        0.924     0.038     2.477     2.461
    57   1 H        0.925     0.060     2.201     2.320
    58   1 H        0.924     0.039     2.465     2.455
    59   1 H        0.926     0.045     2.378     2.411
    60   1 H        0.926     0.035     2.518     2.482
    61   1 H        0.926     0.035     2.518     2.481
    62   1 H        0.926     0.045     2.378     2.411

molecular dipole:
                 x           y           z       tot (Debye)
 q only:        0.001      -0.002      -0.001
   full:        0.001      -0.003      -0.001       0.008

 projected vibrational frequencies (cm⁻¹)
eigval :       -0.00    -0.00    -0.00     0.00     0.00     0.00
eigval :       16.72    21.86    27.67    30.69    32.96    40.53
eigval :       49.78    61.64    63.59    76.64    88.01   102.98
eigval :      103.43   117.18   128.14   150.39   162.61   169.37
eigval :      181.04   183.58   186.79   214.90   230.98   231.80
eigval :      236.17   239.64   246.06   261.23   303.35   311.19
eigval :      329.19   331.17   332.29   380.26   380.59   383.63
eigval :      385.14   394.46   423.72   439.04   448.66   467.36
eigval :      487.25   494.27   496.19   514.67   519.12   546.59
eigval :      564.70   565.22   593.67   599.08   612.00   616.38
eigval :      621.80   639.29   675.42   684.07   684.08   696.13
eigval :      753.90   770.08   791.03   807.66   807.70   808.03
eigval :      808.71   817.33   860.54   861.40   861.52   861.55
eigval :      870.47   904.45   905.06   905.53   907.79   908.38
eigval :      920.97   921.71   921.94   922.24   957.61  1000.42
eigval :     1008.07  1018.49  1038.11  1066.24  1066.26  1066.63
eigval :     1066.77  1123.03  1123.03  1123.04  1123.04  1128.58
eigval :     1129.60  1131.10  1132.08  1158.73  1159.41  1159.57
eigval :     1159.85  1166.43  1191.00  1191.30  1192.31  1197.13
eigval :     1221.48  1238.11  1242.22  1259.62  1268.97  1271.97
eigval :     1272.49  1274.57  1274.93  1307.11  1310.05  1328.60
eigval :     1328.67  1334.26  1334.65  1401.82  1401.84  1401.96
eigval :     1402.18  1410.84  1411.52  1412.59  1412.74  1472.71
eigval :     1472.73  1472.89  1472.90  1477.85  1481.58  1483.31
eigval :     1483.43  1486.83  1488.22  1489.23  1489.57  1565.44
eigval :     1566.37  1566.86  1569.41  1586.94  1600.07  1601.58
eigval :     1605.69  1614.97  2926.67  2926.72  2926.80  2926.84
eigval :     2941.65  2941.67  2941.71  2941.83  3025.20  3025.22
eigval :     3025.25  3025.41  3079.43  3079.47  3080.73  3081.09
eigval :     3085.39  3085.68  3085.91  3086.33  3100.44  3100.55
eigval :     3100.61  3100.74  3103.93  3104.05  3104.09  3104.38

   temp. (K)  partition function   enthalpy   heat capacity  entropy
                                   cal/mol     cal/K/mol   cal/K/mol   J/K/mol
 298.15  VIB  0.192E+15            18449.666    110.889    115.668
         ROT  0.831E+07              888.752      2.981     34.643
         INT  0.160E+22            19338.419    113.870    150.311
         TR   0.931E+28             1481.254      4.968     44.198
         TOT                       20819.6725   118.8381   194.5093   813.8271

       T/K    H(0)-H(T)+PV         H(T)/Eh          T*S/Eh         G(T)/Eh
   ------------------------------------------------------------------------
    298.15    0.331783E-01    0.522943E+00    0.924177E-01    0.430525E+00
   ------------------------------------------------------------------------

         :::::::::::::::::::::::::::::::::::::::::::::::::::::
         ::                  THERMODYNAMIC                  ::
         :::::::::::::::::::::::::::::::::::::::::::::::::::::
         :: total free energy         -94.328196193520 Eh   ::
         ::.................................................::
         :: total energy              -94.758721347791 Eh   ::
         :: zero point energy           0.489764558727 Eh   ::
         :: G(RRHO) w/o ZPVE           -0.059239404455 Eh   ::
         :: G(RRHO) contrib.            0.430525154271 Eh   ::
         :::::::::::::::::::::::::::::::::::::::::::::::::::::

           -------------------------------------------------
          | TOTAL ENERGY              -94.758721347791 Eh   |
          | TOTAL ENTHALPY            -94.235778529103 Eh   |
          | TOTAL FREE ENERGY         -94.328196193520 Eh   |
          | GRADIENT NORM               0.000035340228 Eh/α |
          | HOMO-LUMO GAP               2.519986536506 eV   |
           -------------------------------------------------

 * finished run on 2025/09/10 at 02:38:45.299
