   * xtb version 6.7.1 (edcfbbe) compiled by 'albert@albert-system' on 2024-07-22

   ID    Z sym.   atoms
    1    6 C      1, 3-12, 14-20, 22-28, 30-34
    2    8 O      2, 13, 21, 29
    3    1 H      35-62

          program call               : xtb data2507/gas/TMOE/TMOE.xyz --gfn 2 --ohess vtight --parallel 40 --molden --ceasefiles --namespace data2507/gas/TMOE/TMOE_gas_S0_preOpt
          :  Hamiltonian                  GFN2-xTB          :
 * total energy  :   -94.7417944 Eh     change       -0.1068798E-08 Eh
 * total energy  :   -94.7493464 Eh     change       -0.7551983E-02 Eh
 * total energy  :   -94.7510372 Eh     change       -0.1690837E-02 Eh
 * total energy  :   -94.7514749 Eh     change       -0.4376891E-03 Eh
 * total energy  :   -94.7519075 Eh     change       -0.4326290E-03 Eh
 * total energy  :   -94.7522260 Eh     change       -0.3184927E-03 Eh
 * total energy  :   -94.7525523 Eh     change       -0.3262506E-03 Eh
 * total energy  :   -94.7529592 Eh     change       -0.4069124E-03 Eh
 * total energy  :   -94.7534328 Eh     change       -0.4736748E-03 Eh
 * total energy  :   -94.7539216 Eh     change       -0.4887793E-03 Eh
 * total energy  :   -94.7586106 Eh     change       -0.6271027E-06 Eh
 * total energy  :   -94.7586112 Eh     change       -0.6282194E-06 Eh
 * total energy  :   -94.7586119 Eh     change       -0.6210652E-06 Eh
 * total energy  :   -94.7586124 Eh     change       -0.5941436E-06 Eh
 * total energy  :   -94.7586130 Eh     change       -0.5590478E-06 Eh
 * total energy  :   -94.7586135 Eh     change       -0.5241350E-06 Eh
 * total energy  :   -94.7586140 Eh     change       -0.4988008E-06 Eh
 * total energy  :   -94.7586145 Eh     change       -0.4840228E-06 Eh
 * total energy  :   -94.7586145 Eh     change       -0.4907278E-08 Eh
   *** GEOMETRY OPTIMIZATION CONVERGED AFTER 94 ITERATIONS ***

 final structure:
================
62
 xtb: 6.7.1 (edcfbbe)
C           -5.00654596279626       -4.59794371930855        0.13719410734950
O           -4.67311424009244       -3.48237954966843        0.92471769760573
C           -3.52186977978738       -2.80662691648294        0.64147182327996
C           -2.63315759354147       -3.13367194612195       -0.37571294290079
C           -1.49544812603873       -2.37038187876623       -0.56910574255479
C           -1.22116527190681       -1.26227460718467        0.22526179152374
C            0.00000973489204       -0.47264468108706        0.00001034230132
C           -0.00000174557425        0.88036809865892       -0.00000090935211
C           -1.24168768429567        1.66849966394775        0.03477390350794
C           -1.34303283144185        2.78469015604686        0.86667838575041
C           -2.49835146155348        3.53153906154206        0.90988411113964
C           -3.59013281183626        3.19468126258310        0.10811553346096
O           -4.68764236425638        3.99485357041148        0.23096796858522
C           -5.82752228647883        3.69196901618332       -0.53390312530578
C           -3.48929768272829        2.10096302128282       -0.74463411539626
C           -2.32712882735393        1.35238465064009       -0.77522956711677
C            1.24167308938446        1.66851715455353       -0.03478062920689
C            1.34300398787814        2.78470407830675       -0.86669156374936
C            2.49831216857832        3.53156912697702       -0.90989946419031
C            3.59009688901016        3.19473158181256       -0.10812695401289
O            4.68759563736477        3.99491826377379       -0.23098242099579
C            5.82747677571330        3.69205682534600        0.53389604181487
C            3.48927603916741        2.10101640950999        0.74462833002473
C            2.32711764499595        1.35242204815736        0.77522623518081
C            1.22119233644862       -1.26226233712009       -0.22524011708032
C            2.11228529926144       -0.95202041295062       -1.25396015707419
C            3.24179876400888       -1.71032915662502       -1.45985314380616
C            3.52190220484620       -2.80660378001889       -0.64146193281240
O            4.67314654141769       -3.48235301784694       -0.92471624042581
C            5.00658088092403       -4.59792391378599       -0.13720331915675
C            2.63319749430239       -3.13365215396349        0.37572828845238
C            1.49548550562760       -2.37036733576469        0.56912709128756
C           -2.11226456602934       -0.95203711656224        1.25397749910324
C           -3.24177527390747       -1.71035155577710        1.45986506785535
H           -5.14363680420718       -4.32302736737853       -0.91401544960162
H           -5.94881856292224       -4.97047183847965        0.53630585466065
H           -4.24801178862333       -5.38446010577521        0.21004244518393
H           -2.81254530719112       -3.97791316384813       -1.02325023359697
H           -0.81268073478074       -2.63270156092844       -1.36491426733481
H           -0.50645737428805        3.05442011238076        1.49494386469145
H           -2.58552972797605        4.38776796456203        1.56019808266512
H           -6.57296620075645        4.43741372176615       -0.26072651240040
H           -6.21326577099479        2.69344591745334       -0.30323529964514
H           -5.62341288857041        3.76307627379577       -1.60751078977646
H           -4.30632792300560        1.82238253907958       -1.39166804837659
H           -2.25954778142539        0.51213347011441       -1.45008404750174
H            0.50642510492126        3.05441976648872       -1.49495860507500
H            2.58547925621450        4.38779580447640       -1.56021786223356
H            6.57290959247677        4.43751257060683        0.26071928491092
H            5.62336060227516        3.76316651327497        1.60750223736527
H            6.21323828448191        2.69353891920518        0.30323574288148
H            4.30630949057022        1.82245043130557        1.39166445781310
H            2.25954711136025        0.51217434552504        1.45008610346904
H            1.90575665615939       -0.11315012397533       -1.90121369852385
H            3.93154403560365       -1.47717655259429       -2.25575740761628
H            4.24804353775788       -5.38443726753173       -0.21005164195568
H            5.94884919536028       -4.97045204987414       -0.53632515418992
H            5.14368084512960       -4.32301586274900        0.91400720047739
H            2.81259231339287       -3.97789283058092        1.02326431902833
H            0.81272322563519       -2.63269057796356        1.36493883364902
H           -1.90574319106438       -0.11316565209488        1.90123186268717
H           -3.93152567973447       -1.47720230696422        2.25576585524279

          :  Hamiltonian                  GFN2-xTB          :
         :: gradient norm              0.000055462384 Eh/a0 ::
         :: HOMO-LUMO gap              2.540102222683 eV    ::
         :: SCC energy               -96.255956733893 Eh    ::
         :: -> dispersion             -0.076616993284 Eh    ::
         :: repulsion energy           1.497342214745 Eh    ::

    * Orbital Energies and Occupations

         #    Occupation            Energy/Eh            Energy/eV
      -------------------------------------------------------------
         1        2.0000           -0.7126071             -19.3910
       ...           ...                  ...                  ...
        74        2.0000           -0.4154054             -11.3038
        75        2.0000           -0.4150798             -11.2949
        76        2.0000           -0.4113417             -11.1932
        77        2.0000           -0.4091029             -11.1323
        78        2.0000           -0.4025764             -10.9547
        79        2.0000           -0.4013589             -10.9215
        80        2.0000           -0.3989753             -10.8567
        81        2.0000           -0.3984771             -10.8431
        82        2.0000           -0.3964608             -10.7882
        83        2.0000           -0.3788391             -10.3087
        84        2.0000           -0.3741709             -10.1817
        85        2.0000           -0.3718060             -10.1174
        86        2.0000           -0.3449636              -9.3869 (HOMO)
        87                         -0.2516166              -6.8468 (LUMO)
        88                         -0.2213758              -6.0239
        89                         -0.2178565              -5.9282
        90                         -0.2159849              -5.8772
        91                         -0.2123749              -5.7790
        92                         -0.2120483              -5.7701
        93                         -0.2078191              -5.6550
        94                         -0.1936974              -5.2708
        95                         -0.1511171              -4.1121
        96                         -0.0872186              -2.3733
        97                         -0.0839401              -2.2841
       ...                                ...                  ...
       164                          0.7040387              19.1579
      -------------------------------------------------------------
                  HL-Gap            0.0933470 Eh            2.5401 eV

     #   Z          covCN         q      C6AA      α(0)
     1   6 C        3.644     0.040    20.238     6.466
     2   8 O        1.705    -0.273    18.526     5.811
     3   6 C        2.866     0.140    24.941     8.186
     4   6 C        2.916    -0.068    29.696     8.936
     5   6 C        2.927    -0.036    28.886     8.814
     6   6 C        2.977     0.005    27.918     8.667
     7   6 C        2.967    -0.008    28.206     8.711
     8   6 C        2.966    -0.006    28.169     8.706
     9   6 C        2.977     0.004    27.930     8.669
    10   6 C        2.925    -0.033    28.828     8.805
    11   6 C        2.919    -0.056    29.381     8.889
    12   6 C        2.866     0.141    24.920     8.183
    13   8 O        1.705    -0.272    18.502     5.808
    14   6 C        3.644     0.039    20.247     6.468
    15   6 C        2.916    -0.067    29.667     8.932
    16   6 C        2.925    -0.034    28.857     8.809
    17   6 C        2.977     0.004    27.930     8.669
    18   6 C        2.925    -0.033    28.828     8.805
    19   6 C        2.919    -0.056    29.381     8.889
    20   6 C        2.866     0.141    24.920     8.183
    21   8 O        1.705    -0.272    18.502     5.808
    22   6 C        3.644     0.039    20.247     6.468
    23   6 C        2.916    -0.067    29.667     8.932
    24   6 C        2.925    -0.034    28.857     8.809
    25   6 C        2.977     0.005    27.918     8.667
    26   6 C        2.924    -0.033    28.821     8.804
    27   6 C        2.919    -0.055    29.375     8.888
    28   6 C        2.866     0.140    24.941     8.186
    29   8 O        1.705    -0.273    18.526     5.811
    30   6 C        3.644     0.040    20.238     6.466
    31   6 C        2.916    -0.068    29.696     8.936
    32   6 C        2.927    -0.036    28.886     8.814
    33   6 C        2.924    -0.033    28.821     8.804
    34   6 C        2.919    -0.055    29.375     8.888
    35   1 H        0.924     0.038     2.473     2.459
    36   1 H        0.925     0.060     2.204     2.322
    37   1 H        0.924     0.038     2.471     2.458
    38   1 H        0.926     0.031     2.566     2.505
    39   1 H        0.926     0.032     2.565     2.504
    40   1 H        0.926     0.035     2.515     2.480
    41   1 H        0.926     0.046     2.373     2.409
    42   1 H        0.925     0.060     2.200     2.320
    43   1 H        0.924     0.039     2.458     2.452
    44   1 H        0.924     0.038     2.471     2.458
    45   1 H        0.926     0.032     2.555     2.500
    46   1 H        0.926     0.032     2.552     2.498
    47   1 H        0.926     0.035     2.515     2.480
    48   1 H        0.926     0.046     2.373     2.409
    49   1 H        0.925     0.060     2.200     2.320
    50   1 H        0.924     0.038     2.471     2.458
    51   1 H        0.924     0.039     2.458     2.452
    52   1 H        0.926     0.032     2.555     2.500
    53   1 H        0.926     0.032     2.552     2.498
    54   1 H        0.926     0.037     2.495     2.470
    55   1 H        0.926     0.045     2.379     2.412
    56   1 H        0.924     0.038     2.471     2.458
    57   1 H        0.925     0.060     2.204     2.322
    58   1 H        0.924     0.038     2.473     2.459
    59   1 H        0.926     0.031     2.566     2.505
    60   1 H        0.926     0.032     2.565     2.504
    61   1 H        0.926     0.037     2.495     2.470
    62   1 H        0.926     0.045     2.379     2.412

molecular dipole:
                 x           y           z       tot (Debye)
 q only:       -0.000      -0.812       0.000
   full:       -0.000      -1.205       0.000       3.062

 projected vibrational frequencies (cm⁻¹)
eigval :       -0.00    -0.00    -0.00     0.00     0.00     0.00
eigval :       16.41    21.22    27.59    31.94    32.63    44.48
eigval :       48.86    57.23    67.20    80.69    93.90    93.92
eigval :       97.21   116.89   132.35   147.40   166.73   167.79
eigval :      178.61   183.54   196.19   215.05   223.40   234.68
eigval :      236.25   238.89   246.44   265.57   290.22   317.41
eigval :      321.57   337.83   340.68   380.69   381.24   384.63
eigval :      384.71   392.99   416.52   447.93   451.38   467.97
eigval :      475.11   493.05   497.15   517.31   520.13   552.28
eigval :      561.24   566.13   594.17   600.10   606.62   618.15
eigval :      620.24   642.19   675.06   683.34   684.06   696.73
eigval :      757.35   768.22   790.12   807.27   807.40   808.27
eigval :      808.69   817.60   860.48   861.10   861.98   862.23
eigval :      870.69   903.47   903.60   905.53   906.49   907.31
eigval :      921.08   921.84   923.55   923.64   957.45  1000.42
eigval :     1008.60  1018.10  1036.78  1065.97  1066.24  1066.35
eigval :     1066.69  1122.99  1123.00  1123.25  1123.25  1129.82
eigval :     1129.94  1130.51  1132.10  1159.20  1159.34  1159.37
eigval :     1159.79  1165.67  1190.35  1191.91  1192.12  1196.92
eigval :     1221.48  1237.27  1242.48  1258.85  1269.53  1272.05
eigval :     1273.46  1274.70  1274.89  1305.41  1310.33  1328.51
eigval :     1330.16  1333.10  1334.11  1401.79  1401.88  1402.27
eigval :     1402.57  1410.69  1411.31  1412.55  1412.64  1472.75
eigval :     1472.76  1473.09  1473.11  1478.79  1481.84  1483.30
eigval :     1483.49  1486.75  1488.09  1489.26  1489.40  1565.76
eigval :     1566.90  1567.27  1569.02  1589.33  1600.43  1601.80
eigval :     1605.84  1615.35  2926.21  2926.25  2927.27  2927.27
eigval :     2941.26  2941.36  2942.05  2942.12  3025.19  3025.19
eigval :     3025.22  3025.37  3074.64  3076.01  3079.62  3081.06
eigval :     3085.70  3085.70  3090.19  3090.24  3097.73  3098.03
eigval :     3101.01  3101.11  3104.31  3104.57  3105.47  3105.54

   temp. (K)  partition function   enthalpy   heat capacity  entropy
                                   cal/mol     cal/K/mol   cal/K/mol   J/K/mol
 298.15  VIB  0.186E+15            18444.636    110.942    115.695
         ROT  0.168E+08              888.752      2.981     36.045
         INT  0.313E+22            19333.388    113.923    151.740
         TR   0.931E+28             1481.254      4.968     44.198
         TOT                       20814.6424   118.8909   195.9386   819.8069

       T/K    H(0)-H(T)+PV         H(T)/Eh          T*S/Eh         G(T)/Eh
   ------------------------------------------------------------------------
    298.15    0.331702E-01    0.522949E+00    0.930967E-01    0.429852E+00
   ------------------------------------------------------------------------

         :::::::::::::::::::::::::::::::::::::::::::::::::::::
         ::                  THERMODYNAMIC                  ::
         :::::::::::::::::::::::::::::::::::::::::::::::::::::
         :: total free energy         -94.328762385458 Eh   ::
         ::.................................................::
         :: total energy              -94.758614519150 Eh   ::
         :: zero point energy           0.489778622739 Eh   ::
         :: G(RRHO) w/o ZPVE           -0.059926489047 Eh   ::
         :: G(RRHO) contrib.            0.429852133692 Eh   ::
         :::::::::::::::::::::::::::::::::::::::::::::::::::::

           -------------------------------------------------
          | TOTAL ENERGY              -94.758614519150 Eh   |
          | TOTAL ENTHALPY            -94.235665652369 Eh   |
          | TOTAL FREE ENERGY         -94.328762385458 Eh   |
          | GRADIENT NORM               0.000055465137 Eh/α |
          | HOMO-LUMO GAP               2.540102202365 eV   |
           -------------------------------------------------

 * finished run on 2025/09/10 at 02:36:22.398
