   * xtb version 6.7.1 (edcfbbe) compiled by 'albert@albert-system' on 2024-07-22

   ID    Z sym.   atoms
    1    6 C      1, 3-12, 14-20, 22-28, 30-34
    2    8 O      2, 13, 21, 29
    3    1 H      35-62

          program call               : xtb data2507/gas/TMOE/TMOE_gas_S0_finalOpt.xtbopt.xyz --gfn 2 --spinpol --tblite --uhf 2 --ohess vtight --parallel 40 --molden --ceasefiles --namespace data2507/gas/TMOE/TMOE_gas_T1_preOpt
 * total energy  :   -94.6694201 Eh     change       -0.2244290E-07 Eh
 * total energy  :   -94.6806860 Eh     change       -0.1126595E-01 Eh
 * total energy  :   -94.6844999 Eh     change       -0.3813854E-02 Eh
 * total energy  :   -94.6858521 Eh     change       -0.1352193E-02 Eh
 * total energy  :   -94.6870635 Eh     change       -0.1211479E-02 Eh
 * total energy  :   -94.6881166 Eh     change       -0.1053111E-02 Eh
 * total energy  :   -94.6890233 Eh     change       -0.9066553E-03 Eh
 * total energy  :   -94.6897153 Eh     change       -0.6920135E-03 Eh
 * total energy  :   -94.6902690 Eh     change       -0.5537025E-03 Eh
 * total energy  :   -94.6907534 Eh     change       -0.4843908E-03 Eh
 * total energy  :   -94.6986655 Eh     change       -0.7554895E-06 Eh
 * total energy  :   -94.6986663 Eh     change       -0.7492237E-06 Eh
 * total energy  :   -94.6986670 Eh     change       -0.7051195E-06 Eh
 * total energy  :   -94.6986678 Eh     change       -0.7848569E-06 Eh
 * total energy  :   -94.6986685 Eh     change       -0.7081313E-06 Eh
 * total energy  :   -94.6986692 Eh     change       -0.7463468E-06 Eh
 * total energy  :   -94.6986700 Eh     change       -0.7289104E-06 Eh
 * total energy  :   -94.6986699 Eh     change        0.7861924E-07 Eh
 * total energy  :   -94.6986700 Eh     change       -0.9539440E-07 Eh
   *** GEOMETRY OPTIMIZATION CONVERGED AFTER 501 ITERATIONS ***

 final structure:
================
62
 xtb: 6.7.1 (edcfbbe)
C           -5.35332640143747       -2.75834816110829        3.00443320245157
O           -4.51064670859820       -3.36062644892916        2.05435032446685
C           -3.42361641481202       -2.66547317031135        1.61389354662030
C           -3.06072957517766       -1.38739438543110        2.03456436841558
C           -1.94259624352253       -0.77771714839629        1.51126188966381
C           -1.12268759040972       -1.41489156493506        0.56112862646486
C            0.00084834442372       -0.73745097179609       -0.00315040905903
C            0.00060626321999        0.73984730946824        0.00497540995047
C           -1.12273598774314        1.41692319053783       -0.56012762974075
C           -1.51709431484112        2.70538393618031       -0.14003116126218
C           -2.63696749332167        3.30886286523030       -0.65137774559905
C           -3.42329066002630        2.66676130976586       -1.61459076156233
O           -4.51021848427557        3.36156440267141       -2.05585226777915
C           -5.35199310625177        2.75901972355474       -3.00656836044037
C           -3.05967914754333        1.38880091346371       -2.03499529290710
C           -1.94173589283188        0.77948461123888       -1.51086689550015
C            1.12389866645904        1.41091325816664        0.57733688349569
C            1.51812656069415        2.70386065617323        0.17115179628029
C            2.63816374171122        3.30174787012001        0.68868189589974
C            3.42478069575782        2.64921970389454        1.64461803457134
O            4.51194745395151        3.33911094837333        2.09294172626724
C            5.35420753778751        2.72611037852469        3.03651694472487
C            3.06120082150368        1.36683149404527        2.05134452745174
C            1.94308496249192        0.76326014773374        1.52097913684318
C            1.12477345256384       -1.40815209666000       -0.57469809932474
C            1.94442790858856       -0.76023473944543       -1.51775186043495
C            3.06311969829131       -1.36344491266089       -2.04731313824627
C            3.42682258797488       -2.64571459109211       -1.64032313377307
O            4.51453298046163       -3.33525536677970       -2.08786673982904
C            5.35726475307387       -2.72198811278234       -3.03084732913712
C            2.63973218668925       -3.29849483529344       -0.68494903702923
C            1.51912950459711       -2.70096970435477       -0.16822523146674
C           -1.51631671970134       -2.70348200793667        0.14074537026915
C           -2.63637178102296       -3.30732279334957        0.65126541386187
H           -4.82143364251514       -2.54583000405559        3.93773263880442
H           -6.14421917843837       -3.48139563859882        3.19871699564025
H           -5.79585516184550       -1.83297123980244        2.62097538690977
H           -3.64704977637724       -0.85911089070607        2.77054262863346
H           -1.67175288269039        0.20892348294849        1.85656200015097
H           -0.95655068825587        3.20241264940319        0.63709385055162
H           -2.94397777799167        4.28696753294843       -0.31443031086467
H           -6.14297275767069        3.48181371291283       -3.20144075144223
H           -5.79451114357733        1.83349860738213       -2.62344633434942
H           -4.81933344909484        2.54667727280258       -3.93947034606190
H           -3.64528357462072        0.86032916499728       -2.77140813256921
H           -1.67031758570427       -0.20706754239071       -1.85596838517567
H            0.95738414516319        3.20929084477877       -0.60039142573887
H            2.94509983679977        4.28343332685523        0.36224854056371
H            5.79630825997947        1.80473200898190        2.64306579171237
H            6.14544506947035        3.44659900442824        3.23873990523969
H            4.82210055483348        2.50372525457536        3.96739184061393
H            3.64697419477672        0.83042334915660        2.78186091116713
H            1.67171614834435       -0.22694269744251        1.85550811041406
H            1.67297849259647        0.22987952765861       -1.85247765045471
H            3.64924354018617       -0.82684843673357       -2.77740996002024
H            5.79878981439165       -1.80046563386454       -2.63708739000253
H            6.14887734155688       -3.44222296401272       -3.23250561326274
H            4.82574637797236       -2.49977864908505       -3.96210038671387
H            2.94675253045601       -4.28007961952672       -0.35829228535600
H            0.95799703099447       -3.20657953554015        0.60291664712087
H           -0.95503746762970       -3.20033116758887       -0.63596334042054
H           -2.94281527115773       -4.28552804810558        0.31409406083191

 projected vibrational frequencies (cm⁻¹)
eigval :       -0.00    -0.00    -0.00    -0.00    -0.00    -0.00
eigval :        8.65    19.68    27.43    30.59    30.61    43.36
eigval :       50.62    73.60    79.41    79.93    84.41    91.08
eigval :       92.96   118.26   133.11   163.72   166.31   171.15
eigval :      193.36   193.41   209.60   213.69   214.17   225.63
eigval :      230.03   230.35   254.89   272.75   301.47   307.29
eigval :      320.05   325.99   329.10   355.96   376.62   377.15
eigval :      394.20   394.35   415.65   432.10   446.30   453.84
eigval :      466.18   479.04   494.84   501.65   505.31   514.20
eigval :      562.98   566.41   593.36   594.40   605.80   607.17
eigval :      616.42   626.81   666.88   668.91   673.94   675.24
eigval :      754.53   773.97   778.48   801.20   801.79   804.40
eigval :      807.59   811.73   845.66   846.51   860.47   861.98
eigval :      863.52   895.87   897.30   898.75   899.49   912.23
eigval :      912.41   917.69   941.53   942.87   943.02   992.21
eigval :      998.94  1006.00  1013.64  1065.07  1065.18  1065.48
eigval :     1065.57  1103.81  1121.62  1121.62  1121.62  1121.63
eigval :     1128.39  1129.43  1137.16  1140.97  1157.49  1157.86
eigval :     1161.84  1161.92  1184.39  1184.56  1189.55  1198.20
eigval :     1224.83  1238.62  1240.05  1256.76  1266.54  1269.60
eigval :     1273.89  1275.30  1280.77  1316.24  1324.58  1325.34
eigval :     1333.28  1333.81  1335.74  1341.49  1400.85  1400.87
eigval :     1401.52  1402.12  1412.78  1412.94  1421.05  1426.83
eigval :     1447.58  1451.68  1465.47  1471.31  1471.32  1471.37
eigval :     1471.40  1472.27  1484.37  1484.48  1484.68  1484.79
eigval :     1524.87  1525.75  1529.34  1530.32  1574.94  1576.64
eigval :     1585.14  1591.64  2927.35  2927.39  2927.49  2927.50
eigval :     2942.06  2942.09  2942.17  2942.38  3024.45  3024.46
eigval :     3024.49  3024.65  3083.29  3083.43  3083.45  3084.27
eigval :     3085.62  3086.00  3088.72  3088.81  3096.82  3097.63
eigval :     3097.73  3098.13  3100.04  3100.32  3101.38  3101.68

   temp. (K)  partition function   enthalpy   heat capacity  entropy
                                   cal/mol     cal/K/mol   cal/K/mol   J/K/mol
 298.15  VIB  0.331E+15            18553.475    112.015    116.609
         ROT  0.841E+07              888.752      2.981     34.668
         INT  0.278E+22            19442.227    114.996    151.277
         TR   0.931E+28             1481.254      4.968     44.198
         TOT                       20923.4809   119.9641   195.4747   817.8660

       T/K    H(0)-H(T)+PV         H(T)/Eh          T*S/Eh         G(T)/Eh
   ------------------------------------------------------------------------
    298.15    0.333437E-01    0.520845E+00    0.928763E-01    0.427969E+00
   ------------------------------------------------------------------------

         :::::::::::::::::::::::::::::::::::::::::::::::::::::
         ::                  THERMODYNAMIC                  ::
         :::::::::::::::::::::::::::::::::::::::::::::::::::::
         :: total free energy         -94.270701013321 Eh   ::
         ::.................................................::
         :: total energy              -94.698669972235 Eh   ::
         :: zero point energy           0.487501588269 Eh   ::
         :: G(RRHO) w/o ZPVE           -0.059532629355 Eh   ::
         :: G(RRHO) contrib.            0.427968958915 Eh   ::
         :::::::::::::::::::::::::::::::::::::::::::::::::::::

           -------------------------------------------------
          | TOTAL ENERGY              -94.698669972235 Eh   |
          | TOTAL ENTHALPY            -94.177824694703 Eh   |
          | TOTAL FREE ENERGY         -94.270701013321 Eh   |
          | GRADIENT NORM               0.000085806763 Eh/α |
           -------------------------------------------------

 * finished run on 2025/09/10 at 02:39:10.003
