   * xtb version 6.7.1 (edcfbbe) compiled by 'albert@albert-system' on 2024-07-22

   ID    Z sym.   atoms
    1    6 C      1, 3-12, 14-20, 22-28, 30-34
    2    8 O      2, 13, 21, 29
    3    1 H      35-62

          program call               : xtb data2507/gas/TMOE/TMOE_gas_T1_crest.xyz --gfn 2 --spinpol --tblite --uhf 2 --ohess vtight --parallel 40 --molden --ceasefiles --namespace data2507/gas/TMOE/TMOE_gas_T1_finalOpt
 * total energy  :   -94.6987489 Eh     change        0.3066832E-07 Eh
 * total energy  :   -94.6987817 Eh     change       -0.3280249E-04 Eh
 * total energy  :   -94.6987900 Eh     change       -0.8348768E-05 Eh
 * total energy  :   -94.6987921 Eh     change       -0.2113927E-05 Eh
 * total energy  :   -94.6987949 Eh     change       -0.2766152E-05 Eh
 * total energy  :   -94.6987966 Eh     change       -0.1649308E-05 Eh
 * total energy  :   -94.6987975 Eh     change       -0.9532134E-06 Eh
 * total energy  :   -94.6987982 Eh     change       -0.6349418E-06 Eh
 * total energy  :   -94.6987987 Eh     change       -0.5004144E-06 Eh
 * total energy  :   -94.6987991 Eh     change       -0.4218506E-06 Eh
 * total energy  :   -94.6988006 Eh     change       -0.4253962E-06 Eh
 * total energy  :   -94.6988009 Eh     change       -0.3304026E-06 Eh
 * total energy  :   -94.6988012 Eh     change       -0.2786670E-06 Eh
 * total energy  :   -94.6988014 Eh     change       -0.2018902E-06 Eh
 * total energy  :   -94.6988016 Eh     change       -0.1685024E-06 Eh
 * total energy  :   -94.6988018 Eh     change       -0.1824313E-06 Eh
 * total energy  :   -94.6988019 Eh     change       -0.1723255E-06 Eh
 * total energy  :   -94.6988022 Eh     change       -0.2401551E-06 Eh
 * total energy  :   -94.6988022 Eh     change       -0.9733370E-08 Eh
   *** GEOMETRY OPTIMIZATION CONVERGED AFTER 22 ITERATIONS ***

 final structure:
================
62
 xtb: 6.7.1 (edcfbbe)
C           -5.20414536382225       -2.69953031697954        3.29787718615683
O           -4.40969339621750       -3.31933283339770        2.31794768390976
C           -3.34930325651122       -2.63080494936835        1.80771890469290
C           -2.97412323067104       -1.34067153049669        2.17783991089649
C           -1.88312498181137       -0.74158999622488        1.58915526154128
C           -1.10225537264404       -1.40205447101045        0.62233237224177
C           -0.00033653672453       -0.73704104971069        0.00406070651099
C            0.00139545177316        0.74169437207102       -0.00483571531468
C           -1.09703110755121        1.40898791379702       -0.62692934817752
C           -1.50616828498874        2.70710289706670       -0.25451556737251
C           -2.59755210462590        3.30223440623314       -0.83339489962835
C           -3.33878504068434        2.64104110649708       -1.81895755941388
O           -4.39704811957718        3.33085153430049       -2.33186895405173
C           -5.19132427986238        2.71098762020048       -3.31190925339079
C           -2.96400506663333        1.35061766351363       -2.18846575856145
C           -1.87558789864440        0.74998570952927       -1.59661227240988
C            1.10123386232577        1.41369710747308        0.60961008545228
C            1.51319984036431        2.70661859634562        0.22252216476187
C            2.60545391832529        3.30618503513639        0.79516502336309
C            3.34484355736690        2.65485212365767        1.78865065498268
O            4.40399386142223        3.34848241226258        2.29453042796528
C            5.19648617873689        2.73814559225668        3.28197022270285
C            2.96746975557144        1.36937714144872        2.17249113285320
C            1.87815307630415        0.76419192274722        1.58699185316268
C            1.10021524109438       -1.41188544156892       -0.60609117143959
C            1.88158734705951       -0.76528840843586       -1.58179011892892
C            2.97109556184512       -1.37385569378733       -2.16348003902252
C            3.34426061561506       -2.65976603637264       -1.77700433839924
O            4.40293036038948       -3.35677774035953       -2.27923275049317
C            5.19786207554246       -2.75094969638680       -3.26747797704236
C            2.60074284215388       -3.30795517213157       -0.78455107669568
C            1.50818537600361       -2.70513889768311       -0.21594548929587
C           -1.51214896456623       -2.69961976269046        0.24877866316086
C           -2.60610857648468       -3.29314064527690        0.82439453390395
H           -4.62381795032811       -2.46098566862049        4.19536182552205
H           -5.97762484428931       -3.42273134485770        3.55232442524633
H           -5.67416922180454       -1.78667302064222        2.91717136574431
H           -3.52961679810503       -0.79497245608373        2.92494150591969
H           -1.60159075320182        0.25539354593002        1.89429220612928
H           -0.98201447953882        3.22025014965403        0.53727863302099
H           -2.91580932712495        4.28913077731189       -0.53469804474783
H           -5.96393965565110        3.43469179429001       -3.56754844955815
H           -5.66246180515222        1.79889666312993       -2.93073372962359
H           -4.61060516262635        2.47111779310982       -4.20878465191119
H           -3.51781891965019        0.80589296958200       -2.93752303145981
H           -1.59433609761943       -0.24722749795275       -1.90126854820717
H            0.99048916184310        3.21170713604271       -0.57538577941849
H            2.92578993840312        4.28898802873761        0.48540151047442
H            5.66624772025032        1.82103596827967        2.91127909409359
H            5.97021650249775        3.46326457911751        3.53011049013727
H            4.61471836093602        2.50928307040252        4.18104077678812
H            3.51989456995356        0.83208158946020        2.92790924965033
H            1.59482777070485       -0.22893669698117        1.90284873775201
H            1.60157894480283        0.22818696379933       -1.89953184780503
H            3.52699126277283       -0.83883912657546       -2.91797093552271
H            5.66991810186634       -1.83427355187699       -2.89864205099582
H            5.96975468020026       -3.47880591911279       -3.51332418504239
H            4.61735373926054       -2.52262217944847       -4.16749959437464
H            2.91802479152868       -4.29100595492893       -0.47244388597633
H            0.98194894905673       -3.20791355767786        0.58111306849822
H           -0.98617561136704       -3.21364469507002       -0.54124219923320
H           -2.92480421809128       -4.27965803267430        0.52491787527886

 projected vibrational frequencies (cm⁻¹)
eigval :       -0.00    -0.00    -0.00    -0.00     0.00     0.00
eigval :        8.36    19.62    27.03    30.69    30.80    43.37
eigval :       47.95    73.61    77.66    79.50    84.51    86.81
eigval :       91.22   118.32   131.47   162.95   166.39   170.54
eigval :      193.53   193.60   208.82   214.39   214.65   225.93
eigval :      229.68   229.82   257.31   273.20   301.25   306.86
eigval :      319.08   326.29   327.68   355.90   376.45   376.60
eigval :      393.96   394.11   414.88   432.28   446.54   453.43
eigval :      466.01   479.32   494.61   501.94   505.31   514.62
eigval :      562.90   568.49   593.71   594.26   606.39   606.77
eigval :      616.79   626.69   666.81   669.08   673.69   675.71
eigval :      753.89   774.18   777.54   801.40   801.56   804.35
eigval :      807.37   811.87   845.44   846.54   860.53   862.30
eigval :      863.62   895.71   897.03   898.35   899.55   912.00
eigval :      912.27   919.12   939.66   943.58   943.80   991.28
eigval :      998.64  1005.97  1012.92  1065.03  1065.12  1065.39
eigval :     1065.56  1104.74  1121.78  1121.78  1121.79  1121.79
eigval :     1128.04  1129.09  1137.17  1141.25  1157.59  1157.99
eigval :     1161.94  1162.02  1184.63  1184.87  1189.60  1197.95
eigval :     1225.23  1238.41  1240.36  1257.43  1266.27  1269.63
eigval :     1273.66  1275.27  1280.67  1317.09  1324.59  1324.79
eigval :     1330.25  1333.86  1335.34  1343.22  1401.17  1401.18
eigval :     1401.88  1402.30  1412.64  1412.83  1420.73  1426.49
eigval :     1448.43  1452.36  1466.15  1471.57  1471.58  1471.59
eigval :     1471.63  1471.99  1484.52  1484.64  1484.82  1484.92
eigval :     1526.07  1526.98  1530.57  1531.45  1575.66  1577.26
eigval :     1585.75  1591.00  2927.42  2927.46  2927.56  2927.57
eigval :     2942.32  2942.33  2942.42  2942.60  3024.84  3024.85
eigval :     3024.87  3025.02  3082.60  3082.70  3082.90  3083.61
eigval :     3086.74  3087.00  3089.88  3089.97  3096.96  3097.64
eigval :     3097.84  3098.07  3100.72  3100.95  3102.02  3102.23

   temp. (K)  partition function   enthalpy   heat capacity  entropy
                                   cal/mol     cal/K/mol   cal/K/mol   J/K/mol
 298.15  VIB  0.394E+15            18570.227    111.933    116.838
         ROT  0.851E+07              888.752      2.981     34.691
         INT  0.335E+22            19458.980    114.914    151.529
         TR   0.931E+28             1481.254      4.968     44.198
         TOT                       20940.2337   119.8825   195.7266   818.9201

       T/K    H(0)-H(T)+PV         H(T)/Eh          T*S/Eh         G(T)/Eh
   ------------------------------------------------------------------------
    298.15    0.333704E-01    0.520878E+00    0.929960E-01    0.427882E+00
   ------------------------------------------------------------------------

         :::::::::::::::::::::::::::::::::::::::::::::::::::::
         ::                  THERMODYNAMIC                  ::
         :::::::::::::::::::::::::::::::::::::::::::::::::::::
         :: total free energy         -94.270920219414 Eh   ::
         ::.................................................::
         :: total energy              -94.698802185640 Eh   ::
         :: zero point energy           0.487507598549 Eh   ::
         :: G(RRHO) w/o ZPVE           -0.059625632324 Eh   ::
         :: G(RRHO) contrib.            0.427881966226 Eh   ::
         :::::::::::::::::::::::::::::::::::::::::::::::::::::

           -------------------------------------------------
          | TOTAL ENERGY              -94.698802185640 Eh   |
          | TOTAL ENTHALPY            -94.177924200526 Eh   |
          | TOTAL FREE ENERGY         -94.270920219414 Eh   |
          | GRADIENT NORM               0.000047436052 Eh/α |
           -------------------------------------------------

 * finished run on 2025/09/10 at 02:42:49.403
