   * xtb version 6.7.1 (edcfbbe) compiled by 'albert@albert-system' on 2024-07-22

   ID    Z sym.   atoms
    1    6 C      1-8, 10-16, 18-24, 26-38
    2    7 N      9, 17, 25
    3    1 H      39-61

          program call               : xtb data2507/toluene/CzBPDCb/CzBPDCb_toluene_S0_crest.xyz --gfn 2 --gbsa toluene --ohess vtight --parallel 40 --molden --ceasefiles --namespace data2507/toluene/CzBPDCb/CzBPDCb_toluene_S0_finalOpt
      * Solvation model:               GBSA
        Solvent                        toluene
        Solvent mass                       9.2140E+01 g/mol
          :  Hamiltonian                  GFN2-xTB          :
 * total energy  :   -95.5490609 Eh     change       -0.9721219E-09 Eh
 * total energy  :   -95.5491124 Eh     change       -0.5154179E-04 Eh
 * total energy  :   -95.5491528 Eh     change       -0.4042763E-04 Eh
 * total energy  :   -95.5491834 Eh     change       -0.3053716E-04 Eh
 * total energy  :   -95.5492048 Eh     change       -0.2141126E-04 Eh
 * total energy  :   -95.5492437 Eh     change       -0.3894815E-04 Eh
 * total energy  :   -95.5492757 Eh     change       -0.3198232E-04 Eh
 * total energy  :   -95.5493085 Eh     change       -0.3282745E-04 Eh
 * total energy  :   -95.5493460 Eh     change       -0.3744167E-04 Eh
 * total energy  :   -95.5493879 Eh     change       -0.4195246E-04 Eh
 * total energy  :   -95.5501246 Eh     change       -0.3439467E-06 Eh
 * total energy  :   -95.5501250 Eh     change       -0.3431320E-06 Eh
 * total energy  :   -95.5501252 Eh     change       -0.2190413E-06 Eh
 * total energy  :   -95.5501253 Eh     change       -0.1348085E-06 Eh
 * total energy  :   -95.5501255 Eh     change       -0.1367943E-06 Eh
 * total energy  :   -95.5501257 Eh     change       -0.1778538E-06 Eh
 * total energy  :   -95.5501259 Eh     change       -0.1972411E-06 Eh
 * total energy  :   -95.5501260 Eh     change       -0.1336967E-06 Eh
 * total energy  :   -95.5501261 Eh     change       -0.8949823E-07 Eh
   *** GEOMETRY OPTIMIZATION CONVERGED AFTER 60 ITERATIONS ***

 final structure:
================
61
 xtb: 6.7.1 (edcfbbe)
C            2.52539849637510       -3.58412298379135        1.44772754952709
C            1.23596884753100       -3.62585535308465        0.94784463913707
C            0.70973500372722       -2.52727883543557        0.27257525780307
C           -0.66562001171250       -2.53824050632912       -0.25148180046832
C           -1.17901797617374       -3.64941203562594       -0.91617234091363
C           -2.46787869462317       -3.62844677524155       -1.41832051396886
C           -3.26469222040731       -2.50702095726372       -1.26801585703637
C           -2.76764742665845       -1.39778592725421       -0.59034400552124
N           -3.56608742911603       -0.25482360562749       -0.41120710986584
C           -3.17816600583092        1.05152174925137       -0.65204534051278
C           -1.99053216031663        1.53671262543630       -1.18319720934372
C           -1.86235209226509        2.90329553994847       -1.33927677905110
C           -2.89123137687721        3.77763344789212       -0.98987731763791
C           -4.08625689335740        3.30260566681192       -0.48956822380887
C           -4.23522716814100        1.93069544013582       -0.32103538781476
C           -5.31342750829423        1.10569604841840        0.14322037164442
N           -6.51904445360886        1.44686872008654        0.57822945988027
C           -7.30693748699056        0.45900037962122        0.96303484656806
C           -6.93945726229793       -0.88621825727931        0.95736581357553
C           -5.68352669431296       -1.25996716135551        0.50860087958281
C           -4.85437373931374       -0.23836680042316        0.06998161316550
C           -1.47442572128417       -1.41947062641684       -0.08374007355494
C            1.50520038315290       -1.40119719097346        0.09192830573607
C            2.80020031526491       -1.35842365474415        0.59416966871707
N            3.58130791799063       -0.20850703598666        0.40462823445803
C            3.17656136840380        1.08911817104072        0.65201565747532
C            1.98574241323586        1.55898382199359        1.18879051977986
C            1.84232028291775        2.92348411756258        1.35288598221365
C            2.86131683856171        3.80821336710721        1.00509158358322
C            4.05986868602182        3.34593258471985        0.49867097041569
C            4.22576804905672        1.97799901464402        0.32163077694636
C            5.31275643865013        1.16737897866849       -0.15248992745817
C            6.58501368721926        1.45890398414838       -0.62816756344725
C            7.39400703126101        0.41738515333112       -1.03716604530976
C            6.94214294251512       -0.90009893045845       -0.99174057993680
C            5.68097641710626       -1.21502027873755       -0.52258051820686
C            4.87259429025636       -0.17513120059625       -0.08464784730954
C            3.30913073601627       -2.45581279987507        1.28346140888150
H            2.92201885783469       -4.43483122717391        1.98212167671635
H            0.62530347640685       -4.50286700698216        1.10017313972802
H           -0.55829764392885       -4.52103346431475       -1.05786645559893
H           -2.85440259316785       -4.48939304532263       -1.94340595199017
H           -4.26074835654407       -2.48090217651829       -1.68343386785564
H           -1.19576269261779        0.86986602497477       -1.47982045456695
H           -0.94378342457447        3.30275721124852       -1.74374201074746
H           -2.74926261098574        4.83953894995108       -1.12519474220866
H           -4.89751873429774        3.96607073998701       -0.23298910524382
H           -8.28821171814265        0.75895334538768        1.30707127579926
H           -7.63569211448482       -1.63176488765310        1.30922728809993
H           -5.36930636907676       -2.29346571648537        0.51207970840743
H           -1.10910702732487       -0.56739361744053        0.46929058920941
H            1.12885208325524       -0.55920992409991       -0.46925964679577
H            1.19843373060728        0.88242116900660        1.48463996443999
H            0.92077580653607        3.31198633782555        1.76188232673440
H            2.71059571178921        4.86859081639629        1.14580857828184
H            4.85656188976283        4.03013980289884        0.24686975228292
H            6.92874739079778        2.48141187276481       -0.67906435814938
H            8.38785356882484        0.62249746606470       -1.40757409086057
H            7.59090097610351       -1.69311890997366       -1.33457595598678
H            5.33547373694839       -2.23766722300193       -0.50963100565522
H            4.30559994189344       -2.41400884995879        1.69631549923502

          :  Hamiltonian                  GFN2-xTB          :
         :: gradient norm              0.000024092811 Eh/a0 ::
         :: HOMO-LUMO gap              2.732818679445 eV    ::
         :: SCC energy               -97.339376161949 Eh    ::
         :: -> dispersion             -0.083730454531 Eh    ::
         :: -> Gsolv                  -0.040592668045 Eh    ::
         :: repulsion energy           1.789250084854 Eh    ::

    * Orbital Energies and Occupations

         #    Occupation            Energy/Eh            Energy/eV
      -------------------------------------------------------------
         1        2.0000           -0.6853049             -18.6481
       ...           ...                  ...                  ...
        77        2.0000           -0.4226641             -11.5013
        78        2.0000           -0.4217483             -11.4764
        79        2.0000           -0.4189319             -11.3997
        80        2.0000           -0.4180870             -11.3767
        81        2.0000           -0.4155950             -11.3089
        82        2.0000           -0.4125097             -11.2250
        83        2.0000           -0.4053957             -11.0314
        84        2.0000           -0.3985329             -10.8446
        85        2.0000           -0.3899201             -10.6103
        86        2.0000           -0.3787404             -10.3061
        87        2.0000           -0.3721726             -10.1273
        88        2.0000           -0.3687533             -10.0343
        89        2.0000           -0.3628236              -9.8729 (HOMO)
        90                         -0.2623944              -7.1401 (LUMO)
        91                         -0.2563030              -6.9744
        92                         -0.2461454              -6.6980
        93                         -0.2407047              -6.5499
        94                         -0.2342992              -6.3756
        95                         -0.2335373              -6.3549
        96                         -0.2221892              -6.0461
        97                         -0.2147019              -5.8423
        98                         -0.1992130              -5.4209
        99                         -0.1956695              -5.3244
       100                         -0.1890264              -5.1437
       ...                                ...                  ...
       175                          0.7440351              20.2462
      -------------------------------------------------------------
                  HL-Gap            0.1004292 Eh            2.7328 eV

     #   Z          covCN         q      C6AA      α(0)
     1   6 C        2.918    -0.028    28.705     8.786
     2   6 C        2.923    -0.038    28.940     8.822
     3   6 C        2.977     0.013    27.724     8.637
     4   6 C        2.977     0.015    27.683     8.631
     5   6 C        2.923    -0.037    28.914     8.818
     6   6 C        2.918    -0.028    28.691     8.784
     7   6 C        2.921    -0.045    29.105     8.847
     8   6 C        2.911     0.063    26.588     8.455
     9   7 N        2.798    -0.048    22.163     6.992
    10   6 C        3.081     0.048    26.844     8.494
    11   6 C        2.910    -0.049    29.228     8.865
    12   6 C        2.923    -0.031    28.764     8.795
    13   6 C        2.920    -0.039    28.977     8.827
    14   6 C        2.912    -0.029    28.718     8.787
    15   6 C        3.063    -0.025    28.563     8.764
    16   6 C        3.072     0.073    26.296     8.408
    17   7 N        1.832    -0.259    27.583     7.783
    18   6 C        2.921     0.050    26.882     8.502
    19   6 C        2.921    -0.048    29.198     8.861
    20   6 C        2.914    -0.037    28.917     8.818
    21   6 C        3.074     0.038    27.077     8.532
    22   6 C        2.929    -0.047    29.175     8.858
    23   6 C        2.929    -0.048    29.184     8.859
    24   6 C        2.911     0.064    26.556     8.450
    25   7 N        2.802    -0.046    22.130     6.987
    26   6 C        3.074     0.047    26.863     8.498
    27   6 C        2.910    -0.051    29.272     8.872
    28   6 C        2.923    -0.035    28.862     8.810
    29   6 C        2.920    -0.042    29.051     8.839
    30   6 C        2.912    -0.035    28.865     8.810
    31   6 C        3.067    -0.019    28.403     8.739
    32   6 C        3.067    -0.019    28.403     8.739
    33   6 C        2.912    -0.035    28.868     8.810
    34   6 C        2.919    -0.043    29.060     8.840
    35   6 C        2.924    -0.035    28.875     8.812
    36   6 C        2.910    -0.052    29.294     8.875
    37   6 C        3.074     0.047    26.861     8.498
    38   6 C        2.921    -0.044    29.098     8.846
    39   1 H        0.926     0.042     2.419     2.432
    40   1 H        0.926     0.043     2.415     2.430
    41   1 H        0.926     0.045     2.383     2.414
    42   1 H        0.926     0.044     2.395     2.420
    43   1 H        0.926     0.041     2.431     2.438
    44   1 H        0.926     0.035     2.514     2.479
    45   1 H        0.926     0.038     2.478     2.462
    46   1 H        0.926     0.036     2.501     2.473
    47   1 H        0.926     0.042     2.418     2.432
    48   1 H        0.925     0.030     2.581     2.513
    49   1 H        0.926     0.037     2.488     2.467
    50   1 H        0.926     0.037     2.488     2.466
    51   1 H        0.926     0.043     2.405     2.425
    52   1 H        0.926     0.042     2.421     2.433
    53   1 H        0.926     0.028     2.621     2.531
    54   1 H        0.926     0.029     2.596     2.520
    55   1 H        0.926     0.028     2.617     2.530
    56   1 H        0.926     0.030     2.585     2.514
    57   1 H        0.926     0.030     2.588     2.516
    58   1 H        0.926     0.027     2.622     2.532
    59   1 H        0.926     0.030     2.588     2.516
    60   1 H        0.926     0.031     2.577     2.510
    61   1 H        0.926     0.043     2.409     2.427

molecular dipole:
                 x           y           z       tot (Debye)
 q only:        0.621      -1.418      -0.161
   full:        0.664      -1.840      -0.149       4.987

 projected vibrational frequencies (cm⁻¹)
eigval :       -0.00    -0.00    -0.00     0.00     0.00     0.00
eigval :       13.44    21.96    31.19    39.99    43.65    60.53
eigval :       79.79    83.08    97.10   109.26   114.32   144.10
eigval :      144.71   174.26   183.02   216.23   218.88   234.31
eigval :      237.54   272.02   275.00   280.17   296.03   298.23
eigval :      335.24   342.15   388.06   389.04   396.26   399.58
eigval :      423.79   424.47   434.05   437.75   442.01   456.40
eigval :      515.93   519.67   522.89   530.91   537.51   540.59
eigval :      549.51   572.75   588.88   590.93   595.82   610.05
eigval :      612.81   624.54   646.74   669.82   673.73   679.26
eigval :      683.54   686.43   708.11   722.12   727.39   754.72
eigval :      762.76   768.02   777.07   780.43   790.89   793.73
eigval :      808.38   812.17   868.31   871.33   872.63   888.26
eigval :      888.62   894.49   897.65   899.95   900.40   905.68
eigval :      906.15   906.73   910.45   913.27   919.11   925.07
eigval :      926.69   928.59   931.27   932.92   985.54   998.92
eigval :     1004.90  1011.68  1022.42  1066.11  1068.73  1072.58
eigval :     1088.44  1093.51  1116.70  1119.10  1124.95  1127.68
eigval :     1143.03  1151.18  1169.71  1174.51  1177.45  1179.59
eigval :     1180.80  1187.10  1190.81  1213.70  1230.62  1234.51
eigval :     1237.60  1255.43  1257.13  1283.19  1290.21  1298.40
eigval :     1299.97  1302.25  1314.04  1319.55  1332.88  1340.43
eigval :     1353.36  1355.15  1357.76  1361.61  1391.94  1413.54
eigval :     1418.22  1426.15  1429.70  1445.14  1469.67  1470.52
eigval :     1473.97  1483.88  1486.46  1486.94  1553.01  1569.12
eigval :     1571.85  1575.34  1579.06  1584.56  1585.19  1587.00
eigval :     1590.16  1597.31  1605.91  1612.78  3054.32  3070.44
eigval :     3071.02  3072.60  3075.97  3076.08  3077.05  3078.61
eigval :     3080.90  3084.42  3084.56  3085.53  3090.32  3090.82
eigval :     3091.47  3092.61  3093.16  3093.28  3093.56  3094.58
eigval :     3098.48  3099.36  3100.65

   temp. (K)  partition function   enthalpy   heat capacity  entropy
                                   cal/mol     cal/K/mol   cal/K/mol   J/K/mol
 298.15  VIB  0.230E+12            16115.014    107.746     97.380
         ROT  0.395E+08              888.752      2.981     37.742
         INT  0.910E+19            17003.767    110.727    135.122
         TR   0.104E+29             1481.254      4.968     44.408
         TOT                       18485.0205   115.6953   179.5298   751.1527

       T/K    H(0)-H(T)+PV         H(T)/Eh          T*S/Eh         G(T)/Eh
   ------------------------------------------------------------------------
    298.15    0.294578E-01    0.497015E+00    0.853004E-01    0.411714E+00
   ------------------------------------------------------------------------

         :::::::::::::::::::::::::::::::::::::::::::::::::::::
         ::                  THERMODYNAMIC                  ::
         :::::::::::::::::::::::::::::::::::::::::::::::::::::
         :: total free energy         -95.138411894966 Eh   ::
         ::.................................................::
         :: total energy              -95.550126076054 Eh   ::
         :: zero point energy           0.467556832940 Eh   ::
         :: G(RRHO) w/o ZPVE           -0.055842651852 Eh   ::
         :: G(RRHO) contrib.            0.411714181088 Eh   ::
         :::::::::::::::::::::::::::::::::::::::::::::::::::::

           -------------------------------------------------
          | TOTAL ENERGY              -95.550126076054 Eh   |
          | TOTAL ENTHALPY            -95.053111487867 Eh   |
          | TOTAL FREE ENERGY         -95.138411894966 Eh   |
          | GRADIENT NORM               0.000024092098 Eh/α |
          | HOMO-LUMO GAP               2.732818836322 eV   |
           -------------------------------------------------

 * finished run on 2025/09/08 at 20:07:25.585
