   * xtb version 6.7.1 (edcfbbe) compiled by 'albert@albert-system' on 2024-07-22

   ID    Z sym.   atoms
    1    6 C      1-8, 10-16, 18-24, 26-38
    2    7 N      9, 17, 25
    3    1 H      39-61

          program call               : xtb data2507/toluene/CzBPDCb/CzBPDCb_toluene_S0_finalOpt.xtbopt.xyz --gfn 2 --uhf 2 --gbsa toluene --ohess vtight --parallel 40 --molden --ceasefiles --namespace data2507/toluene/CzBPDCb/CzBPDCb_toluene_T1_preOpt
      * Solvation model:               GBSA
        Solvent                        toluene
        Solvent mass                       9.2140E+01 g/mol
          :  Hamiltonian                  GFN2-xTB          :
 * total energy  :   -95.4406254 Eh     change       -0.2061256E-08 Eh
 * total energy  :   -95.4426235 Eh     change       -0.1998065E-02 Eh
 * total energy  :   -95.4433057 Eh     change       -0.6822233E-03 Eh
 * total energy  :   -95.4434806 Eh     change       -0.1748762E-03 Eh
 * total energy  :   -95.4436569 Eh     change       -0.1763279E-03 Eh
 * total energy  :   -95.4437190 Eh     change       -0.6205197E-04 Eh
 * total energy  :   -95.4437700 Eh     change       -0.5103871E-04 Eh
 * total energy  :   -95.4437902 Eh     change       -0.2016331E-04 Eh
 * total energy  :   -95.4438165 Eh     change       -0.2629808E-04 Eh
 * total energy  :   -95.4438391 Eh     change       -0.2264296E-04 Eh
 * total energy  :   -95.4439701 Eh     change       -0.2807367E-05 Eh
 * total energy  :   -95.4439734 Eh     change       -0.3309516E-05 Eh
 * total energy  :   -95.4439768 Eh     change       -0.3441118E-05 Eh
 * total energy  :   -95.4439799 Eh     change       -0.3115389E-05 Eh
 * total energy  :   -95.4439823 Eh     change       -0.2344395E-05 Eh
 * total energy  :   -95.4439838 Eh     change       -0.1549152E-05 Eh
 * total energy  :   -95.4439838 Eh     change        0.4491316E-07 Eh
 * total energy  :   -95.4439838 Eh     change        0.7331408E-08 Eh
 * total energy  :   -95.4439838 Eh     change       -0.5248508E-07 Eh
   *** GEOMETRY OPTIMIZATION CONVERGED AFTER 46 ITERATIONS ***

 final structure:
================
61
 xtb: 6.7.1 (edcfbbe)
C            2.53664200192769       -3.59785863614576        1.37167300266274
C            1.24933412879656       -3.65249591098085        0.87588784857823
C            0.68587375892076       -2.54377521921435        0.23202391138054
C           -0.68421753365930       -2.57112439664682       -0.27675059624031
C           -1.22889079341444       -3.72505881098148       -0.86086302116004
C           -2.52461017422704       -3.72507399912004       -1.34043511407799
C           -3.31948909098060       -2.59583667628019       -1.24332449726009
C           -2.79552880828415       -1.44096950890276       -0.64833383917002
N           -3.57752240993851       -0.29010916113050       -0.52828107656898
C           -3.12007462738554        1.00539953615002       -0.75115328334746
C           -1.95641499726361        1.42932595500658       -1.35304472475016
C           -1.74149882794574        2.80879828922000       -1.47004492294370
C           -2.68944176912980        3.71683128701458       -1.01126814703221
C           -3.88072294433678        3.30147255552873       -0.43879096684373
C           -4.11190528524927        1.92498257722711       -0.30026111727977
C           -5.19551187242925        1.15468002625205        0.17105214495523
N           -6.37058507658365        1.51515021518999        0.71714627011887
C           -7.18195804615767        0.55868252291544        1.14494923322848
C           -6.87163518384477       -0.78634879803303        1.11909124080690
C           -5.67740471933583       -1.21420187501158        0.49334456490065
C           -4.84278645246788       -0.22960721292047        0.00756880449322
C           -1.48837573106153       -1.43733692827457       -0.17740076820426
C            1.46578162227136       -1.39579364067314        0.08110623950230
C            2.76170832275927       -1.34598320655095        0.57244405977376
N            3.52767882978762       -0.18325918236732        0.39823869759148
C            3.11030440922385        1.10451771797616        0.66622090940959
C            1.91267091098089        1.55324682636452        1.20836277427524
C            1.75501434067063        2.91462771958594        1.39252548401707
C            2.76601793915664        3.81337672363062        1.06029924542310
C            3.97351343352100        3.37107663921730        0.54922238746257
C            4.15270492275662        2.00966546421497        0.35235183620005
C            5.24962437890508        1.21488598200131       -0.13219004713986
C            6.51970011879724        1.52268760153010       -0.59737729200383
C            7.33799629116344        0.49049028081299       -1.02144026482859
C            6.89565431884135       -0.83015426224830       -1.00119543314149
C            5.63375559039151       -1.16117543126524       -0.54231373257195
C            4.81805447106794       -0.13284027445010       -0.08770904745526
C            3.30177244056009       -2.45050243134745        1.23446356465006
H            2.95113926590990       -4.45371607732007        1.88416010046006
H            0.65896932733078       -4.54584691222830        1.01101861221671
H           -0.61988073572293       -4.61056206204986       -0.95790242566804
H           -2.92339841601486       -4.61424969124048       -1.80663833522522
H           -4.31909327583258       -2.58567313668033       -1.64823585943688
H           -1.23291766673284        0.72806857217799       -1.74046267025396
H           -0.82953416722861        3.16427949902112       -1.92379218045275
H           -2.49011199127840        4.77508832934678       -1.10438306874344
H           -4.61928912351262        4.00940340217326       -0.09681340605407
H           -8.13850758165167        0.89943883985788        1.51982912236291
H           -7.57261662688050       -1.51072346434408        1.50013047766184
H           -5.46611783640566       -2.26549765970131        0.38779338759954
H           -1.11708234964753       -0.55478116402895        0.32105771809984
H            1.07606514770678       -0.54897703794293       -0.46324374783105
H            1.13225414888784        0.86409856503696        1.49167581421533
H            0.82850368395630        3.28736123119013        1.80367491651475
H            2.60503705991445        4.86982506638088        1.21580188497225
H            4.76248623146369        4.06808636305483        0.31045496852770
H            6.85826675052109        2.54716524040734       -0.63044117520186
H            8.33132646813403        0.70938566144648       -1.38429835927288
H            7.55002256828062       -1.61263285769052       -1.35586982097336
H            5.29262676597158       -2.18489142586847       -0.54995705008701
H            4.29574398548513       -2.39627607271389        1.65032540601637

          :  Hamiltonian                  GFN2-xTB          :
         :: gradient norm              0.000121136237 Eh/a0 ::
         :: HOMO-LUMO gap              0.096171266031 eV    ::
         :: SCC energy               -97.216313490923 Eh    ::
         :: -> dispersion             -0.083779466159 Eh    ::
         :: -> Gsolv                  -0.040949304628 Eh    ::
         :: repulsion energy           1.772329667293 Eh    ::

    * Orbital Energies and Occupations

         #    Occupation            Energy/Eh            Energy/eV
      -------------------------------------------------------------
         1        2.0000           -0.6850122             -18.6401
       ...           ...                  ...                  ...
        78        2.0000           -0.4229408             -11.5088
        79        2.0000           -0.4195801             -11.4174
        80        2.0000           -0.4172630             -11.3543
        81        2.0000           -0.4131129             -11.2414
        82        2.0000           -0.4123563             -11.2208
        83        2.0000           -0.4113818             -11.1943
        84        2.0000           -0.3930851             -10.6964
        85        2.0000           -0.3862423             -10.5102
        86        2.0000           -0.3799213             -10.3382
        87        1.9969           -0.3734877             -10.1631
        88        1.7857           -0.3692367             -10.0474
        89        1.2174           -0.3667856              -9.9807
        90        0.8646           -0.2600311              -7.0758 (HOMO)
        91        0.1336           -0.2564936              -6.9795 (LUMO)
        92        0.0019           -0.2522965              -6.8653
        93                         -0.2360265              -6.4226
        94                         -0.2338140              -6.3624
        95                         -0.2301835              -6.2636
        96                         -0.2285260              -6.2185
        97                         -0.2105884              -5.7304
        98                         -0.1977630              -5.3814
        99                         -0.1933940              -5.2625
       100                         -0.1916511              -5.2151
       101                         -0.1880449              -5.1170
       ...                                ...                  ...
       175                          0.7366895              20.0463
      -------------------------------------------------------------
                  HL-Gap            0.0035375 Eh            0.0963 eV

     #   Z          covCN         q      C6AA      α(0)
     1   6 C        2.916    -0.029    28.733     8.790
     2   6 C        2.922    -0.039    28.961     8.825
     3   6 C        2.975     0.007    27.860     8.658
     4   6 C        2.974     0.007    27.856     8.657
     5   6 C        2.922    -0.038    28.955     8.824
     6   6 C        2.915    -0.028    28.709     8.786
     7   6 C        2.919    -0.050    29.242     8.868
     8   6 C        2.911     0.060    26.652     8.465
     9   7 N        2.800    -0.022    21.663     6.913
    10   6 C        3.067     0.037    27.098     8.536
    11   6 C        2.907    -0.044    29.082     8.843
    12   6 C        2.919    -0.053    29.324     8.880
    13   6 C        2.915    -0.032    28.791     8.799
    14   6 C        2.909    -0.040    29.000     8.830
    15   6 C        3.052    -0.033    28.766     8.796
    16   6 C        3.042     0.060    26.617     8.462
    17   7 N        1.833    -0.245    27.250     7.736
    18   6 C        2.890     0.055    26.760     8.481
    19   6 C        2.915    -0.067    29.677     8.933
    20   6 C        2.911    -0.058    29.450     8.899
    21   6 C        3.049     0.045    26.935     8.512
    22   6 C        2.927    -0.047    29.157     8.855
    23   6 C        2.927    -0.049    29.225     8.866
    24   6 C        2.910     0.060    26.664     8.467
    25   7 N        2.802    -0.024    21.711     6.920
    26   6 C        3.073     0.048    26.848     8.496
    27   6 C        2.910    -0.044    29.098     8.845
    28   6 C        2.922    -0.032    28.793     8.800
    29   6 C        2.920    -0.035    28.879     8.812
    30   6 C        2.912    -0.031    28.772     8.796
    31   6 C        3.065    -0.014    28.299     8.723
    32   6 C        3.065    -0.014    28.296     8.723
    33   6 C        2.912    -0.031    28.774     8.796
    34   6 C        2.920    -0.036    28.893     8.815
    35   6 C        2.923    -0.033    28.816     8.803
    36   6 C        2.909    -0.045    29.126     8.850
    37   6 C        3.073     0.048    26.849     8.496
    38   6 C        2.920    -0.050    29.242     8.868
    39   1 H        0.926     0.039     2.457     2.451
    40   1 H        0.926     0.039     2.458     2.452
    41   1 H        0.926     0.042     2.419     2.432
    42   1 H        0.926     0.041     2.435     2.440
    43   1 H        0.926     0.038     2.471     2.458
    44   1 H        0.926     0.031     2.568     2.506
    45   1 H        0.926     0.027     2.629     2.536
    46   1 H        0.926     0.030     2.587     2.515
    47   1 H        0.926     0.030     2.585     2.514
    48   1 H        0.925     0.034     2.533     2.489
    49   1 H        0.926     0.029     2.594     2.519
    50   1 H        0.926     0.034     2.527     2.486
    51   1 H        0.926     0.042     2.425     2.435
    52   1 H        0.926     0.040     2.443     2.444
    53   1 H        0.926     0.035     2.510     2.478
    54   1 H        0.926     0.036     2.502     2.474
    55   1 H        0.926     0.036     2.500     2.472
    56   1 H        0.926     0.039     2.465     2.455
    57   1 H        0.926     0.038     2.471     2.458
    58   1 H        0.926     0.036     2.500     2.472
    59   1 H        0.926     0.037     2.483     2.464
    60   1 H        0.926     0.039     2.456     2.451
    61   1 H        0.926     0.041     2.439     2.442

molecular dipole:
                 x           y           z       tot (Debye)
 q only:        2.336      -1.095      -0.118
   full:        2.258      -1.409      -0.126       6.772

 projected vibrational frequencies (cm⁻¹)
eigval :       -0.00    -0.00    -0.00     0.00     0.00     0.00
eigval :       10.25    15.98    29.53    38.24    41.28    62.96
eigval :       79.22    83.74    95.19   106.40   111.78   138.33
eigval :      143.28   173.44   182.86   212.39   214.16   225.94
eigval :      236.68   244.87   270.41   278.14   297.92   303.17
eigval :      331.12   342.66   360.61   384.52   388.03   396.38
eigval :      413.65   421.29   426.10   432.15   436.55   453.02
eigval :      482.54   496.75   508.23   515.14   526.64   536.45
eigval :      542.11   555.84   570.29   583.07   586.15   603.74
eigval :      608.06   616.57   628.09   636.12   655.83   662.81
eigval :      665.05   674.65   678.64   699.94   707.77   714.20
eigval :      738.88   747.47   754.81   766.71   775.40   777.18
eigval :      785.02   796.33   802.75   814.75   858.47   859.49
eigval :      864.53   867.42   872.78   880.57   885.23   885.63
eigval :      892.79   896.40   898.60   902.35   905.95   911.15
eigval :      917.43   918.92   923.05   925.76   971.33   979.97
eigval :      993.81   998.85  1010.20  1052.21  1066.42  1068.50
eigval :     1074.77  1078.91  1085.02  1104.50  1113.18  1120.60
eigval :     1127.16  1142.64  1145.33  1162.49  1168.93  1169.26
eigval :     1175.77  1177.12  1183.88  1189.20  1200.54  1227.57
eigval :     1228.99  1238.91  1249.73  1251.82  1264.08  1273.04
eigval :     1282.81  1286.00  1293.72  1297.59  1326.01  1329.92
eigval :     1339.79  1344.64  1346.87  1357.96  1382.02  1388.24
eigval :     1401.87  1405.74  1410.56  1413.30  1417.10  1427.53
eigval :     1434.32  1454.65  1460.77  1467.55  1467.98  1479.91
eigval :     1482.68  1492.05  1500.73  1542.38  1555.03  1560.33
eigval :     1562.42  1577.70  1580.26  1594.23  3045.23  3069.68
eigval :     3076.40  3077.33  3077.44  3077.71  3080.73  3082.92
eigval :     3083.77  3089.65  3090.74  3091.60  3092.65  3092.78
eigval :     3093.63  3094.61  3095.93  3096.95  3097.59  3098.57
eigval :     3101.19  3103.49  3105.08

   temp. (K)  partition function   enthalpy   heat capacity  entropy
                                   cal/mol     cal/K/mol   cal/K/mol   J/K/mol
 298.15  VIB  0.696E+12            16501.945    110.224     99.985
         ROT  0.390E+08              888.752      2.981     37.714
         INT  0.271E+20            17390.697    113.205    137.699
         TR   0.104E+29             1481.254      4.968     44.408
         TOT                       18871.9509   118.1730   182.1074   761.9375

       T/K    H(0)-H(T)+PV         H(T)/Eh          T*S/Eh         G(T)/Eh
   ------------------------------------------------------------------------
    298.15    0.300744E-01    0.491717E+00    0.865251E-01    0.405192E+00
   ------------------------------------------------------------------------

         :::::::::::::::::::::::::::::::::::::::::::::::::::::
         ::                  THERMODYNAMIC                  ::
         :::::::::::::::::::::::::::::::::::::::::::::::::::::
         :: total free energy         -95.038791643950 Eh   ::
         ::.................................................::
         :: total energy              -95.443983844161 Eh   ::
         :: zero point energy           0.461642954200 Eh   ::
         :: G(RRHO) w/o ZPVE           -0.056450753990 Eh   ::
         :: G(RRHO) contrib.            0.405192200211 Eh   ::
         :::::::::::::::::::::::::::::::::::::::::::::::::::::

           -------------------------------------------------
          | TOTAL ENERGY              -95.443983844161 Eh   |
          | TOTAL ENTHALPY            -94.952266521922 Eh   |
          | TOTAL FREE ENERGY         -95.038791643950 Eh   |
          | GRADIENT NORM               0.000109134371 Eh/α |
          | HOMO-LUMO GAP               0.096259401861 eV   |
           -------------------------------------------------

 * finished run on 2025/09/08 at 20:07:30.907
