   * xtb version 6.7.1 (edcfbbe) compiled by 'albert@albert-system' on 2024-07-22

   ID    Z sym.   atoms
    1    6 C      1-8, 10-16, 18-24, 26-38
    2    7 N      9, 17, 25
    3    1 H      39-61

          program call               : xtb data2507/toluene/CzBPDCb/CzBPDCb.xyz --gfn 2 --gbsa toluene --ohess vtight --parallel 40 --molden --ceasefiles --namespace data2507/toluene/CzBPDCb/CzBPDCb_toluene_S0_preOpt
      * Solvation model:               GBSA
        Solvent                        toluene
        Solvent mass                       9.2140E+01 g/mol
          :  Hamiltonian                  GFN2-xTB          :
 * total energy  :   -95.5327104 Eh     change       -0.1169909E-08 Eh
 * total energy  :   -95.5450088 Eh     change       -0.1229832E-01 Eh
 * total energy  :   -95.5474135 Eh     change       -0.2404700E-02 Eh
 * total energy  :   -95.5478158 Eh     change       -0.4023144E-03 Eh
 * total energy  :   -95.5481623 Eh     change       -0.3465735E-03 Eh
 * total energy  :   -95.5483032 Eh     change       -0.1408810E-03 Eh
 * total energy  :   -95.5484459 Eh     change       -0.1426660E-03 Eh
 * total energy  :   -95.5485575 Eh     change       -0.1115719E-03 Eh
 * total energy  :   -95.5486506 Eh     change       -0.9318475E-04 Eh
 * total energy  :   -95.5487288 Eh     change       -0.7815593E-04 Eh
 * total energy  :   -95.5493129 Eh     change       -0.4947708E-06 Eh
 * total energy  :   -95.5493132 Eh     change       -0.2945766E-06 Eh
 * total energy  :   -95.5493134 Eh     change       -0.2096311E-06 Eh
 * total energy  :   -95.5493136 Eh     change       -0.1813121E-06 Eh
 * total energy  :   -95.5493138 Eh     change       -0.2001435E-06 Eh
 * total energy  :   -95.5493140 Eh     change       -0.2582083E-06 Eh
 * total energy  :   -95.5493144 Eh     change       -0.3321828E-06 Eh
 * total energy  :   -95.5493148 Eh     change       -0.3868666E-06 Eh
 * total energy  :   -95.5493148 Eh     change       -0.1725013E-08 Eh
   *** GEOMETRY OPTIMIZATION CONVERGED AFTER 68 ITERATIONS ***

 final structure:
================
61
 xtb: 6.7.1 (edcfbbe)
C            1.37933231375789        0.74530265188652        2.91135666783544
C            0.27124678213946        0.20771057536756        2.28183311281079
C            0.39862980493933       -0.41787685992034        1.04320259692597
C           -0.77531097114045       -0.98859347932973        0.36225237752881
C           -0.69995484241634       -2.22447500850666       -0.27681312617640
C           -1.80907703441788       -2.75528709794680       -0.91002951198342
C           -3.00485500090101       -2.05991355585528       -0.93201013377013
C           -3.09130174321561       -0.82422041982954       -0.29811429275221
N           -4.30004133269508       -0.10486356865949       -0.31621024430055
C           -4.45431660919252        1.21597733797330       -0.69637878804064
C           -3.50774502428201        2.11230265427168       -1.17438230071810
C           -3.93534939436864        3.38222033217474       -1.51077933021711
C           -5.27209231876600        3.76084945877106       -1.38698594647825
C           -6.22245358127647        2.86998770024850       -0.93192869165865
C           -5.81499776312625        1.58627187067234       -0.58733334132241
C           -6.51080935699915        0.42470275149351       -0.11286556847686
N           -7.79674204699116        0.25655606137078        0.16534750750334
C           -8.15105277199324       -0.93602998228045        0.60904466436393
C           -7.26577263493045       -1.99460170817433        0.81139565081946
C           -5.91951430094620       -1.83617374914909        0.52745882433872
C           -5.53380219931752       -0.59791083844379        0.03613270360120
C           -1.98299905925166       -0.29830195009379        0.35350420932467
C            1.65362705568162       -0.48598549128342        0.44763624204913
C            2.76616542391882        0.05719551947692        1.07918797102065
N            4.02510232166285       -0.01483549359323        0.46198123086446
C            4.88062972631561        1.04645277074591        0.24311271357970
C            4.70832489881035        2.39420692039808        0.52663723856854
C            5.72494598828636        3.26268844034455        0.17761907522793
C            6.88558786012438        2.81072834106221       -0.44778562000941
C            7.05300333299025        1.47461750249502       -0.75327995604921
C            6.04462515348781        0.58176658731617       -0.41256067760771
C            5.87523886529319       -0.83364307811003       -0.58979606238287
C            6.66736869506596       -1.83047246542087       -1.14562990228681
C            6.20034355258718       -3.12988495420257       -1.13661618184260
C            4.96746186452024       -3.44433951783821       -0.56782326086228
C            4.16189904410117       -2.47049786372194       -0.00928041423913
C            4.61418141036688       -1.15864557074634       -0.03812685247842
C            2.62785594140095        0.67216799173010        2.32026680456383
H            1.27217375186397        1.21852221742120        3.87628396285157
H           -0.69499713574000        0.25383240559006        2.76121584774916
H            0.22599969784126       -2.77881820630198       -0.26218630341214
H           -1.74136490445738       -3.71575625079449       -1.39905144439164
H           -3.86502186255942       -2.45951276615212       -1.44776528850598
H           -2.47335171276633        1.82640138217467       -1.28979332831059
H           -3.21697796139411        4.09781424902646       -1.88314804808085
H           -5.56334332673297        4.76436855597804       -1.65947121134073
H           -7.26199471751278        3.14524796179142       -0.84444794346502
H           -9.20502585210169       -1.05339305288593        0.82495439399964
H           -7.63492173517107       -2.93349111436306        1.19440571104058
H           -5.21053830103011       -2.63506817127741        0.68963476031001
H           -2.06230022354160        0.65933946040554        0.84571205699175
H            1.76533003371044       -0.93403886280024       -0.52853742664502
H            3.80651883722584        2.75670853377974        0.99663622230791
H            5.61606721427879        4.31625286242714        0.39098691685781
H            7.65905527266439        3.52060605417607       -0.70237163391494
H            7.94617534379020        1.12714190108017       -1.25103329929093
H            7.63023117736044       -1.59032324130889       -1.57162436653450
H            6.80001504830514       -3.91892995765663       -1.56650934503521
H            4.63659773961198       -4.47289081291748       -0.56064921869277
H            3.21721257288650       -2.72554196953674        0.44676024334404
H            3.49707599425366        1.07637600745259        2.81675935491381

          :  Hamiltonian                  GFN2-xTB          :
         :: gradient norm              0.000039762128 Eh/a0 ::
         :: HOMO-LUMO gap              2.741843077405 eV    ::
         :: SCC energy               -97.338436529771 Eh    ::
         :: -> dispersion             -0.082190570448 Eh    ::
         :: -> Gsolv                  -0.040928516023 Eh    ::
         :: repulsion energy           1.789121776362 Eh    ::

    * Orbital Energies and Occupations

         #    Occupation            Energy/Eh            Energy/eV
      -------------------------------------------------------------
         1        2.0000           -0.6851803             -18.6447
       ...           ...                  ...                  ...
        77        2.0000           -0.4226246             -11.5002
        78        2.0000           -0.4211225             -11.4593
        79        2.0000           -0.4193746             -11.4118
        80        2.0000           -0.4182278             -11.3806
        81        2.0000           -0.4155619             -11.3080
        82        2.0000           -0.4128570             -11.2344
        83        2.0000           -0.4055144             -11.0346
        84        2.0000           -0.3987072             -10.8494
        85        2.0000           -0.3897462             -10.6055
        86        2.0000           -0.3788624             -10.3094
        87        2.0000           -0.3722564             -10.1296
        88        2.0000           -0.3686448             -10.0313
        89        2.0000           -0.3629873              -9.8774 (HOMO)
        90                         -0.2622264              -7.1355 (LUMO)
        91                         -0.2572048              -6.9989
        92                         -0.2461705              -6.6986
        93                         -0.2406474              -6.5483
        94                         -0.2347136              -6.3869
        95                         -0.2334225              -6.3517
        96                         -0.2222533              -6.0478
        97                         -0.2141600              -5.8276
        98                         -0.1999690              -5.4414
        99                         -0.1955386              -5.3209
       100                         -0.1897348              -5.1629
       ...                                ...                  ...
       175                          0.7441485              20.2493
      -------------------------------------------------------------
                  HL-Gap            0.1007609 Eh            2.7418 eV

     #   Z          covCN         q      C6AA      α(0)
     1   6 C        2.918    -0.028    28.700     8.785
     2   6 C        2.924    -0.038    28.934     8.821
     3   6 C        2.977     0.013    27.717     8.636
     4   6 C        2.977     0.015    27.678     8.630
     5   6 C        2.924    -0.036    28.901     8.816
     6   6 C        2.918    -0.028    28.690     8.783
     7   6 C        2.922    -0.044    29.088     8.844
     8   6 C        2.911     0.063    26.584     8.455
     9   7 N        2.799    -0.048    22.172     6.993
    10   6 C        3.082     0.048    26.846     8.494
    11   6 C        2.909    -0.050    29.251     8.868
    12   6 C        2.924    -0.031    28.779     8.797
    13   6 C        2.920    -0.040    28.987     8.829
    14   6 C        2.912    -0.029    28.720     8.788
    15   6 C        3.063    -0.025    28.566     8.764
    16   6 C        3.072     0.073    26.300     8.409
    17   7 N        1.832    -0.259    27.586     7.783
    18   6 C        2.921     0.050    26.884     8.503
    19   6 C        2.921    -0.048    29.198     8.861
    20   6 C        2.914    -0.037    28.916     8.818
    21   6 C        3.075     0.038    27.076     8.531
    22   6 C        2.928    -0.047    29.171     8.857
    23   6 C        2.928    -0.047    29.173     8.858
    24   6 C        2.911     0.065    26.552     8.449
    25   7 N        2.802    -0.047    22.139     6.988
    26   6 C        3.075     0.047    26.859     8.497
    27   6 C        2.909    -0.052    29.293     8.875
    28   6 C        2.924    -0.035    28.873     8.812
    29   6 C        2.919    -0.043    29.063     8.840
    30   6 C        2.912    -0.035    28.870     8.811
    31   6 C        3.067    -0.019    28.408     8.740
    32   6 C        3.067    -0.019    28.407     8.740
    33   6 C        2.912    -0.035    28.867     8.810
    34   6 C        2.920    -0.043    29.065     8.841
    35   6 C        2.924    -0.035    28.877     8.812
    36   6 C        2.910    -0.052    29.289     8.874
    37   6 C        3.076     0.047    26.860     8.497
    38   6 C        2.922    -0.043    29.079     8.843
    39   1 H        0.926     0.042     2.420     2.432
    40   1 H        0.926     0.041     2.432     2.439
    41   1 H        0.926     0.043     2.404     2.424
    42   1 H        0.926     0.044     2.395     2.420
    43   1 H        0.926     0.041     2.434     2.440
    44   1 H        0.926     0.037     2.492     2.469
    45   1 H        0.926     0.038     2.475     2.460
    46   1 H        0.926     0.036     2.504     2.474
    47   1 H        0.926     0.042     2.421     2.433
    48   1 H        0.925     0.030     2.585     2.514
    49   1 H        0.926     0.037     2.492     2.469
    50   1 H        0.926     0.036     2.498     2.471
    51   1 H        0.926     0.046     2.365     2.405
    52   1 H        0.926     0.045     2.384     2.414
    53   1 H        0.926     0.030     2.587     2.515
    54   1 H        0.926     0.030     2.590     2.517
    55   1 H        0.926     0.027     2.625     2.534
    56   1 H        0.926     0.030     2.592     2.518
    57   1 H        0.926     0.029     2.593     2.518
    58   1 H        0.926     0.027     2.626     2.534
    59   1 H        0.926     0.030     2.590     2.517
    60   1 H        0.926     0.029     2.600     2.522
    61   1 H        0.926     0.043     2.409     2.427

molecular dipole:
                 x           y           z       tot (Debye)
 q only:        0.685      -0.360       0.244
   full:        0.881      -0.694       0.322       2.966

 projected vibrational frequencies (cm⁻¹)
eigval :       -0.00    -0.00    -0.00     0.00     0.00     0.00
eigval :       12.28    18.85    21.28    35.99    38.59    61.86
eigval :       73.50    89.78    91.72   107.32   112.46   138.26
eigval :      143.68   146.98   190.68   208.25   225.85   229.04
eigval :      242.30   271.55   276.18   280.90   285.35   320.47
eigval :      326.01   344.66   388.79   391.33   397.62   400.94
eigval :      423.37   424.23   432.42   436.25   439.50   451.86
eigval :      516.19   519.54   522.24   529.88   540.54   541.44
eigval :      550.06   570.36   586.98   593.52   596.06   607.21
eigval :      615.33   617.76   648.96   669.43   673.12   678.70
eigval :      684.14   685.32   707.07   720.85   726.10   754.70
eigval :      762.84   768.18   773.79   779.41   790.85   798.54
eigval :      809.75   812.81   867.17   871.38   872.11   890.14
eigval :      893.16   895.97   897.91   900.67   901.21   905.34
eigval :      905.66   907.28   909.67   916.01   920.53   921.46
eigval :      922.25   924.83   931.63   933.28   986.02   998.23
eigval :     1006.37  1012.06  1022.52  1066.14  1068.09  1071.76
eigval :     1088.87  1092.57  1116.45  1119.38  1127.95  1129.06
eigval :     1144.10  1149.98  1170.27  1174.29  1176.92  1180.08
eigval :     1180.73  1189.20  1190.63  1213.89  1231.09  1234.74
eigval :     1237.12  1254.50  1259.34  1283.78  1290.21  1298.62
eigval :     1300.23  1302.61  1313.48  1318.75  1333.97  1340.45
eigval :     1353.80  1355.60  1358.53  1362.63  1392.86  1407.32
eigval :     1420.72  1426.61  1428.26  1454.95  1463.26  1470.95
eigval :     1474.58  1484.23  1486.71  1487.21  1553.00  1568.60
eigval :     1571.75  1575.05  1579.13  1584.90  1586.17  1587.47
eigval :     1589.71  1597.45  1606.18  1612.99  3054.24  3069.68
eigval :     3070.62  3071.25  3075.55  3076.41  3076.60  3079.40
eigval :     3081.30  3083.34  3084.18  3084.38  3089.50  3089.96
eigval :     3090.59  3091.84  3092.37  3092.67  3092.76  3093.84
eigval :     3097.86  3099.28  3101.30

   temp. (K)  partition function   enthalpy   heat capacity  entropy
                                   cal/mol     cal/K/mol   cal/K/mol   J/K/mol
 298.15  VIB  0.613E+12            16185.232    107.465     98.291
         ROT  0.468E+08              888.752      2.981     38.078
         INT  0.287E+20            17073.984    110.445    136.370
         TR   0.104E+29             1481.254      4.968     44.408
         TOT                       18555.2382   115.4136   180.7776   756.3734

       T/K    H(0)-H(T)+PV         H(T)/Eh          T*S/Eh         G(T)/Eh
   ------------------------------------------------------------------------
    298.15    0.295697E-01    0.496989E+00    0.858933E-01    0.411096E+00
   ------------------------------------------------------------------------

         :::::::::::::::::::::::::::::::::::::::::::::::::::::
         ::                  THERMODYNAMIC                  ::
         :::::::::::::::::::::::::::::::::::::::::::::::::::::
         :: total free energy         -95.138218917935 Eh   ::
         ::.................................................::
         :: total energy              -95.549314757053 Eh   ::
         :: zero point energy           0.467419451752 Eh   ::
         :: G(RRHO) w/o ZPVE           -0.056323612634 Eh   ::
         :: G(RRHO) contrib.            0.411095839118 Eh   ::
         :::::::::::::::::::::::::::::::::::::::::::::::::::::

           -------------------------------------------------
          | TOTAL ENERGY              -95.549314757053 Eh   |
          | TOTAL ENTHALPY            -95.052325651008 Eh   |
          | TOTAL FREE ENERGY         -95.138218917935 Eh   |
          | GRADIENT NORM               0.000039762795 Eh/α |
          | HOMO-LUMO GAP               2.741843064460 eV   |
           -------------------------------------------------

 * finished run on 2025/09/08 at 20:04:58.467
