   * xtb version 6.7.1 (edcfbbe) compiled by 'albert@albert-system' on 2024-07-22

   ID    Z sym.   atoms
    1    6 C      1-8, 10-16, 18-24, 26-38
    2    7 N      9, 17, 25
    3    1 H      39-61

          program call               : xtb data2507/toluene/CzBPDCb/CzBPDCb_toluene_T1_crest.xyz --gfn 2 --uhf 2 --gbsa toluene --ohess vtight --parallel 40 --molden --ceasefiles --namespace data2507/toluene/CzBPDCb/CzBPDCb_toluene_T1_finalOpt
      * Solvation model:               GBSA
        Solvent                        toluene
        Solvent mass                       9.2140E+01 g/mol
          :  Hamiltonian                  GFN2-xTB          :
 * total energy  :   -95.4428017 Eh     change        0.3481944E-09 Eh
 * total energy  :   -95.4428798 Eh     change       -0.7812735E-04 Eh
 * total energy  :   -95.4429408 Eh     change       -0.6098340E-04 Eh
 * total energy  :   -95.4429769 Eh     change       -0.3614661E-04 Eh
 * total energy  :   -95.4430094 Eh     change       -0.3241067E-04 Eh
 * total energy  :   -95.4430573 Eh     change       -0.4793194E-04 Eh
 * total energy  :   -95.4431101 Eh     change       -0.5276739E-04 Eh
 * total energy  :   -95.4431902 Eh     change       -0.8011084E-04 Eh
 * total energy  :   -95.4432264 Eh     change       -0.3625337E-04 Eh
 * total energy  :   -95.4432639 Eh     change       -0.3749317E-04 Eh
 * total energy  :   -95.4440071 Eh     change       -0.5390789E-06 Eh
 * total energy  :   -95.4440078 Eh     change       -0.6994017E-06 Eh
 * total energy  :   -95.4440088 Eh     change       -0.1034122E-05 Eh
 * total energy  :   -95.4440094 Eh     change       -0.5805427E-06 Eh
 * total energy  :   -95.4440096 Eh     change       -0.2238860E-06 Eh
 * total energy  :   -95.4440098 Eh     change       -0.1693212E-06 Eh
 * total energy  :   -95.4440099 Eh     change       -0.1074786E-06 Eh
 * total energy  :   -95.4440099 Eh     change        0.1491591E-07 Eh
 * total energy  :   -95.4440099 Eh     change       -0.6690563E-07 Eh
   *** GEOMETRY OPTIMIZATION CONVERGED AFTER 43 ITERATIONS ***

 final structure:
================
61
 xtb: 6.7.1 (edcfbbe)
C            2.52553193601079       -3.65131012939727        1.37060343897917
C            1.23374912895120       -3.70206358111144        0.88654082318244
C            0.66511328824492       -2.58974832670506        0.25208466898417
C           -0.70959857985780       -2.60653759287010       -0.24143746199650
C           -1.28399663317943       -3.76240018810323       -0.79393578235887
C           -2.58527076286429       -3.74828807346325       -1.25754833921511
C           -3.35710083240718       -2.60126662903226       -1.18093348281883
C           -2.80244275183562       -1.44270088499348       -0.62170075565652
N           -3.55319919576704       -0.26843423302920       -0.53242321515281
C           -3.06123974828283        1.00556448629430       -0.80025403968515
C           -1.88793683401913        1.37669341958682       -1.41877374940291
C           -1.63608313189408        2.74439012848215       -1.58438020674061
C           -2.55800921120468        3.69343521727691       -1.15637515586832
C           -3.75872164677116        3.33065176572703       -0.56807586477904
C           -4.02615485478347        1.96705039741892       -0.37992970150499
C           -5.12903769449019        1.24292153589497        0.12069822545333
N           -6.29148877520972        1.65443139576237        0.65660246734584
C           -7.12810297141192        0.73545270377154        1.11716761234541
C           -6.85552039986793       -0.61790776837423        1.13518089989843
C           -5.67505321070508       -1.09939503822550        0.52319443554005
C           -4.81463977694046       -0.15483553898691        0.00375108664514
C           -1.49252165843757       -1.45580104315266       -0.16013847721200
C            1.44751809890126       -1.44296609219373        0.09995468260663
C            2.74518023150105       -1.39458527358571        0.58572174268711
N            3.50215135372552       -0.22470084489763        0.42040335065726
C            3.06955059851141        1.05568212680596        0.69970328135776
C            1.86977706389936        1.48438894033777        1.25337410548887
C            1.69417245131624        2.84230755833696        1.44622526768283
C            2.69019971385167        3.75690281883644        1.11210138587495
C            3.90065673035969        3.33438204345916        0.59120367329315
C            4.09766495038252        1.97675034642501        0.38547289251187
C            5.20239197188173        1.19946985799445       -0.10991825678242
C            6.46564919201135        1.52701644262296       -0.57982049998776
C            7.29548843058061        0.50833802014441       -1.01427165277817
C            6.87119740619537       -0.81827181166482       -0.99927364304979
C            5.61618999406140       -1.16898472627349       -0.53604564853805
C            4.78897554290416       -0.15429220405371       -0.07168881247981
C            3.29077641203558       -2.50327457186372        1.23620291783770
H            2.94355532584903       -4.51089451887760        1.87400857942697
H            0.64425111269971       -4.59552971981877        1.02440154348663
H           -0.69379203956826       -4.66168422301422       -0.87949096636306
H           -3.00662202694766       -4.64064498031649       -1.69716851634068
H           -4.36026546145670       -2.58066810336599       -1.57633977558032
H           -1.18516500487438        0.64278547873898       -1.78315173630770
H           -0.71593276097059        3.05896750445456       -2.05165804260831
H           -2.33058071202856        4.74188157890784       -1.28754339952129
H           -4.47715742073041        4.07001822254365       -0.25062586537981
H           -8.07350168954012        1.11510463056416        1.48295153629457
H           -7.57542964287884       -1.30925508469907        1.54152780853730
H           -5.49232153261997       -2.15899821893274        0.45309358253108
H           -1.10148880154756       -0.56963101201284        0.31614944914779
H            1.05752665886124       -0.59340478921383       -0.43972572826875
H            1.10163765792112        0.78240443304172        1.53885101026687
H            0.76531192671061        3.19981085674626        1.86551896514208
H            2.51523253937556        4.81010991725858        1.27416205906555
H            4.67814059998904        4.04386891966280        0.35158553210074
H            6.79019589425237        2.55613022820093       -0.60862961419440
H            8.28376118180261        0.74281896161185       -1.38113138823468
H            7.53429736533026       -1.58972138586488       -1.36178070413319
H            5.28878276465206       -2.19711804266556       -0.54759006207919
H            4.28715976162542       -2.45190052615417        1.64646249934969

          :  Hamiltonian                  GFN2-xTB          :
         :: gradient norm              0.000044082908 Eh/a0 ::
         :: HOMO-LUMO gap              0.092504610178 eV    ::
         :: SCC energy               -97.216249449102 Eh    ::
         :: -> dispersion             -0.083883447494 Eh    ::
         :: -> Gsolv                  -0.040865001942 Eh    ::
         :: repulsion energy           1.772239504715 Eh    ::

    * Orbital Energies and Occupations

         #    Occupation            Energy/Eh            Energy/eV
      -------------------------------------------------------------
         1        2.0000           -0.6851588             -18.6441
       ...           ...                  ...                  ...
        78        2.0000           -0.4228913             -11.5075
        79        2.0000           -0.4197055             -11.4208
        80        2.0000           -0.4171994             -11.3526
        81        2.0000           -0.4130574             -11.2399
        82        2.0000           -0.4122427             -11.2177
        83        2.0000           -0.4113829             -11.1943
        84        2.0000           -0.3923627             -10.6767
        85        2.0000           -0.3863884             -10.5142
        86        2.0000           -0.3802308             -10.3466
        87        1.9968           -0.3735278             -10.1642
        88        1.7802           -0.3692766             -10.0485
        89        1.2230           -0.3668870              -9.9835
        90        0.8560           -0.2601792              -7.0798 (HOMO)
        91        0.1424           -0.2567799              -6.9873 (LUMO)
        92        0.0017           -0.2524064              -6.8683
        93                         -0.2358386              -6.4175
        94                         -0.2335136              -6.3542
        95                         -0.2303338              -6.2677
        96                         -0.2286382              -6.2216
        97                         -0.2099180              -5.7122
        98                         -0.1978321              -5.3833
        99                         -0.1935310              -5.2662
       100                         -0.1914373              -5.2093
       101                         -0.1882834              -5.1235
       ...                                ...                  ...
       175                          0.7365727              20.0432
      -------------------------------------------------------------
                  HL-Gap            0.0033993 Eh            0.0925 eV

     #   Z          covCN         q      C6AA      α(0)
     1   6 C        2.916    -0.030    28.738     8.791
     2   6 C        2.922    -0.039    28.965     8.826
     3   6 C        2.975     0.006    27.873     8.660
     4   6 C        2.974     0.007    27.870     8.659
     5   6 C        2.921    -0.039    28.958     8.825
     6   6 C        2.915    -0.029    28.713     8.787
     7   6 C        2.919    -0.050    29.253     8.869
     8   6 C        2.911     0.060    26.655     8.466
     9   7 N        2.800    -0.021    21.661     6.912
    10   6 C        3.067     0.038    27.092     8.535
    11   6 C        2.907    -0.044    29.082     8.843
    12   6 C        2.919    -0.053    29.314     8.879
    13   6 C        2.915    -0.032    28.788     8.798
    14   6 C        2.909    -0.040    28.993     8.829
    15   6 C        3.052    -0.033    28.759     8.795
    16   6 C        3.043     0.060    26.610     8.461
    17   7 N        1.833    -0.245    27.250     7.736
    18   6 C        2.890     0.055    26.763     8.482
    19   6 C        2.915    -0.067    29.668     8.932
    20   6 C        2.911    -0.058    29.438     8.897
    21   6 C        3.049     0.045    26.938     8.512
    22   6 C        2.928    -0.047    29.167     8.857
    23   6 C        2.928    -0.050    29.236     8.867
    24   6 C        2.910     0.059    26.669     8.468
    25   7 N        2.802    -0.024    21.702     6.919
    26   6 C        3.073     0.048    26.847     8.495
    27   6 C        2.910    -0.044    29.094     8.845
    28   6 C        2.922    -0.032    28.791     8.799
    29   6 C        2.920    -0.035    28.874     8.812
    30   6 C        2.912    -0.031    28.770     8.795
    31   6 C        3.065    -0.014    28.297     8.723
    32   6 C        3.066    -0.014    28.294     8.722
    33   6 C        2.912    -0.031    28.772     8.796
    34   6 C        2.920    -0.036    28.890     8.814
    35   6 C        2.923    -0.033    28.815     8.803
    36   6 C        2.909    -0.045    29.122     8.849
    37   6 C        3.073     0.048    26.848     8.496
    38   6 C        2.920    -0.050    29.253     8.869
    39   1 H        0.926     0.039     2.463     2.454
    40   1 H        0.926     0.039     2.463     2.454
    41   1 H        0.926     0.042     2.424     2.435
    42   1 H        0.926     0.041     2.441     2.443
    43   1 H        0.926     0.038     2.477     2.461
    44   1 H        0.926     0.031     2.565     2.505
    45   1 H        0.926     0.027     2.627     2.535
    46   1 H        0.926     0.030     2.582     2.513
    47   1 H        0.926     0.031     2.579     2.511
    48   1 H        0.925     0.034     2.532     2.489
    49   1 H        0.926     0.030     2.591     2.517
    50   1 H        0.926     0.034     2.525     2.485
    51   1 H        0.926     0.042     2.426     2.436
    52   1 H        0.926     0.040     2.446     2.446
    53   1 H        0.926     0.036     2.509     2.477
    54   1 H        0.926     0.036     2.503     2.474
    55   1 H        0.926     0.036     2.496     2.471
    56   1 H        0.926     0.039     2.462     2.453
    57   1 H        0.926     0.038     2.469     2.457
    58   1 H        0.926     0.036     2.497     2.471
    59   1 H        0.926     0.038     2.481     2.463
    60   1 H        0.926     0.040     2.454     2.450
    61   1 H        0.926     0.040     2.445     2.445

molecular dipole:
                 x           y           z       tot (Debye)
 q only:        2.293      -1.083      -0.084
   full:        2.208      -1.400      -0.083       6.650

 projected vibrational frequencies (cm⁻¹)
eigval :       -0.00    -0.00    -0.00     0.00     0.00     0.00
eigval :        9.97    16.77    26.57    38.16    39.95    61.67
eigval :       79.70    80.09    94.28   104.50   111.58   139.99
eigval :      142.94   173.04   182.73   212.41   212.72   225.80
eigval :      236.18   244.66   269.53   276.44   298.37   304.15
eigval :      331.35   343.09   361.70   383.87   387.93   396.07
eigval :      414.29   420.40   425.81   432.07   436.57   453.50
eigval :      483.44   496.58   506.37   514.95   525.77   536.28
eigval :      541.46   555.78   569.71   582.18   585.94   603.57
eigval :      607.82   616.04   629.22   636.14   654.40   663.60
eigval :      664.64   674.02   678.18   703.55   707.76   713.93
eigval :      739.72   747.60   754.74   766.64   774.93   776.81
eigval :      786.94   794.99   803.01   820.35   855.87   860.70
eigval :      863.43   866.59   870.66   879.69   883.40   885.64
eigval :      893.38   896.74   898.73   902.27   906.23   911.03
eigval :      917.08   918.91   921.19   924.72   970.95   980.29
eigval :      993.92   999.35  1010.18  1052.60  1066.38  1068.29
eigval :     1074.08  1078.39  1085.39  1104.97  1113.26  1119.60
eigval :     1126.66  1142.42  1145.94  1162.37  1169.23  1169.40
eigval :     1175.14  1176.97  1184.06  1189.29  1200.66  1227.74
eigval :     1228.76  1238.66  1249.69  1252.14  1264.22  1273.60
eigval :     1282.96  1285.72  1293.55  1297.94  1326.74  1330.19
eigval :     1339.54  1344.58  1346.64  1358.08  1381.98  1388.74
eigval :     1400.84  1405.16  1410.12  1412.76  1417.42  1426.56
eigval :     1434.38  1454.13  1460.63  1466.65  1467.88  1479.84
eigval :     1482.80  1491.58  1498.78  1542.23  1555.39  1560.60
eigval :     1562.67  1577.41  1580.19  1594.31  3044.14  3070.15
eigval :     3075.26  3075.82  3077.63  3077.94  3080.92  3083.05
eigval :     3084.00  3090.17  3090.94  3091.82  3092.70  3093.39
eigval :     3094.41  3094.77  3096.06  3096.91  3097.81  3098.88
eigval :     3101.42  3103.44  3104.97

   temp. (K)  partition function   enthalpy   heat capacity  entropy
                                   cal/mol     cal/K/mol   cal/K/mol   J/K/mol
 298.15  VIB  0.840E+12            16520.120    110.147    100.170
         ROT  0.386E+08              888.752      2.981     37.695
         INT  0.324E+20            17408.873    113.127    137.865
         TR   0.104E+29             1481.254      4.968     44.408
         TOT                       18890.1266   118.0956   182.2730   762.6302

       T/K    H(0)-H(T)+PV         H(T)/Eh          T*S/Eh         G(T)/Eh
   ------------------------------------------------------------------------
    298.15    0.301033E-01    0.491688E+00    0.866038E-01    0.405085E+00
   ------------------------------------------------------------------------

         :::::::::::::::::::::::::::::::::::::::::::::::::::::
         ::                  THERMODYNAMIC                  ::
         :::::::::::::::::::::::::::::::::::::::::::::::::::::
         :: total free energy         -95.038925363877 Eh   ::
         ::.................................................::
         :: total energy              -95.444009946761 Eh   ::
         :: zero point energy           0.461585029479 Eh   ::
         :: G(RRHO) w/o ZPVE           -0.056500446594 Eh   ::
         :: G(RRHO) contrib.            0.405084582884 Eh   ::
         :::::::::::::::::::::::::::::::::::::::::::::::::::::

           -------------------------------------------------
          | TOTAL ENERGY              -95.444009946761 Eh   |
          | TOTAL ENTHALPY            -94.952321584346 Eh   |
          | TOTAL FREE ENERGY         -95.038925363877 Eh   |
          | GRADIENT NORM               0.000043450634 Eh/α |
          | HOMO-LUMO GAP               0.092499350186 eV   |
           -------------------------------------------------

 * finished run on 2025/09/08 at 20:12:26.395
