   * xtb version 6.7.1 (edcfbbe) compiled by 'albert@albert-system' on 2024-07-22

   ID    Z sym.   atoms
    1    6 C      1-8, 10-38, 40-46, 48-55
    2    7 N      9, 39, 47
    3    1 H      56-92

          program call               : xtb data2507/gas/BBA-Pyr/BBA-Pyr_gas_S0_finalOpt.xtbopt.xyz --gfn 2 --spinpol --tblite --uhf 2 --ohess vtight --parallel 40 --molden --ceasefiles --namespace data2507/gas/BBA-Pyr/BBA-Pyr_gas_T1_preOpt
 * total energy  :  -138.8992684 Eh     change        0.4723074E-07 Eh
 * total energy  :  -138.9033388 Eh     change       -0.4070327E-02 Eh
 * total energy  :  -138.9049058 Eh     change       -0.1566991E-02 Eh
 * total energy  :  -138.9050950 Eh     change       -0.1892050E-03 Eh
 * total energy  :  -138.9054900 Eh     change       -0.3949946E-03 Eh
 * total energy  :  -138.9057135 Eh     change       -0.2234986E-03 Eh
 * total energy  :  -138.9059342 Eh     change       -0.2207377E-03 Eh
 * total energy  :  -138.9061005 Eh     change       -0.1662896E-03 Eh
 * total energy  :  -138.9061948 Eh     change       -0.9436252E-04 Eh
 * total energy  :  -138.9062805 Eh     change       -0.8562660E-04 Eh
 * total energy  :  -138.9067089 Eh     change       -0.1374122E-05 Eh
 * total energy  :  -138.9067104 Eh     change       -0.1535443E-05 Eh
 * total energy  :  -138.9067120 Eh     change       -0.1587965E-05 Eh
 * total energy  :  -138.9067138 Eh     change       -0.1854292E-05 Eh
 * total energy  :  -138.9067153 Eh     change       -0.1488347E-05 Eh
 * total energy  :  -138.9067169 Eh     change       -0.1525343E-05 Eh
 * total energy  :  -138.9067183 Eh     change       -0.1446287E-05 Eh
 * total energy  :  -138.9067198 Eh     change       -0.1450857E-05 Eh
 * total energy  :  -138.9067198 Eh     change       -0.2064070E-08 Eh
   *** GEOMETRY OPTIMIZATION CONVERGED AFTER 68 ITERATIONS ***

 final structure:
================
92
 xtb: 6.7.1 (edcfbbe)
C           -8.36823100029579       -7.27597745287281       -0.51779295024516
C           -6.98606644492686       -7.26618387096589       -0.42984017948116
C           -6.30250151638013       -6.06786823862679       -0.34729540477390
C           -6.99110028901544       -4.85593068095985       -0.34574664345485
C           -6.26791546383334       -3.58226729836403       -0.25544202145944
C           -5.06642338879578       -3.38856879420279       -0.93812212557337
C           -4.38989773929381       -2.19085775945877       -0.86375454366665
C           -4.89269386182315       -1.14144405740579       -0.09079336762011
N           -4.20791995915299        0.06985372979160       -0.01053718368284
C           -4.90692446013307        1.27228449455666        0.08642091394147
C           -4.40376032062745        2.32430676572369        0.85554939888629
C           -5.09200132063667        3.51419855672031        0.94497628383887
C           -6.30603489589382        3.69697784378944        0.28179215184459
C           -7.04010493644102        4.96323285006523        0.38742396546458
C           -8.42953426081147        4.97253451811795        0.49895647113184
C           -9.12002514129142        6.16523800107248        0.60197256009699
C           -8.43647310086254        7.36972417117664        0.58999933652910
C           -7.05609115943838        7.37322597672926        0.47710124435973
C           -6.36295628766847        6.18158126544573        0.37946725188254
C           -6.80312598321508        2.64198826761870       -0.48428850123211
C           -6.11722120507737        1.45173978779112       -0.58775874531810
C           -2.80907076973129        0.08159450656318       -0.02384448030953
C           -2.11228247021950        1.07965320518558       -0.71151777262414
C           -0.73840142625743        1.09331019736368       -0.71774994336507
C            0.00986010200124        0.11667171635054       -0.04051508209262
C            1.45923869253584        0.13946964305836       -0.04365243368220
C            2.17196164350438        1.34509116023922       -0.16688365001736
C            3.54112196419171        1.37795526254128       -0.16585744352382
C            4.30002302098481        0.19526942121639       -0.05033741060117
C            5.72778271940417        0.16937007822411       -0.05081645909164
C            6.54906649628161        1.29237287478025       -0.26724238322659
C            7.92067875013275        1.12499299562054       -0.24644614323678
C            8.87741347085902        2.19672394333537       -0.45350983401857
C            8.51389254278632        3.45469773858823       -0.94797747631852
C            9.46233623542863        4.44041687478910       -1.12678544855427
C           10.79401486836203        4.20281971436019       -0.82130089343649
C           11.16988434799896        2.95911495828275       -0.33617306240064
C           10.22839034322816        1.96915313310422       -0.15596224301413
N            8.43426146257087       -0.11460724818370       -0.00263702989652
C            7.64123301759358       -1.15140024589811        0.19803981360596
C            8.23659672481600       -2.46189598770423        0.45750146639818
C            9.61733220400632       -2.63051297126501        0.38696893047993
C           10.17917629094547       -3.86786776082351        0.63517649438366
C            9.37042100741715       -4.94666522878656        0.95622381048366
C            7.99544913141141       -4.78515277859329        1.02755539969819
C            7.42905592061227       -3.55007486280496        0.77954200180862
N            6.33918430444263       -1.02893264421966        0.17031836035007
C            3.58254421591939       -1.01559505175432        0.07280946589870
C            2.21532455971168       -1.04026278277052        0.07964333065670
C           -0.70571205369333       -0.88095701453058        0.64129944854487
C           -2.07970728195853       -0.90135800286608        0.65162329062136
C           -6.08971031434306       -1.33227398590779        0.60389432183341
C           -6.76390708402486       -2.53025866326438        0.51551663389296
C           -8.38220309882628       -4.87865730826483       -0.43246339475114
C           -9.06320399594133       -6.07798815277035       -0.52025616314882
H           -8.90131170064790       -8.21276024121114       -0.58419213130153
H           -6.43886156797904       -8.19766998773857       -0.42339928356336
H           -5.22571926007333       -6.06884693144682       -0.26026384209609
H           -4.67508171744055       -4.17882097837430       -1.56134487759898
H           -3.47237580503288       -2.04952025104488       -1.41569308630618
H           -3.47602937449809        2.19119310601596        1.39224763790221
H           -4.69957264092569        4.30661575384703        1.56474862637745
H           -8.96783754945619        4.03625461887634        0.52786194570687
H          -10.19641290383530        6.15599641023149        0.69437314343899
H           -8.97701868407015        8.30128706368659        0.66835124462212
H           -6.51784315089937        8.30983322824835        0.46302742543152
H           -5.28795237293756        6.19278208504721        0.27319190525552
H           -7.72539631490676        2.77010579245485       -1.03132008220311
H           -6.50469262855148        0.65383307501736       -1.20427629663516
H           -2.66640432558097        1.83089925851108       -1.25606062144707
H           -0.22745714556268        1.85418432445473       -1.28748348789584
H            1.62833337196642        2.27698106742051       -0.22629696203520
H            4.03655383399833        2.33403208254709       -0.24010197174517
H            6.11308521452030        2.26132251218388       -0.43824388067347
H            7.48771248880150        3.66189886735611       -1.21068289906189
H            9.16316250427167        5.40477261250879       -1.51244536528210
H           11.53133295540976        4.97879589470784       -0.96391617690901
H           12.20584114044385        2.76410595433432       -0.09786320193499
H           10.51479525054340        1.00113213731389        0.22624788484017
H           10.23295256172128       -1.78128667765919        0.13243287702654
H           11.25047162173302       -3.99502474853879        0.57881352137625
H            9.81147139568372       -5.91339631623467        1.15090589490316
H            7.36619893268037       -5.62670780123207        1.27838212954285
H            6.36060817322178       -3.40759842862982        0.83412551230313
H            4.14687586529926       -1.93271566955706        0.15020526427360
H            1.70746558634029       -1.99166416021405        0.14503555159550
H           -0.16899595431139       -1.62989913246292        1.20309885567412
H           -2.60841232374572       -1.66655941249501        1.20196948886918
H           -6.47598959874678       -0.53671664972333        1.22416476143931
H           -7.67559589483391       -2.66657383954578        1.07806810583067
H           -8.92984132046982       -3.94760826936609       -0.45393449904163
H          -10.14113038961521       -6.07902012827843       -0.59321116329400

 projected vibrational frequencies (cm⁻¹)
eigval :       -0.00    -0.00    -0.00     0.00     0.00     0.00
eigval :        4.82     8.18    10.79    17.30    19.45    22.76
eigval :       25.30    27.49    32.73    32.99    46.65    50.92
eigval :       54.43    62.45    70.05    74.28    81.07    86.11
eigval :       96.59    98.76   100.79   108.28   109.49   130.12
eigval :      160.35   167.12   188.88   199.46   199.63   206.74
eigval :      212.09   229.19   244.80   262.32   269.54   283.48
eigval :      287.59   326.80   345.81   347.35   355.91   366.62
eigval :      366.73   370.20   370.49   370.99   382.77   383.03
eigval :      384.25   385.32   391.53   403.17   409.92   419.37
eigval :      429.66   435.59   439.51   465.20   468.90   483.23
eigval :      496.15   515.14   534.40   535.63   538.54   550.77
eigval :      577.75   583.27   583.71   585.49   588.44   588.51
eigval :      589.50   590.00   601.22   605.86   608.44   609.39
eigval :      626.25   638.23   654.26   654.80   661.39   665.17
eigval :      665.73   665.91   683.98   686.42   686.70   728.46
eigval :      736.63   749.25   756.32   756.65   765.12   774.55
eigval :      791.28   808.56   816.52   819.34   819.69   822.72
eigval :      834.04   839.80   855.19   857.98   865.42   867.72
eigval :      874.95   876.81   877.32   882.99   900.21   900.31
eigval :      901.36   904.85   909.35   912.45   914.95   916.58
eigval :      917.21   918.92   920.77   923.04   923.26   924.95
eigval :      925.78   926.83   928.23   931.37   931.74   931.91
eigval :      931.94   932.11   963.69   971.69   975.96   979.34
eigval :      985.35  1000.54  1016.18  1017.30  1053.16  1062.47
eigval :     1073.67  1074.85  1075.08  1075.44  1078.36  1087.17
eigval :     1087.73  1087.76  1112.68  1122.19  1122.30  1123.94
eigval :     1139.49  1143.06  1144.37  1154.81  1167.10  1179.18
eigval :     1180.38  1180.84  1182.02  1182.05  1192.03  1193.14
eigval :     1198.14  1199.80  1201.28  1203.12  1212.88  1223.26
eigval :     1251.91  1267.05  1268.75  1270.89  1271.29  1277.56
eigval :     1281.81  1281.87  1284.74  1285.07  1287.83  1294.74
eigval :     1303.77  1312.86  1317.53  1319.50  1320.34  1322.22
eigval :     1326.06  1327.44  1328.43  1330.60  1333.96  1350.87
eigval :     1376.72  1397.70  1404.36  1411.51  1420.26  1432.36
eigval :     1433.83  1435.11  1435.75  1438.32  1450.49  1460.18
eigval :     1460.20  1461.58  1470.00  1477.93  1485.49  1496.06
eigval :     1496.69  1497.11  1519.11  1541.82  1545.63  1551.38
eigval :     1558.97  1577.28  1580.55  1580.64  1583.78  1584.16
eigval :     1589.22  1590.98  1595.03  1600.89  1601.87  3068.24
eigval :     3070.31  3070.91  3072.10  3072.16  3072.18  3073.28
eigval :     3073.37  3073.41  3075.15  3076.52  3078.67  3078.90
eigval :     3080.18  3081.17  3081.28  3082.80  3083.19  3085.40
eigval :     3085.82  3085.90  3087.38  3088.09  3090.29  3090.46
eigval :     3091.24  3092.08  3093.12  3093.17  3093.93  3094.01
eigval :     3095.03  3095.97  3096.91  3097.42  3098.55  3119.70

   temp. (K)  partition function   enthalpy   heat capacity  entropy
                                   cal/mol     cal/K/mol   cal/K/mol   J/K/mol
 298.15  VIB  0.152E+24            26817.942    164.488    170.924
         ROT  0.280E+09              888.752      2.981     41.631
         INT  0.425E+32            27706.694    167.469    212.555
         TR   0.181E+29             1481.254      4.968     45.514
         TOT                       29187.9478   172.4374   258.0695  1079.7628

       T/K    H(0)-H(T)+PV         H(T)/Eh          T*S/Eh         G(T)/Eh
   ------------------------------------------------------------------------
    298.15    0.465140E-01    0.757949E+00    0.122617E+00    0.635332E+00
   ------------------------------------------------------------------------

         :::::::::::::::::::::::::::::::::::::::::::::::::::::
         ::                  THERMODYNAMIC                  ::
         :::::::::::::::::::::::::::::::::::::::::::::::::::::
         :: total free energy        -138.271387653672 Eh   ::
         ::.................................................::
         :: total energy             -138.906719748151 Eh   ::
         :: zero point energy           0.711435287941 Eh   ::
         :: G(RRHO) w/o ZPVE           -0.076103193463 Eh   ::
         :: G(RRHO) contrib.            0.635332094478 Eh   ::
         :::::::::::::::::::::::::::::::::::::::::::::::::::::

           -------------------------------------------------
          | TOTAL ENERGY             -138.906719748151 Eh   |
          | TOTAL ENTHALPY           -138.148770504623 Eh   |
          | TOTAL FREE ENERGY        -138.271387653672 Eh   |
          | GRADIENT NORM               0.000070937872 Eh/α |
           -------------------------------------------------

 * finished run on 2025/07/17 at 05:42:27.380
