   * xtb version 6.7.1 (edcfbbe) compiled by 'albert@albert-system' on 2024-07-22

   ID    Z sym.   atoms
    1    6 C      1-8, 10-38, 40-46, 48-55
    2    7 N      9, 39, 47
    3    1 H      56-92

          program call               : xtb data2507/gas/BBA-Pyr/BBA-Pyr_gas_S0_crest.xyz --gfn 2 --ohess vtight --parallel 40 --molden --ceasefiles --namespace data2507/gas/BBA-Pyr/BBA-Pyr_gas_S0_finalOpt
          :  Hamiltonian                  GFN2-xTB          :
 * total energy  :  -138.9800930 Eh     change       -0.1413810E-08 Eh
 * total energy  :  -138.9800944 Eh     change       -0.1356351E-05 Eh
 * total energy  :  -138.9800963 Eh     change       -0.1881197E-05 Eh
 * total energy  :  -138.9801013 Eh     change       -0.4995299E-05 Eh
 * total energy  :  -138.9801058 Eh     change       -0.4548845E-05 Eh
 * total energy  :  -138.9801080 Eh     change       -0.2154435E-05 Eh
 * total energy  :  -138.9801100 Eh     change       -0.2006219E-05 Eh
 * total energy  :  -138.9801131 Eh     change       -0.3157038E-05 Eh
 * total energy  :  -138.9801170 Eh     change       -0.3813845E-05 Eh
 * total energy  :  -138.9801202 Eh     change       -0.3213467E-05 Eh
 * total energy  :  -138.9801561 Eh     change       -0.4301502E-06 Eh
 * total energy  :  -138.9801566 Eh     change       -0.5127469E-06 Eh
 * total energy  :  -138.9801572 Eh     change       -0.5858837E-06 Eh
 * total energy  :  -138.9801577 Eh     change       -0.5705485E-06 Eh
 * total energy  :  -138.9801582 Eh     change       -0.4815872E-06 Eh
 * total energy  :  -138.9801585 Eh     change       -0.3415062E-06 Eh
 * total energy  :  -138.9801588 Eh     change       -0.2857421E-06 Eh
 * total energy  :  -138.9801592 Eh     change       -0.3288568E-06 Eh
 * total energy  :  -138.9801592 Eh     change       -0.2447280E-08 Eh
   *** GEOMETRY OPTIMIZATION CONVERGED AFTER 44 ITERATIONS ***

 final structure:
================
92
 xtb: 6.7.1 (edcfbbe)
C           -8.44044696324042       -7.23042510777896       -0.52465198363569
C           -7.05700734033672       -7.23556518505280       -0.46269285263634
C           -6.35967538906352       -6.04480396532789       -0.38393237588599
C           -7.03485823837717       -4.82606124281087       -0.36149651090830
C           -6.29493787156471       -3.56055463476521       -0.27403633432297
C           -5.11215721186013       -3.37103425494969       -0.98718336119213
C           -4.41792369144031       -2.18224760392255       -0.91217113228566
C           -4.88054401075139       -1.14378734422136       -0.10380281038264
N           -4.17725630292009        0.06226652298088       -0.01903546751815
C           -4.87755049640785        1.26896181589376        0.08299245114694
C           -4.40116062130789        2.30176003832703        0.89066844315866
C           -5.09151885536564        3.49150667777009        0.98255326146549
C           -6.28395561005125        3.68768940064796        0.28750145693597
C           -7.01883977105562        4.95469826641101        0.39356269466878
C           -8.40975212813200        4.96624937087051        0.47659803025052
C           -9.09981283558439        6.15950656627769        0.57850247839654
C           -8.41376367962212        7.36235863194049        0.59503383205981
C           -7.03148436205249        7.36358530385486        0.51095523528715
C           -6.33944676746490        6.17116936030732        0.41319627855438
C           -6.75899408552089        2.64826703568730       -0.51085724276555
C           -6.06719061368134        1.46070911940049       -0.61971672676341
C           -2.78121671859948        0.06329210965963       -0.02829224557317
C           -2.07558545462743        1.09316117212707       -0.65255360185089
C           -0.69761996888200        1.09977673037986       -0.64715589900381
C            0.02568127685791        0.07531980014385       -0.03693053221199
C            1.49190591495281        0.08660086138201       -0.03427033716683
C            2.19398115136454        1.27684906255219        0.15363384254899
C            3.57326214063191        1.29490904149107        0.15750713990771
C            4.29684304771835        0.11867744894883       -0.02939772523973
C            5.76306451738960        0.09599060151536       -0.03360679360615
C            6.53651531832276        1.21653041807815       -0.33835383993384
C            7.92169117337748        1.06470975795271       -0.30565059307704
C            8.84720618023967        2.16853414407489       -0.59407246665730
C            8.49413753836934        3.22514751853648       -1.42970300660975
C            9.39084191390225        4.24843709748486       -1.67542072160421
C           10.64590165651286        4.23263350110433       -1.08977854154027
C           11.00786759338504        3.18065915000184       -0.26371434812636
C           10.11736400734040        2.15326219269652       -0.02065639775748
N            8.47398328788699       -0.10317844872999        0.01348390295997
C            7.66478479960383       -1.12364209171171        0.27400263386231
C            8.28530696514639       -2.40978465718523        0.60677321890333
C            9.66390043462198       -2.57393906005484        0.49124278046725
C           10.24623223726575       -3.78702191814366        0.80409382106216
C            9.46152419358927       -4.84520439927945        1.23485353816236
C            8.08954426095737       -4.68721379959184        1.35218569497561
C            7.50135178572879       -3.47676800089956        1.04006360572437
N            6.33861050864583       -1.06891402190529        0.25728738961738
C            3.59740968775441       -1.07492489925272       -0.20731852933102
C            2.21953109339798       -1.09056884293472       -0.21124417486170
C           -0.68491611707738       -0.95743049833785        0.57413554990279
C           -2.06297800884570       -0.96271964396954        0.58777992844034
C           -6.06011185159864       -1.32912159313302        0.61744294999739
C           -6.75593943735434       -2.51564361974495        0.52538707673424
C           -8.42696353064967       -4.83365502837244       -0.42257998586069
C           -9.12236318878308       -6.02526652749224       -0.50545054936134
H           -8.98460322424692       -8.16121057621747       -0.58756179161493
H           -6.51947419161668       -8.17282548700071       -0.47317825238494
H           -5.28135031039086       -6.05704005287130       -0.31772201207117
H           -4.74869955465587       -4.15609533858975       -1.63390443494439
H           -3.51293331204808       -2.04536537467117       -1.48604716211959
H           -3.48841245658046        2.15951551074920        1.45079482951983
H           -4.71725882244951        4.27194027135343        1.62873025727247
H           -8.95032116455989        4.03078322167821        0.48225857419072
H          -10.17806610493146        6.15191716413429        0.64796558046066
H           -8.95376993015905        8.29441173293199        0.67307427186081
H           -6.49078291004481        8.29906211741729        0.51913065251492
H           -5.26225071885171        6.18039217757166        0.32997235237425
H           -7.66760307412085        2.78536864971559       -1.07855799901730
H           -6.43999652555318        0.67188833401157       -1.25677510934679
H           -2.61936863016523        1.88482924580677       -1.14698972227050
H           -0.17084120279274        1.89571000016132       -1.15278323876199
H            1.64870633566933        2.19389193671408        0.32380549724138
H            4.08748136165603        2.22805488630308        0.33502020235583
H            6.08371777231539        2.16147127958355       -0.58631979013674
H            7.52664146626252        3.23848348280856       -1.90991813257396
H            9.11033652763735        5.06160194713396       -2.32916452191469
H           11.34165632310334        5.03632797061150       -1.28131826244040
H           11.98786760701914        3.16306111705748        0.19034936782363
H           10.38365596124763        1.32600201547847        0.61893748291380
H           10.25889815951137       -1.74085476689816        0.15086413646915
H           11.31553631528372       -3.91156970718605        0.71201399746723
H            9.91922323765167       -5.79297012705995        1.47911013446579
H            7.47903146071771       -5.51250909535244        1.68925672125268
H            6.43562573589774       -3.33515407649982        1.12936290265079
H            4.16109345786682       -1.98381586402838       -0.35028121375838
H            1.69475387210933       -2.02066175454123       -0.37383134596244
H           -0.14797643282697       -1.74877474923207        1.07600510049176
H           -2.59672333084530       -1.75918554280989        1.08536858415098
H           -6.42178037098802       -0.53624178156006        1.25587832862062
H           -7.65629510208898       -2.64754081647289        1.10728061375984
H           -8.96465406758389       -3.89650783319643       -0.42592376683616
H          -10.20157394748973       -6.01458031788844       -0.55767526462920

          :  Hamiltonian                  GFN2-xTB          :
         :: gradient norm              0.000035893443 Eh/a0 ::
         :: HOMO-LUMO gap              1.983978862915 eV    ::
         :: SCC energy              -141.632113137955 Eh    ::
         :: -> dispersion             -0.119483155309 Eh    ::
         :: repulsion energy           2.651953976708 Eh    ::

    * Orbital Energies and Occupations

         #    Occupation            Energy/Eh            Energy/eV
      -------------------------------------------------------------
         1        2.0000           -0.6672330             -18.1563
       ...           ...                  ...                  ...
       118        2.0000           -0.4071815             -11.0800
       119        2.0000           -0.4065806             -11.0636
       120        2.0000           -0.4034777             -10.9792
       121        2.0000           -0.4030616             -10.9679
       122        2.0000           -0.4018289             -10.9343
       123        2.0000           -0.4011929             -10.9170
       124        2.0000           -0.3998288             -10.8799
       125        2.0000           -0.3915992             -10.6560
       126        2.0000           -0.3894994             -10.5988
       127        2.0000           -0.3872475             -10.5375
       128        2.0000           -0.3854886             -10.4897
       129        2.0000           -0.3536531              -9.6234
       130        2.0000           -0.3483239              -9.4784 (HOMO)
       131                         -0.2754141              -7.4944 (LUMO)
       132                         -0.2661954              -7.2435
       133                         -0.2496632              -6.7937
       134                         -0.2472747              -6.7287
       135                         -0.2355825              -6.4105
       136                         -0.2286687              -6.2224
       137                         -0.2255108              -6.1365
       138                         -0.2239888              -6.0950
       139                         -0.2231741              -6.0729
       140                         -0.2226930              -6.0598
       141                         -0.2213628              -6.0236
       ...                                ...                  ...
       257                          0.6999315              19.0461
      -------------------------------------------------------------
                  HL-Gap            0.0729099 Eh            1.9840 eV

     #   Z          covCN         q      C6AA      α(0)
     1   6 C        2.920    -0.032    28.788     8.799
     2   6 C        2.918    -0.030    28.742     8.792
     3   6 C        2.925    -0.035    28.859     8.810
     4   6 C        2.976     0.010    27.782     8.646
     5   6 C        2.976     0.002    27.979     8.676
     6   6 C        2.924    -0.034    28.851     8.809
     7   6 C        2.920    -0.048    29.198     8.861
     8   6 C        2.925     0.063    26.598     8.458
     9   7 N        2.752    -0.071    22.623     7.064
    10   6 C        2.925     0.063    26.596     8.457
    11   6 C        2.920    -0.048    29.196     8.861
    12   6 C        2.924    -0.034    28.852     8.809
    13   6 C        2.976     0.002    27.979     8.677
    14   6 C        2.976     0.010    27.782     8.646
    15   6 C        2.925    -0.034    28.859     8.810
    16   6 C        2.918    -0.030    28.742     8.792
    17   6 C        2.920    -0.032    28.788     8.799
    18   6 C        2.918    -0.030    28.743     8.792
    19   6 C        2.925    -0.035    28.860     8.810
    20   6 C        2.924    -0.034    28.850     8.808
    21   6 C        2.920    -0.048    29.193     8.860
    22   6 C        2.924     0.064    26.569     8.453
    23   6 C        2.920    -0.049    29.207     8.862
    24   6 C        2.924    -0.034    28.842     8.807
    25   6 C        2.976     0.001    27.997     8.679
    26   6 C        2.976     0.013    27.712     8.635
    27   6 C        2.924    -0.035    28.879     8.813
    28   6 C        2.921    -0.032    28.803     8.801
    29   6 C        2.980     0.001    28.001     8.680
    30   6 C        2.968     0.110    25.578     8.296
    31   6 C        2.912    -0.066    29.653     8.929
    32   6 C        2.969     0.109    25.582     8.296
    33   6 C        2.980     0.005    27.912     8.666
    34   6 C        2.923    -0.031    28.776     8.797
    35   6 C        2.919    -0.029    28.725     8.789
    36   6 C        2.920    -0.027    28.675     8.781
    37   6 C        2.918    -0.028    28.692     8.784
    38   6 C        2.926    -0.024    28.607     8.771
    39   7 N        1.850    -0.272    27.919     7.831
    40   6 C        2.946     0.181    24.121     8.055
    41   6 C        2.985     0.002    27.979     8.677
    42   6 C        2.924    -0.027    28.671     8.781
    43   6 C        2.918    -0.029    28.719     8.788
    44   6 C        2.920    -0.027    28.666     8.780
    45   6 C        2.918    -0.029    28.721     8.788
    46   6 C        2.924    -0.027    28.670     8.781
    47   7 N        1.850    -0.272    27.912     7.830
    48   6 C        2.924    -0.025    28.638     8.776
    49   6 C        2.923    -0.034    28.848     8.808
    50   6 C        2.924    -0.034    28.837     8.806
    51   6 C        2.920    -0.048    29.203     8.862
    52   6 C        2.920    -0.048    29.196     8.861
    53   6 C        2.924    -0.034    28.850     8.808
    54   6 C        2.925    -0.035    28.860     8.810
    55   6 C        2.918    -0.030    28.743     8.792
    56   1 H        0.926     0.029     2.606     2.525
    57   1 H        0.926     0.029     2.603     2.523
    58   1 H        0.926     0.030     2.584     2.514
    59   1 H        0.926     0.034     2.527     2.486
    60   1 H        0.926     0.032     2.555     2.500
    61   1 H        0.926     0.032     2.557     2.501
    62   1 H        0.926     0.034     2.530     2.487
    63   1 H        0.926     0.030     2.585     2.514
    64   1 H        0.926     0.029     2.604     2.524
    65   1 H        0.926     0.029     2.606     2.525
    66   1 H        0.926     0.029     2.606     2.524
    67   1 H        0.926     0.030     2.588     2.516
    68   1 H        0.926     0.034     2.528     2.487
    69   1 H        0.926     0.032     2.555     2.500
    70   1 H        0.926     0.033     2.550     2.497
    71   1 H        0.926     0.034     2.534     2.489
    72   1 H        0.926     0.033     2.545     2.495
    73   1 H        0.926     0.031     2.569     2.507
    74   1 H        0.926     0.032     2.564     2.504
    75   1 H        0.926     0.032     2.561     2.503
    76   1 H        0.926     0.032     2.556     2.500
    77   1 H        0.926     0.033     2.543     2.494
    78   1 H        0.926     0.034     2.524     2.485
    79   1 H        0.926     0.053     2.288     2.366
    80   1 H        0.926     0.053     2.277     2.360
    81   1 H        0.926     0.033     2.546     2.495
    82   1 H        0.926     0.032     2.554     2.499
    83   1 H        0.926     0.033     2.547     2.496
    84   1 H        0.926     0.053     2.282     2.362
    85   1 H        0.926     0.053     2.282     2.363
    86   1 H        0.926     0.035     2.514     2.480
    87   1 H        0.926     0.035     2.512     2.478
    88   1 H        0.926     0.033     2.543     2.494
    89   1 H        0.926     0.032     2.558     2.501
    90   1 H        0.926     0.034     2.529     2.487
    91   1 H        0.926     0.030     2.587     2.515
    92   1 H        0.926     0.029     2.606     2.524

molecular dipole:
                 x           y           z       tot (Debye)
 q only:       -0.368       0.144      -0.032
   full:       -0.546       0.542      -0.135       1.984

 projected vibrational frequencies (cm⁻¹)
eigval :        0.00     0.00     0.00     0.00     0.00     0.00
eigval :        5.33     9.03    10.13    17.00    21.97    26.06
eigval :       27.89    31.57    32.89    36.00    47.36    51.63
eigval :       54.53    62.96    66.98    75.94    81.49    87.29
eigval :       93.90    95.48    99.08   110.32   112.07   128.50
eigval :      152.67   175.19   189.16   197.77   201.98   206.68
eigval :      221.97   237.62   247.89   263.49   270.63   288.08
eigval :      289.27   327.13   342.33   353.23   359.84   366.63
eigval :      368.00   369.79   371.34   371.54   379.77   383.04
eigval :      383.68   384.07   391.18   410.14   426.24   429.61
eigval :      430.63   437.94   454.52   467.92   485.66   486.81
eigval :      496.54   530.37   535.48   537.20   550.73   585.56
eigval :      586.26   587.29   588.96   588.99   592.82   599.62
eigval :      605.00   609.68   610.18   611.21   618.22   624.59
eigval :      635.51   660.05   664.68   665.67   667.23   673.43
eigval :      678.51   685.21   687.62   706.44   733.98   737.44
eigval :      738.53   756.96   757.29   764.36   778.20   779.90
eigval :      805.64   818.87   820.93   827.33   833.33   842.55
eigval :      850.17   867.44   869.34   870.34   873.52   875.66
eigval :      878.36   878.70   879.61   899.85   899.90   904.66
eigval :      910.40   913.65   917.22   917.95   918.84   919.66
eigval :      921.46   925.44   925.98   927.13   928.90   931.47
eigval :      931.81   931.86   932.16   932.20   932.62   933.00
eigval :      933.40   964.40   968.83   972.42   988.72   991.03
eigval :     1006.49  1019.60  1022.19  1026.92  1076.09  1076.23
eigval :     1076.80  1079.33  1080.88  1088.43  1088.51  1090.12
eigval :     1105.57  1111.48  1122.20  1122.30  1125.79  1139.23
eigval :     1143.13  1144.25  1147.55  1170.88  1181.10  1181.70
eigval :     1182.76  1182.78  1187.24  1194.43  1194.79  1196.83
eigval :     1200.79  1202.32  1204.93  1206.81  1219.23  1225.18
eigval :     1251.49  1269.02  1270.53  1271.53  1272.92  1274.82
eigval :     1279.66  1282.41  1282.47  1285.64  1287.79  1302.21
eigval :     1312.07  1319.35  1319.46  1322.40  1323.49  1325.94
eigval :     1326.33  1328.26  1334.83  1336.23  1363.90  1367.62
eigval :     1394.50  1401.53  1405.83  1410.86  1419.93  1432.36
eigval :     1434.98  1436.37  1439.07  1465.15  1466.78  1471.16
eigval :     1476.22  1478.91  1501.44  1502.17  1505.08  1518.83
eigval :     1532.84  1550.06  1557.70  1560.82  1565.89  1582.45
eigval :     1582.58  1583.75  1585.70  1587.74  1591.09  1594.25
eigval :     1596.56  1597.72  1603.60  1603.93  1605.88  3070.17
eigval :     3070.22  3070.67  3071.38  3071.44  3072.30  3073.83
eigval :     3076.69  3076.75  3076.84  3077.18  3077.47  3078.20
eigval :     3078.44  3079.33  3080.66  3080.83  3081.72  3083.85
eigval :     3083.94  3084.07  3086.36  3086.73  3088.85  3089.53
eigval :     3089.89  3090.50  3090.65  3091.28  3091.70  3091.83
eigval :     3092.19  3102.98  3103.07  3104.93  3105.51  3110.07

   temp. (K)  partition function   enthalpy   heat capacity  entropy
                                   cal/mol     cal/K/mol   cal/K/mol   J/K/mol
 298.15  VIB  0.616E+23            26535.052    162.772    169.181
         ROT  0.279E+09              888.752      2.981     41.627
         INT  0.172E+32            27423.804    165.752    210.808
         TR   0.181E+29             1481.254      4.968     45.514
         TOT                       28905.0581   170.7206   256.3217  1072.4501

       T/K    H(0)-H(T)+PV         H(T)/Eh          T*S/Eh         G(T)/Eh
   ------------------------------------------------------------------------
    298.15    0.460631E-01    0.761445E+00    0.121787E+00    0.639658E+00
   ------------------------------------------------------------------------

         :::::::::::::::::::::::::::::::::::::::::::::::::::::
         ::                  THERMODYNAMIC                  ::
         :::::::::::::::::::::::::::::::::::::::::::::::::::::
         :: total free energy        -138.340501058541 Eh   ::
         ::.................................................::
         :: total energy             -138.980159161246 Eh   ::
         :: zero point energy           0.715381687061 Eh   ::
         :: G(RRHO) w/o ZPVE           -0.075723584356 Eh   ::
         :: G(RRHO) contrib.            0.639658102705 Eh   ::
         :::::::::::::::::::::::::::::::::::::::::::::::::::::

           -------------------------------------------------
          | TOTAL ENERGY             -138.980159161246 Eh   |
          | TOTAL ENTHALPY           -138.218714332123 Eh   |
          | TOTAL FREE ENERGY        -138.340501058541 Eh   |
          | GRADIENT NORM               0.000035894683 Eh/α |
          | HOMO-LUMO GAP               1.983978390155 eV   |
           -------------------------------------------------

 * finished run on 2025/07/17 at 05:42:07.528
