   * xtb version 6.7.1 (edcfbbe) compiled by 'albert@albert-system' on 2024-07-22

   ID    Z sym.   atoms
    1    6 C      1-8, 10-38, 40-46, 48-55
    2    7 N      9, 39, 47
    3    1 H      56-92

          program call               : xtb data2507/gas/BBA-Pyr/BBA-Pyr.xyz --gfn 2 --ohess vtight --parallel 40 --molden --ceasefiles --namespace data2507/gas/BBA-Pyr/BBA-Pyr_gas_S0_preOpt
          :  Hamiltonian                  GFN2-xTB          :
 * total energy  :  -138.9562832 Eh     change       -0.1457636E-08 Eh
 * total energy  :  -138.9686159 Eh     change       -0.1233266E-01 Eh
 * total energy  :  -138.9730926 Eh     change       -0.4476652E-02 Eh
 * total energy  :  -138.9754621 Eh     change       -0.2369547E-02 Eh
 * total energy  :  -138.9771149 Eh     change       -0.1652760E-02 Eh
 * total energy  :  -138.9780017 Eh     change       -0.8868088E-03 Eh
 * total energy  :  -138.9784079 Eh     change       -0.4062013E-03 Eh
 * total energy  :  -138.9786111 Eh     change       -0.2032171E-03 Eh
 * total energy  :  -138.9787927 Eh     change       -0.1815807E-03 Eh
 * total energy  :  -138.9789866 Eh     change       -0.1939517E-03 Eh
 * total energy  :  -138.9797752 Eh     change       -0.6774297E-06 Eh
 * total energy  :  -138.9797758 Eh     change       -0.6003537E-06 Eh
 * total energy  :  -138.9797764 Eh     change       -0.6655401E-06 Eh
 * total energy  :  -138.9797772 Eh     change       -0.7886677E-06 Eh
 * total energy  :  -138.9797782 Eh     change       -0.9319691E-06 Eh
 * total energy  :  -138.9797792 Eh     change       -0.1045078E-05 Eh
 * total energy  :  -138.9797803 Eh     change       -0.1052122E-05 Eh
 * total energy  :  -138.9797813 Eh     change       -0.9992148E-06 Eh
 * total energy  :  -138.9797813 Eh     change       -0.5110650E-08 Eh
   *** GEOMETRY OPTIMIZATION CONVERGED AFTER 68 ITERATIONS ***

 final structure:
================
92
 xtb: 6.7.1 (edcfbbe)
C           -8.38094321831569       -7.24528647295891        0.47713339853955
C           -8.22423407326577       -6.60194787125284       -0.73914443531576
C           -7.51116413615489       -5.42027569502105       -0.81430035605380
C           -6.93722680811898       -4.86289687762413        0.32651281181600
C           -6.17645861082068       -3.60861156149252        0.24608624877332
C           -6.61602300208092       -2.55498917044084       -0.55362336825010
C           -5.90330488412671       -1.37749352149201       -0.63513233748379
C           -4.71984629696835       -1.21648133841764        0.08539741272669
N           -3.99384849627772       -0.02320196336225        0.00232536705433
C           -4.67336885654528        1.19732444934845       -0.08376382050378
C           -4.18846833376241        2.22666465537975       -0.89051117323078
C           -4.86064637819532        3.42804081167798       -0.96902302129008
C           -6.03480445996711        3.64429027188739       -0.24968139545929
C           -6.74521726807330        4.92760892974082       -0.33267037497758
C           -7.29745956656952        5.50915137711094        0.80677358688142
C           -7.96260302000970        6.71830160166325        0.72919376319257
C           -8.09231454587502        7.36558735113155       -0.48816543142796
C           -7.54975771723235        6.79601648277592       -1.62789581733055
C           -6.87998417958598        5.58931746762867       -1.55142154908998
C           -6.51585551890468        2.61021908329944        0.55165501137111
C           -5.84989363310400        1.40577863041908        0.63577951024697
C           -2.59828145556666       -0.04879146307129        0.00435055944335
C           -1.90362666847544       -1.09203441382373       -0.61013234227073
C           -0.52573017165424       -1.11663869517202       -0.59905052639825
C            0.20824999389377       -0.09634354388765        0.00486416061891
C            1.67437320068763       -0.11923387713877        0.00382521410230
C            2.36982725604740       -1.30953009362175        0.21333712661511
C            3.74913196462672       -1.33544853954174        0.21288071369325
C            4.47898198942548       -0.16791927686945       -0.00276171858097
C            5.94527675871210       -0.15158519885141       -0.01462422230079
C            6.71490955906701       -1.28561721643201       -0.27630711220216
C            8.10059185864266       -1.13585813420642       -0.25685182655342
C            9.02200018817267       -2.25289145311247       -0.50490141566253
C           10.29426407985010       -2.21909166401070        0.06297374411082
C           11.18135089056009       -3.25729044322965       -0.14404343591385
C           10.81381567175628       -4.33891756576823       -0.92828959410652
C            9.55645852525586       -4.37390152407158       -1.50812955041674
C            8.66314224890840       -3.33974344710032       -1.29817559285742
N            8.65755232860061        0.04275460673910        0.01043502224128
C            7.85190636608237        1.07515970394987        0.23233721010757
C            8.47643560732133        2.37315615696565        0.50668752178487
C            9.85586033933752        2.52720684179824        0.38721122458001
C           10.44158239009714        3.75163752556344        0.64471443564315
C            9.65948217994684        4.83149410986281        1.02326012558790
C            8.28665149557754        4.68380741635362        1.14391891099141
C            7.69517321366766        3.46198071721138        0.88737532626637
N            6.52570958225778        1.02270318983598        0.22499551465861
C            3.78545705502796        1.02559817100201       -0.20417749822269
C            2.40786795322512        1.04964996547092       -0.20122089981573
C           -0.49089773612676        0.94767890071143        0.60975352922980
C           -1.86866846878440        0.96953449628358        0.62030354526463
C           -4.27614811149349       -2.26570183488202        0.89033657299414
C           -4.99508347824434       -3.43988705915647        0.96632504518983
C           -7.09951086940413       -5.52049126858009        1.54413385134214
C           -7.81709597144525       -6.69954484787590        1.61818919936611
H           -8.93982584008916       -8.16761302854803        0.53546150284967
H           -8.65817000320749       -7.02495284104442       -1.63373523810367
H           -7.37821911511706       -4.93270157917576       -1.76929087298054
H           -7.53668103669304       -2.65583654238225       -1.10934920000025
H           -6.25749862843328       -0.57156712509190       -1.26130897368363
H           -3.28082343965704        2.07525554075328       -1.45648675784431
H           -4.46163187944612        4.21818886773587       -1.58797027198569
H           -7.18485965281657        5.01817362541491        1.76262940262982
H           -8.38002486344073        7.15968985827656        1.62275497571280
H           -8.61365260388072        8.30952539750887       -0.54835253824184
H           -7.65121576089014        7.29424111064794       -2.58130608862807
H           -6.47405264786569        5.14237585045502       -2.44744725631041
H           -7.43206885045362        2.74818145540277        1.10674624386497
H           -6.23564192574188        0.61550327589509        1.26328077240662
H           -2.45513724518435       -1.87954105726796       -1.10261743308380
H           -0.00711533542116       -1.92288490015062       -1.09680582101200
H            1.81934336102838       -2.21954260886753        0.40364299080337
H            4.25804851044024       -2.26786538823061        0.40836340014570
H            6.25967695935665       -2.23943204256212       -0.48214687450784
H           10.56503170004360       -1.36878500918681        0.66961230101299
H           12.16310574654011       -3.22495424610938        0.30539830198885
H           11.50706934834249       -5.15088754644083       -1.09196825438084
H            9.27154742743333       -5.21058259899180       -2.12949042139521
H            7.69375089242701       -3.36882735179491       -1.77386581889653
H           10.44888804657468        1.67723099564186        0.08761997252345
H           11.51155364105247        3.86817421724387        0.54990640318093
H           10.11984740911884        5.78810773606639        1.22418835787389
H            7.67801983867048        5.52605668664280        1.43997639592981
H            6.62874332007170        3.32839439992355        0.98024984442772
H            4.35383992074116        1.92750676606298       -0.37043933151242
H            1.88725482467274        1.97902256616204       -0.38064651432982
H            0.05484261092781        1.73529993632853        1.10803244332506
H           -2.39337853083040        1.77512253431973        1.11275222848456
H           -3.36376914619440       -2.15092657774870        1.45733124119754
H           -4.62792388825591       -4.24616973795220        1.58423244437076
H           -6.67695926411688       -5.09138265427527        2.44119462298431
H           -7.93949966131293       -7.19461286602770        2.57078697247786

          :  Hamiltonian                  GFN2-xTB          :
         :: gradient norm              0.000051545019 Eh/a0 ::
         :: HOMO-LUMO gap              1.983453497681 eV    ::
         :: SCC energy              -141.631522390607 Eh    ::
         :: -> dispersion             -0.119337836354 Eh    ::
         :: repulsion energy           2.651741120549 Eh    ::

    * Orbital Energies and Occupations

         #    Occupation            Energy/Eh            Energy/eV
      -------------------------------------------------------------
         1        2.0000           -0.6669701             -18.1492
       ...           ...                  ...                  ...
       118        2.0000           -0.4064559             -11.0602
       119        2.0000           -0.4062608             -11.0549
       120        2.0000           -0.4034895             -10.9795
       121        2.0000           -0.4031961             -10.9715
       122        2.0000           -0.4016666             -10.9299
       123        2.0000           -0.4010152             -10.9122
       124        2.0000           -0.3985783             -10.8459
       125        2.0000           -0.3912917             -10.6476
       126        2.0000           -0.3892410             -10.5918
       127        2.0000           -0.3869009             -10.5281
       128        2.0000           -0.3852691             -10.4837
       129        2.0000           -0.3534224              -9.6171
       130        2.0000           -0.3481050              -9.4724 (HOMO)
       131                         -0.2752144              -7.4890 (LUMO)
       132                         -0.2659887              -7.2379
       133                         -0.2492383              -6.7821
       134                         -0.2468929              -6.7183
       135                         -0.2357196              -6.4143
       136                         -0.2284590              -6.2167
       137                         -0.2253448              -6.1319
       138                         -0.2236599              -6.0861
       139                         -0.2228720              -6.0647
       140                         -0.2227159              -6.0604
       141                         -0.2213907              -6.0243
       ...                                ...                  ...
       257                          0.7005067              19.0618
      -------------------------------------------------------------
                  HL-Gap            0.0728906 Eh            1.9835 eV

     #   Z          covCN         q      C6AA      α(0)
     1   6 C        2.920    -0.032    28.787     8.799
     2   6 C        2.918    -0.030    28.742     8.792
     3   6 C        2.925    -0.034    28.858     8.810
     4   6 C        2.976     0.010    27.780     8.646
     5   6 C        2.976     0.002    27.978     8.676
     6   6 C        2.924    -0.034    28.849     8.808
     7   6 C        2.920    -0.048    29.194     8.861
     8   6 C        2.925     0.063    26.594     8.457
     9   7 N        2.752    -0.072    22.634     7.066
    10   6 C        2.925     0.063    26.596     8.457
    11   6 C        2.920    -0.048    29.194     8.861
    12   6 C        2.924    -0.034    28.851     8.809
    13   6 C        2.976     0.002    27.974     8.676
    14   6 C        2.976     0.010    27.780     8.646
    15   6 C        2.925    -0.034    28.857     8.810
    16   6 C        2.918    -0.030    28.741     8.791
    17   6 C        2.920    -0.032    28.786     8.798
    18   6 C        2.918    -0.030    28.742     8.791
    19   6 C        2.925    -0.034    28.858     8.810
    20   6 C        2.924    -0.034    28.849     8.808
    21   6 C        2.920    -0.048    29.192     8.860
    22   6 C        2.924     0.064    26.569     8.453
    23   6 C        2.920    -0.049    29.215     8.864
    24   6 C        2.924    -0.034    28.842     8.807
    25   6 C        2.976     0.001    28.002     8.680
    26   6 C        2.977     0.013    27.710     8.635
    27   6 C        2.924    -0.035    28.879     8.813
    28   6 C        2.921    -0.032    28.802     8.801
    29   6 C        2.980     0.001    28.004     8.681
    30   6 C        2.967     0.110    25.580     8.296
    31   6 C        2.912    -0.066    29.653     8.929
    32   6 C        2.969     0.109    25.583     8.296
    33   6 C        2.980     0.005    27.912     8.666
    34   6 C        2.926    -0.024    28.607     8.771
    35   6 C        2.918    -0.028    28.692     8.784
    36   6 C        2.920    -0.027    28.676     8.781
    37   6 C        2.919    -0.029    28.725     8.789
    38   6 C        2.923    -0.031    28.776     8.797
    39   7 N        1.850    -0.272    27.921     7.831
    40   6 C        2.946     0.181    24.122     8.055
    41   6 C        2.985     0.002    27.980     8.677
    42   6 C        2.924    -0.027    28.671     8.781
    43   6 C        2.918    -0.029    28.720     8.788
    44   6 C        2.920    -0.027    28.667     8.780
    45   6 C        2.918    -0.029    28.721     8.788
    46   6 C        2.924    -0.027    28.670     8.781
    47   7 N        1.850    -0.272    27.913     7.830
    48   6 C        2.924    -0.025    28.640     8.776
    49   6 C        2.923    -0.034    28.849     8.808
    50   6 C        2.924    -0.034    28.838     8.807
    51   6 C        2.920    -0.049    29.210     8.863
    52   6 C        2.920    -0.048    29.198     8.861
    53   6 C        2.924    -0.034    28.853     8.809
    54   6 C        2.925    -0.034    28.858     8.810
    55   6 C        2.918    -0.030    28.743     8.792
    56   1 H        0.926     0.029     2.605     2.524
    57   1 H        0.926     0.029     2.604     2.523
    58   1 H        0.926     0.030     2.585     2.514
    59   1 H        0.926     0.034     2.529     2.487
    60   1 H        0.926     0.032     2.557     2.500
    61   1 H        0.926     0.032     2.553     2.499
    62   1 H        0.926     0.034     2.527     2.486
    63   1 H        0.926     0.030     2.584     2.514
    64   1 H        0.926     0.029     2.603     2.523
    65   1 H        0.926     0.029     2.605     2.524
    66   1 H        0.926     0.029     2.603     2.523
    67   1 H        0.926     0.030     2.584     2.514
    68   1 H        0.926     0.034     2.528     2.486
    69   1 H        0.926     0.032     2.557     2.500
    70   1 H        0.926     0.032     2.551     2.498
    71   1 H        0.926     0.034     2.536     2.490
    72   1 H        0.926     0.033     2.546     2.495
    73   1 H        0.926     0.031     2.570     2.507
    74   1 H        0.926     0.032     2.565     2.504
    75   1 H        0.926     0.052     2.290     2.366
    76   1 H        0.926     0.034     2.525     2.485
    77   1 H        0.926     0.033     2.543     2.494
    78   1 H        0.926     0.032     2.556     2.500
    79   1 H        0.926     0.032     2.561     2.503
    80   1 H        0.926     0.053     2.277     2.360
    81   1 H        0.926     0.033     2.546     2.495
    82   1 H        0.926     0.032     2.555     2.499
    83   1 H        0.926     0.033     2.547     2.496
    84   1 H        0.926     0.053     2.282     2.362
    85   1 H        0.926     0.053     2.278     2.360
    86   1 H        0.926     0.035     2.515     2.480
    87   1 H        0.926     0.035     2.514     2.480
    88   1 H        0.926     0.033     2.546     2.495
    89   1 H        0.926     0.032     2.555     2.500
    90   1 H        0.926     0.034     2.531     2.488
    91   1 H        0.926     0.030     2.585     2.514
    92   1 H        0.926     0.029     2.604     2.523

molecular dipole:
                 x           y           z       tot (Debye)
 q only:       -0.403      -0.133      -0.024
   full:       -0.584      -0.535      -0.112       2.032

 projected vibrational frequencies (cm⁻¹)
eigval :       -0.00    -0.00    -0.00     0.00     0.00     0.00
eigval :        5.26     9.11    10.09    17.12    21.88    25.70
eigval :       27.46    31.41    32.36    35.99    46.94    51.58
eigval :       54.84    64.20    66.47    77.78    85.30    87.33
eigval :       91.42    94.26   100.16   111.33   116.23   123.22
eigval :      153.53   174.96   184.96   184.97   202.33   220.24
eigval :      223.83   236.46   260.36   261.63   270.22   275.06
eigval :      302.44   312.94   329.73   356.83   366.44   367.43
eigval :      368.50   370.18   370.55   371.05   372.18   381.41
eigval :      382.66   389.58   395.22   403.78   414.78   424.80
eigval :      435.66   449.34   457.15   463.50   489.77   492.39
eigval :      496.33   530.40   534.27   535.96   550.42   584.31
eigval :      584.86   587.25   588.09   590.43   595.75   599.75
eigval :      605.09   609.41   610.26   611.31   618.20   624.36
eigval :      635.59   660.40   664.63   665.98   666.80   673.40
eigval :      678.46   684.58   686.83   706.37   733.37   736.99
eigval :      738.25   756.55   757.48   764.27   778.22   779.87
eigval :      805.87   819.61   821.59   827.23   833.07   842.24
eigval :      850.12   867.55   870.04   870.91   873.69   875.67
eigval :      878.64   879.14   879.53   900.55   900.66   904.61
eigval :      910.34   913.70   916.49   917.78   918.26   920.08
eigval :      921.49   925.51   926.25   927.44   928.88   931.34
eigval :      931.63   931.89   932.19   932.21   932.93   932.98
eigval :      933.39   964.46   968.86   972.57   988.72   990.99
eigval :     1006.56  1019.63  1022.09  1026.90  1076.15  1076.24
eigval :     1076.90  1079.39  1081.12  1088.44  1088.54  1090.08
eigval :     1105.51  1111.44  1122.03  1122.07  1125.64  1139.49
eigval :     1143.16  1144.27  1147.28  1170.73  1181.09  1181.70
eigval :     1182.76  1182.76  1187.09  1194.26  1194.90  1196.82
eigval :     1200.80  1202.32  1204.85  1206.53  1218.66  1225.01
eigval :     1251.67  1268.96  1270.47  1271.48  1272.85  1274.42
eigval :     1279.66  1282.31  1282.41  1284.98  1287.66  1302.13
eigval :     1312.09  1319.08  1319.15  1322.40  1323.48  1325.75
eigval :     1326.33  1328.30  1334.23  1336.14  1363.85  1367.52
eigval :     1394.51  1401.28  1405.75  1410.47  1419.91  1432.35
eigval :     1434.84  1436.23  1439.04  1465.17  1466.76  1471.12
eigval :     1476.16  1478.95  1501.29  1501.99  1504.98  1518.90
eigval :     1532.82  1550.26  1557.97  1561.23  1565.88  1582.63
eigval :     1582.75  1583.77  1585.80  1588.04  1592.57  1595.26
eigval :     1596.56  1597.75  1603.59  1603.89  1605.89  3070.23
eigval :     3070.29  3070.62  3071.40  3071.45  3072.34  3073.72
eigval :     3076.65  3076.81  3076.89  3077.29  3077.52  3078.25
eigval :     3078.58  3079.27  3080.69  3080.88  3081.57  3083.83
eigval :     3084.03  3084.14  3086.31  3086.68  3089.05  3089.64
eigval :     3090.02  3090.56  3090.74  3091.34  3091.66  3091.98
eigval :     3092.33  3102.99  3103.65  3105.04  3105.74  3110.32

   temp. (K)  partition function   enthalpy   heat capacity  entropy
                                   cal/mol     cal/K/mol   cal/K/mol   J/K/mol
 298.15  VIB  0.633E+23            26540.817    162.797    169.203
         ROT  0.280E+09              888.752      2.981     41.637
         INT  0.178E+32            27429.570    165.778    210.840
         TR   0.181E+29             1481.254      4.968     45.514
         TOT                       28910.8237   170.7461   256.3540  1072.5853

       T/K    H(0)-H(T)+PV         H(T)/Eh          T*S/Eh         G(T)/Eh
   ------------------------------------------------------------------------
    298.15    0.460723E-01    0.761443E+00    0.121802E+00    0.639641E+00
   ------------------------------------------------------------------------

         :::::::::::::::::::::::::::::::::::::::::::::::::::::
         ::                  THERMODYNAMIC                  ::
         :::::::::::::::::::::::::::::::::::::::::::::::::::::
         :: total free energy        -138.340140605006 Eh   ::
         ::.................................................::
         :: total energy             -138.979781270061 Eh   ::
         :: zero point energy           0.715370415367 Eh   ::
         :: G(RRHO) w/o ZPVE           -0.075729750313 Eh   ::
         :: G(RRHO) contrib.            0.639640665055 Eh   ::
         :::::::::::::::::::::::::::::::::::::::::::::::::::::

           -------------------------------------------------
          | TOTAL ENERGY             -138.979781270061 Eh   |
          | TOTAL ENTHALPY           -138.218338524439 Eh   |
          | TOTAL FREE ENERGY        -138.340140605006 Eh   |
          | GRADIENT NORM               0.000051542670 Eh/α |
          | HOMO-LUMO GAP               1.983453080196 eV   |
           -------------------------------------------------

 * finished run on 2025/07/17 at 05:33:32.881
