   * xtb version 6.7.1 (edcfbbe) compiled by 'albert@albert-system' on 2024-07-22

   ID    Z sym.   atoms
    1    6 C      1-8, 10-38, 40-46, 48-55
    2    7 N      9, 39, 47
    3    1 H      56-92

          program call               : xtb data2507/gas/BBA-Pyr/BBA-Pyr_gas_T1_crest.xyz --gfn 2 --spinpol --tblite --uhf 2 --ohess vtight --parallel 40 --molden --ceasefiles --namespace data2507/gas/BBA-Pyr/BBA-Pyr_gas_T1_finalOpt
 * total energy  :  -138.9063460 Eh     change       -0.1007513E-07 Eh
 * total energy  :  -138.9064807 Eh     change       -0.1347668E-03 Eh
 * total energy  :  -138.9065761 Eh     change       -0.9538416E-04 Eh
 * total energy  :  -138.9065871 Eh     change       -0.1093964E-04 Eh
 * total energy  :  -138.9066100 Eh     change       -0.2298148E-04 Eh
 * total energy  :  -138.9066185 Eh     change       -0.8476623E-05 Eh
 * total energy  :  -138.9066405 Eh     change       -0.2194145E-04 Eh
 * total energy  :  -138.9066490 Eh     change       -0.8557092E-05 Eh
 * total energy  :  -138.9066556 Eh     change       -0.6552482E-05 Eh
 * total energy  :  -138.9066657 Eh     change       -0.1012532E-04 Eh
 * total energy  :  -138.9067319 Eh     change       -0.9735443E-06 Eh
 * total energy  :  -138.9067327 Eh     change       -0.7439189E-06 Eh
 * total energy  :  -138.9067334 Eh     change       -0.7069623E-06 Eh
 * total energy  :  -138.9067342 Eh     change       -0.8357455E-06 Eh
 * total energy  :  -138.9067351 Eh     change       -0.8703017E-06 Eh
 * total energy  :  -138.9067366 Eh     change       -0.1495274E-05 Eh
 * total energy  :  -138.9067383 Eh     change       -0.1714035E-05 Eh
 * total energy  :  -138.9067395 Eh     change       -0.1175723E-05 Eh
 * total energy  :  -138.9067395 Eh     change       -0.3996249E-07 Eh
   *** GEOMETRY OPTIMIZATION CONVERGED AFTER 44 ITERATIONS ***

 final structure:
================
92
 xtb: 6.7.1 (edcfbbe)
C           -8.22902836571850       -7.39276103647534       -0.49461040335344
C           -6.84803756552297       -7.35287509871310       -0.39717920676373
C           -6.19064127358291       -6.13956769265182       -0.32157012307777
C           -6.90483650932174       -4.94262842407596       -0.33619327435702
C           -6.20855071651135       -3.65358557753487       -0.25235772204703
C           -5.00863029905167       -3.44072976123202       -0.93202344983541
C           -4.35488723661128       -2.23031992768634       -0.86085521557675
C           -4.87914927011238       -1.18726147912851       -0.09350583677236
N           -4.21371149835742        0.03490816921196       -0.01234099305816
C           -4.93075767665525        1.22728429941564        0.07576179416208
C           -4.44651065477934        2.29014395805570        0.84220604302745
C           -5.14986293656125        3.47204286691759        0.91895258464312
C           -6.36123558699343        3.63539457881916        0.24597545965131
C           -7.10916907429622        4.89491784139875        0.33371892642146
C           -8.49909281512992        4.89134258807631        0.43846075996823
C           -9.20215178402902        6.07823044361281        0.52210371540977
C           -8.53082668177013        7.28937332663484        0.49681160715122
C           -7.14998577298499        7.30555312492476        0.39080420999573
C           -6.44429730411820        6.11983680459857        0.31296071491408
C           -6.84115444692027        2.56859832568540       -0.51458344102818
C           -6.13970578665130        1.38639866602264       -0.60587640717071
C           -2.81503931141116        0.06638955879970       -0.01815379873068
C           -2.12786631478227        1.07384033413025       -0.70174103193249
C           -0.75405542603773        1.10403037055537       -0.70280751317166
C            0.00271387670324        0.13405744510276       -0.02614108832153
C            1.45207369158910        0.16974177056706       -0.02820415692176
C            2.15488004544315        1.38227913330387       -0.13600919639943
C            3.52397498912414        1.42557394068179       -0.13343488101179
C            4.29142683549668        0.24714957292640       -0.03330236558461
C            5.71951633284700        0.23061153434850       -0.03395503869780
C            6.53418201365287        1.36090874842517       -0.23440352355648
C            7.90700311518534        1.20066126521888       -0.21859872048401
C            8.85872687293136        2.27876407595947       -0.41282874727229
C            8.48696452729382        3.54941775072714       -0.86755430567774
C            9.43211905085505        4.54008559539882       -1.03573038450902
C           10.76883390274651        4.29544098788150       -0.75902950825931
C           11.15291626306461        3.03957483489074       -0.31320298855859
C           10.21473591103515        2.04478251488510       -0.14348878062829
N            8.42685443750783       -0.04029223367538        0.00591083189640
C            7.64014810383456       -1.08379357142175        0.19436175724446
C            8.24249212316441       -2.39441276476063        0.43651884099404
C            9.62394341314479       -2.55520501327975        0.36229742554171
C           10.19237716784643       -3.79247713174799        0.59542776061674
C            9.38951267110830       -4.87901498117445        0.90495351329279
C            8.01381626980172       -4.72536669876146        0.97966913563101
C            7.44086363273112       -3.49038790038098        0.74669033464672
N            6.33747570027462       -0.96750673643904        0.17015441370125
C            3.58342747906208       -0.97071777981957        0.07327627561382
C            2.21641816039970       -1.00582931329924        0.07986700154286
C           -0.70279794737931       -0.87203582346066        0.65318093866193
C           -2.07648651141476       -0.90777468450194        0.66004815565594
C           -6.07620956672688       -1.39616946202710        0.59576346180516
C           -6.72803005196533       -2.60679878895526        0.51006436623899
C           -8.29443880695911       -4.99554066874999       -0.43200965066938
C           -8.94919743808498       -6.20988702071396       -0.51329364524896
H           -8.74165825769707       -8.34123996683786       -0.55579278439735
H           -6.28129861554553       -8.27243173731197       -0.37794636460592
H           -5.11470966135143       -6.11663033589644       -0.22716663511868
H           -4.60026049250603       -4.22672595358928       -1.54969253646910
H           -3.43806210681008       -2.07460020057688       -1.41006111028679
H           -3.52081540601772        2.17211768700237        1.38590806266501
H           -4.77132252869260        4.27369407653008        1.53550860568576
H           -9.02782641411279        3.94996840724409        0.47724464725815
H          -10.27882993561816        6.05927065912963        0.60948067046262
H           -9.08123381180085        8.21634106929950        0.55943228588752
H           -6.62125892260982        8.24735855073820        0.36638736957265
H           -5.36891703187836        6.14037820526391        0.21187581560991
H           -7.76190419225669        2.68137321125197       -1.06753873470464
H           -6.51337527036512        0.57952956314574       -1.21923194592934
H           -2.68885004714108        1.81906046213389       -1.24749667527545
H           -0.24951158837179        1.87214868150860       -1.26861033751059
H            1.60336696389076        2.31024177829036       -0.18418085066044
H            4.01240080390530        2.38617313402679       -0.19477375761767
H            6.09229723274018        2.32962289870742       -0.39100572490719
H            7.45647829467136        3.76374662715944       -1.10648143722375
H            9.12628340357474        5.51430805455301       -1.39012508106718
H           11.50346527470009        5.07544485690622       -0.89319230857652
H           12.19274823089098        2.83884575198308       -0.09753927627037
H           10.50767304386884        1.06712539355553        0.20798443204829
H           10.23498187875576       -1.69995869674493        0.11710199196132
H           11.26423505657132       -3.91348726839487        0.53635145549590
H            9.83571843890823       -5.84565019812936        1.08799780411793
H            7.38915301567503       -5.57295547163097        1.22148655283723
H            6.37177545503252       -3.35399773560410        0.80433470209605
H            4.15482374015195       -1.88443324351954        0.13791386243094
H            1.71511842780965       -1.96152943506130        0.13228156712457
H           -0.15854472520041       -1.61531068771907        1.21530460276561
H           -2.59791748238873       -1.67915177293249        1.20866275035532
H           -6.47983133715893       -0.60484348906669        1.21038371112288
H           -7.63992925247135       -2.75712651705950        1.06871569738332
H           -8.86134858708727       -4.07645790710991       -0.46577709039141
H          -10.02630286886115       -6.23457373986354       -0.59374939942253

 projected vibrational frequencies (cm⁻¹)
eigval :       -0.00    -0.00    -0.00     0.00     0.00     0.00
eigval :        5.18     8.36    10.92    17.35    19.07    22.79
eigval :       25.71    27.80    32.90    33.14    46.95    50.92
eigval :       54.78    62.68    70.29    74.07    81.64    86.33
eigval :       96.59    98.87   100.99   108.27   109.66   130.18
eigval :      160.64   167.54   188.56   199.50   199.61   206.61
eigval :      211.45   228.82   244.84   262.38   269.66   283.57
eigval :      287.60   326.79   345.92   347.45   356.11   366.51
eigval :      366.90   370.36   370.64   371.33   382.88   383.15
eigval :      384.12   385.57   391.86   403.15   409.76   419.28
eigval :      429.36   435.65   439.58   465.23   469.46   483.56
eigval :      496.31   515.50   534.52   535.82   538.58   550.81
eigval :      577.89   583.32   583.71   585.27   588.53   588.59
eigval :      589.72   589.99   601.29   606.05   608.43   609.29
eigval :      626.52   637.68   653.88   654.80   661.58   665.30
eigval :      665.71   666.01   684.10   686.57   686.74   728.73
eigval :      736.57   749.17   756.55   756.86   765.25   774.63
eigval :      791.59   808.75   816.79   819.89   819.95   822.77
eigval :      834.62   838.91   856.00   857.57   865.79   868.56
eigval :      875.08   877.13   877.63   882.65   900.48   900.59
eigval :      901.77   905.07   909.92   912.85   915.05   916.52
eigval :      917.53   919.37   920.83   923.17   923.36   925.23
eigval :      925.43   927.42   928.17   931.60   932.03   932.24
eigval :      932.27   932.36   963.67   971.64   975.93   979.98
eigval :      985.35  1000.50  1016.04  1017.21  1054.02  1063.18
eigval :     1073.29  1074.90  1075.46  1075.82  1077.61  1086.75
eigval :     1087.70  1087.77  1112.51  1122.21  1122.32  1124.21
eigval :     1139.45  1143.10  1144.46  1154.17  1167.25  1179.74
eigval :     1180.89  1181.25  1182.46  1182.49  1192.47  1193.14
eigval :     1198.42  1199.79  1201.56  1203.39  1212.77  1222.56
eigval :     1251.62  1267.10  1268.89  1271.02  1271.39  1277.32
eigval :     1281.97  1282.04  1284.86  1285.18  1287.61  1294.79
eigval :     1303.88  1312.87  1317.51  1319.48  1320.32  1322.21
eigval :     1326.23  1327.38  1328.38  1330.65  1333.91  1351.54
eigval :     1376.16  1397.45  1404.04  1411.28  1419.89  1432.26
eigval :     1433.64  1434.87  1435.55  1438.17  1450.56  1460.14
eigval :     1460.26  1461.20  1470.09  1477.99  1485.53  1496.08
eigval :     1496.73  1497.16  1519.77  1543.40  1545.65  1551.40
eigval :     1558.48  1577.44  1580.52  1580.60  1583.71  1584.32
eigval :     1589.52  1591.02  1594.99  1600.85  1601.81  3068.17
eigval :     3069.85  3070.62  3071.85  3072.12  3072.17  3073.25
eigval :     3073.31  3073.34  3075.09  3076.45  3078.61  3078.85
eigval :     3080.10  3081.08  3081.17  3082.68  3083.05  3085.32
eigval :     3085.55  3085.63  3087.04  3087.90  3090.10  3090.44
eigval :     3091.08  3091.91  3093.10  3093.17  3093.75  3093.94
eigval :     3094.83  3095.35  3096.50  3097.19  3098.37  3119.51

   temp. (K)  partition function   enthalpy   heat capacity  entropy
                                   cal/mol     cal/K/mol   cal/K/mol   J/K/mol
 298.15  VIB  0.130E+24            26810.085    164.496    170.769
         ROT  0.280E+09              888.752      2.981     41.630
         INT  0.364E+32            27698.837    167.477    212.399
         TR   0.181E+29             1481.254      4.968     45.514
         TOT                       29180.0913   172.4448   257.9136  1079.1106

       T/K    H(0)-H(T)+PV         H(T)/Eh          T*S/Eh         G(T)/Eh
   ------------------------------------------------------------------------
    298.15    0.465014E-01    0.757970E+00    0.122543E+00    0.635427E+00
   ------------------------------------------------------------------------

         :::::::::::::::::::::::::::::::::::::::::::::::::::::
         ::                  THERMODYNAMIC                  ::
         :::::::::::::::::::::::::::::::::::::::::::::::::::::
         :: total free energy        -138.271312312394 Eh   ::
         ::.................................................::
         :: total energy             -138.906739417369 Eh   ::
         :: zero point energy           0.711468758745 Eh   ::
         :: G(RRHO) w/o ZPVE           -0.076041653770 Eh   ::
         :: G(RRHO) contrib.            0.635427104975 Eh   ::
         :::::::::::::::::::::::::::::::::::::::::::::::::::::

           -------------------------------------------------
          | TOTAL ENERGY             -138.906739417369 Eh   |
          | TOTAL ENTHALPY           -138.148769223220 Eh   |
          | TOTAL FREE ENERGY        -138.271312312394 Eh   |
          | GRADIENT NORM               0.000113970449 Eh/α |
           -------------------------------------------------

 * finished run on 2025/07/17 at 05:52:42.481
