   * xtb version 6.7.1 (edcfbbe) compiled by 'albert@albert-system' on 2024-07-22

   ID    Z sym.   atoms
    1    8 O      1, 14
    2    6 C      2-13, 16, 18-21, 23, 24
    3    7 N      15, 17
    4   17 Cl     22
    5   16 S      25
    6    1 H      26-34

          program call               : xtb data2507/gas/CBIQD/CBIQD.xyz --gfn 2 --ohess vtight --parallel 40 --molden --ceasefiles --namespace data2507/gas/CBIQD/CBIQD_gas_S0_preOpt
          :  Hamiltonian                  GFN2-xTB          :
 * total energy  :   -67.0932283 Eh     change       -0.1672319E-08 Eh
 * total energy  :   -67.1065750 Eh     change       -0.1334670E-01 Eh
 * total energy  :   -67.1103705 Eh     change       -0.3795484E-02 Eh
 * total energy  :   -67.1108572 Eh     change       -0.4867220E-03 Eh
 * total energy  :   -67.1111788 Eh     change       -0.3216043E-03 Eh
 * total energy  :   -67.1113289 Eh     change       -0.1500806E-03 Eh
 * total energy  :   -67.1115034 Eh     change       -0.1744794E-03 Eh
 * total energy  :   -67.1116193 Eh     change       -0.1158780E-03 Eh
 * total energy  :   -67.1117111 Eh     change       -0.9181085E-04 Eh
 * total energy  :   -67.1117607 Eh     change       -0.4960846E-04 Eh
 * total energy  :   -67.1121497 Eh     change       -0.1319437E-05 Eh
 * total energy  :   -67.1121506 Eh     change       -0.9004048E-06 Eh
 * total energy  :   -67.1121512 Eh     change       -0.6101160E-06 Eh
 * total energy  :   -67.1121517 Eh     change       -0.5462784E-06 Eh
 * total energy  :   -67.1121523 Eh     change       -0.5567154E-06 Eh
 * total energy  :   -67.1121527 Eh     change       -0.4186322E-06 Eh
 * total energy  :   -67.1121530 Eh     change       -0.3229174E-06 Eh
 * total energy  :   -67.1121533 Eh     change       -0.2360309E-06 Eh
 * total energy  :   -67.1121533 Eh     change       -0.4513642E-07 Eh
   *** GEOMETRY OPTIMIZATION CONVERGED AFTER 40 ITERATIONS ***

 final structure:
================
34
 xtb: 6.7.1 (edcfbbe)
O            0.00148747298479       -2.38581187359032       -0.17609943574000
C           -0.58442554357090       -1.32240891682985       -0.13014862740692
C           -2.04378698318629       -1.23739438636032       -0.02663387735479
C           -2.78634995384530       -2.39586608518238        0.08960706172942
C           -4.17694882728438       -2.33157209665272        0.21136843882092
C           -4.82052444769323       -1.12056915879632        0.21597235989217
C           -4.09620941650328        0.08360783073278        0.09354528797076
C           -4.71489431154094        1.35105179749664        0.08132029276880
C           -3.96946251442205        2.49374082976765       -0.05586486029918
C           -2.57981850984843        2.42342716766907       -0.18782811893373
C           -1.93733962129212        1.20120646813425       -0.17186022591704
C           -2.68549801230620        0.01674649399956       -0.02911268695965
C           -0.47398098643334        1.16190473982142       -0.32050707545330
O            0.18192989150756        2.13625317430995       -0.57524910759091
N            0.12223793839219       -0.11842178864685       -0.15895964953223
C            1.51161047050949       -0.18820406322186       -0.10799016021020
N            2.25903035605297        0.82290843259470        0.12347632951494
C            3.57804482435083        0.49424618306475        0.11119828226134
C            4.63568182406877        1.37497123079877        0.32433674802130
C            5.92465295073976        0.89328447638936        0.27936659892239
C            6.16240690083509       -0.45893741845183        0.02654582496486
Cl           7.79477842013775       -1.02357158622456       -0.02210865353305
C            5.13464626798869       -1.35743011704506       -0.18681212692059
C            3.83867059490207       -0.87049238754422       -0.14629786225951
S            2.34213520761376       -1.73132988058426       -0.34899000062820
H           -2.27334317772642       -3.34561589570855        0.08790303378050
H           -4.74170757067757       -3.24676247982012        0.30277471687465
H           -5.89555527543466       -1.07169868705735        0.31024366769851
H           -5.78937750579786        1.40499871275599        0.17865622926361
H           -4.45261858645736        3.45884790395652       -0.06565560686186
H           -1.98774214769570        3.31880514097081       -0.30137957105377
H            4.42706778132660        2.41429898365134        0.51704702114679
H            6.76147970506314        1.55459990353905        0.43902318187997
H            5.33372378524231       -2.39880964793452       -0.38088742885616

          :  Hamiltonian                  GFN2-xTB          :
         :: gradient norm              0.000149663405 Eh/a0 ::
         :: HOMO-LUMO gap              1.579378201235 eV    ::
         :: SCC energy               -68.088486511790 Eh    ::
         :: -> dispersion             -0.048105598636 Eh    ::
         :: repulsion energy           0.976333206587 Eh    ::

    * Orbital Energies and Occupations

         #    Occupation            Energy/Eh            Energy/eV
      -------------------------------------------------------------
         1        2.0000           -1.0523200             -28.6351
       ...           ...                  ...                  ...
        48        2.0000           -0.4576080             -12.4521
        49        2.0000           -0.4522683             -12.3068
        50        2.0000           -0.4458101             -12.1311
        51        2.0000           -0.4414821             -12.0133
        52        2.0000           -0.4385706             -11.9341
        53        2.0000           -0.4309322             -11.7263
        54        2.0000           -0.4285175             -11.6606
        55        2.0000           -0.4259088             -11.5896
        56        2.0000           -0.4224823             -11.4963
        57        2.0000           -0.4137921             -11.2599
        58        2.0000           -0.3932324             -10.7004
        59        2.0000           -0.3922445             -10.6735
        60        2.0000           -0.3870074             -10.5310 (HOMO)
        61                         -0.3289662              -8.9516 (LUMO)
        62                         -0.2857113              -7.7746
        63                         -0.2673021              -7.2737
        64                         -0.2498918              -6.7999
        65                         -0.2458161              -6.6890
        66                         -0.2374230              -6.4606
        67                         -0.2047513              -5.5716
        68                         -0.1980362              -5.3888
        69                         -0.1744717              -4.7476
        70                         -0.1703824              -4.6363
        71                         -0.1425820              -3.8799
       ...                                ...                  ...
       119                          0.7164918              19.4967
      -------------------------------------------------------------
                  HL-Gap            0.0580412 Eh            1.5794 eV

     #   Z          covCN         q      C6AA      α(0)
     1   8 O        0.968    -0.361    20.859     6.126
     2   6 C        2.783     0.274    22.362     7.746
     3   6 C        2.976    -0.021    28.530     8.761
     4   6 C        2.922    -0.009    28.244     8.715
     5   6 C        2.914    -0.023    28.590     8.768
     6   6 C        2.918    -0.022    28.545     8.761
     7   6 C        2.984     0.021    27.540     8.608
     8   6 C        2.918    -0.022    28.559     8.763
     9   6 C        2.914    -0.023    28.578     8.766
    10   6 C        2.923    -0.009    28.243     8.715
    11   6 C        2.975    -0.022    28.552     8.765
    12   6 C        2.996     0.013    27.716     8.636
    13   6 C        2.772     0.279    22.280     7.731
    14   8 O        0.858    -0.341    20.534     6.076
    15   7 N        2.760    -0.096    23.111     7.140
    16   6 C        2.997     0.180    24.131     8.058
    17   7 N        1.926    -0.230    26.878     7.687
    18   6 C        3.207     0.074    25.753     8.263
    19   6 C        2.916    -0.035    28.860     8.809
    20   6 C        2.956    -0.044    29.086     8.846
    21   6 C        2.893     0.095    25.887     8.342
    22  17 Cl       0.972    -0.173   104.582    15.645
    23   6 C        2.968    -0.047    29.174     8.860
    24   6 C        2.999     0.010    27.775     8.645
    25  16 S        2.328    -0.031   142.318    20.079
    26   1 H        0.926     0.075     2.031     2.229
    27   1 H        0.926     0.055     2.263     2.352
    28   1 H        0.926     0.053     2.281     2.362
    29   1 H        0.926     0.053     2.284     2.363
    30   1 H        0.926     0.055     2.261     2.351
    31   1 H        0.926     0.076     2.020     2.223
    32   1 H        0.926     0.069     2.096     2.264
    33   1 H        0.926     0.062     2.177     2.307
    34   1 H        0.926     0.064     2.155     2.296

molecular dipole:
                 x           y           z       tot (Debye)
 q only:       -3.347       0.392       0.319
   full:       -3.264       0.171       0.319       8.347

 projected vibrational frequencies (cm⁻¹)
eigval :       -0.00    -0.00     0.00     0.00     0.00     0.00
eigval :       19.20    23.11    46.39    71.73    77.58   134.37
eigval :      141.00   167.23   180.53   196.50   198.86   208.40
eigval :      259.44   281.52   326.10   363.51   372.62   374.73
eigval :      379.89   395.00   408.33   419.19   429.01   445.00
eigval :      495.90   501.55   518.08   520.34   542.17   574.34
eigval :      577.64   595.41   625.20   649.92   680.59   682.62
eigval :      684.83   694.95   726.94   748.46   768.72   786.67
eigval :      787.01   819.42   824.94   851.85   863.93   888.17
eigval :      905.85   906.87   913.22   927.43   932.02   950.46
eigval :     1045.81  1053.53  1071.61  1099.24  1109.44  1128.59
eigval :     1140.41  1171.59  1183.59  1189.71  1206.79  1212.71
eigval :     1221.45  1243.92  1270.49  1302.56  1332.81  1351.58
eigval :     1364.63  1389.85  1394.67  1421.46  1432.06  1447.17
eigval :     1509.14  1542.41  1548.25  1556.07  1583.88  1597.08
eigval :     1602.22  1672.40  1735.60  3081.75  3084.61  3096.02
eigval :     3096.56  3104.45  3104.84  3104.92  3111.30  3119.38

   temp. (K)  partition function   enthalpy   heat capacity  entropy
                                   cal/mol     cal/K/mol   cal/K/mol   J/K/mol
 298.15  VIB  0.109E+08            10257.865     67.427     61.407
         ROT  0.131E+08              888.752      2.981     35.553
         INT  0.143E+15            11146.618     70.408     96.960
         TR   0.674E+28             1481.254      4.968     43.556
         TOT                       12627.8717    75.3759   140.5158   587.9180

       T/K    H(0)-H(T)+PV         H(T)/Eh          T*S/Eh         G(T)/Eh
   ------------------------------------------------------------------------
    298.15    0.201238E-01    0.247716E+00    0.667636E-01    0.180952E+00
   ------------------------------------------------------------------------

         :::::::::::::::::::::::::::::::::::::::::::::::::::::
         ::                  THERMODYNAMIC                  ::
         :::::::::::::::::::::::::::::::::::::::::::::::::::::
         :: total free energy         -66.931201206187 Eh   ::
         ::.................................................::
         :: total energy              -67.112153305211 Eh   ::
         :: zero point energy           0.227591885085 Eh   ::
         :: G(RRHO) w/o ZPVE           -0.046639786060 Eh   ::
         :: G(RRHO) contrib.            0.180952099024 Eh   ::
         :::::::::::::::::::::::::::::::::::::::::::::::::::::

           -------------------------------------------------
          | TOTAL ENERGY              -67.112153305211 Eh   |
          | TOTAL ENTHALPY            -66.864437625572 Eh   |
          | TOTAL FREE ENERGY         -66.931201206187 Eh   |
          | GRADIENT NORM               0.000149649900 Eh/α |
          | HOMO-LUMO GAP               1.579380306284 eV   |
           -------------------------------------------------

 * finished run on 2025/08/30 at 23:28:23.409
