   * xtb version 6.7.1 (edcfbbe) compiled by 'albert@albert-system' on 2024-07-22

   ID    Z sym.   atoms
    1    8 O      1, 14
    2    6 C      2-13, 16, 18-21, 23, 24
    3    7 N      15, 17
    4   17 Cl     22
    5   16 S      25
    6    1 H      26-34

          program call               : xtb data2507/gas/CBIQD/CBIQD_gas_T1_crest.xyz --gfn 2 --spinpol --tblite --uhf 2 --ohess vtight --parallel 40 --molden --ceasefiles --namespace data2507/gas/CBIQD/CBIQD_gas_T1_finalOpt
 * total energy  :   -67.0385220 Eh     change       -0.6528410E-08 Eh
 * total energy  :   -67.0385570 Eh     change       -0.3497126E-04 Eh
 * total energy  :   -67.0386028 Eh     change       -0.4578892E-04 Eh
 * total energy  :   -67.0386197 Eh     change       -0.1687131E-04 Eh
 * total energy  :   -67.0386534 Eh     change       -0.3370268E-04 Eh
 * total energy  :   -67.0386733 Eh     change       -0.1987995E-04 Eh
 * total energy  :   -67.0386887 Eh     change       -0.1544182E-04 Eh
 * total energy  :   -67.0386992 Eh     change       -0.1049173E-04 Eh
 * total energy  :   -67.0387026 Eh     change       -0.3386027E-05 Eh
 * total energy  :   -67.0387064 Eh     change       -0.3799587E-05 Eh
 * total energy  :   -67.0387262 Eh     change       -0.1217208E-05 Eh
 * total energy  :   -67.0387270 Eh     change       -0.7692903E-06 Eh
 * total energy  :   -67.0387274 Eh     change       -0.4682599E-06 Eh
 * total energy  :   -67.0387277 Eh     change       -0.3104104E-06 Eh
 * total energy  :   -67.0387279 Eh     change       -0.1715807E-06 Eh
 * total energy  :   -67.0387282 Eh     change       -0.2644654E-06 Eh
 * total energy  :   -67.0387283 Eh     change       -0.1253623E-06 Eh
 * total energy  :   -67.0387286 Eh     change       -0.3184784E-06 Eh
 * total energy  :   -67.0387287 Eh     change       -0.7785442E-07 Eh
   *** GEOMETRY OPTIMIZATION CONVERGED AFTER 26 ITERATIONS ***

 final structure:
================
34
 xtb: 6.7.1 (edcfbbe)
O           -0.72293370503188       -2.26403680961867       -0.01723823941765
C           -1.42356039210787       -1.24416741811278       -0.01940440541142
C           -2.85642248500255       -1.22946306729488       -0.01897554176671
C           -3.56919588001921       -2.45090760538338       -0.01638778987588
C           -4.94387242850053       -2.43973293933790       -0.01572920525662
C           -5.64826360334760       -1.23972126818333       -0.01734243655892
C           -4.97434714884005       -0.00383448741506       -0.01979612729753
C           -5.65411277204972        1.22860508751964       -0.02170166864560
C           -4.96032049879057        2.43387582489421       -0.02341303189697
C           -3.58466641278057        2.45152048685621       -0.02359536376179
C           -2.86692809089497        1.23638700214173       -0.02208326924413
C           -3.55073951342805        0.00208799118160       -0.02034085542204
C           -1.43352290298871        1.25816564517022       -0.02229178807188
O           -0.72509351968459        2.26754241926319       -0.02347540475021
N           -0.79823754959023        0.00881417243731       -0.02126877644820
C            0.56846218409768       -0.00671183399796       -0.02357425411175
N            1.24060829860778       -1.10011090126235       -0.02710394233333
C            2.58505990288473       -0.90802745907163       -0.02626992628736
C            3.57242757493058       -1.88766604676584       -0.02911846369130
C            4.89384474677843       -1.49815243748180       -0.02829668628583
C            5.22997085721006       -0.14315332544532       -0.02483166694229
Cl           6.89577757087447        0.30489017407451       -0.02384389973493
C            4.26418462039016        0.84790308793475       -0.02231034084265
C            2.93633969684535        0.45992348787464       -0.02266282323380
S            1.49524064980742        1.46886257321216       -0.02147446163226
H           -3.00688847883518       -3.37029046581263       -0.01516609741184
H           -5.48587730439205       -3.37357241675826       -0.01395339127726
H           -6.72754720446331       -1.24398582931201       -0.01649838020628
H           -6.73361674215160        1.22502705604036       -0.02197163283093
H           -5.50952541618246        3.36337826187442       -0.02458336152841
H           -3.02549459210167        3.37307508716024       -0.02484475811954
H            3.29021007449492       -2.92760795193703       -0.03157905523014
H            5.67977330570806       -2.23630059222717       -0.03016390263827
H            4.53480721925400        1.89140244788267       -0.02040942153624

 projected vibrational frequencies (cm⁻¹)
eigval :       -0.00    -0.00    -0.00    -0.00     0.00     0.00
eigval :       18.36    24.82    44.02    50.85    82.25   134.69
eigval :      143.24   145.76   176.15   185.02   194.24   204.39
eigval :      255.41   279.18   286.69   335.44   348.96   350.66
eigval :      361.61   381.92   392.18   408.15   410.55   435.75
eigval :      446.38   476.66   489.23   509.28   512.50   536.09
eigval :      557.65   591.53   620.43   633.69   651.07   654.08
eigval :      664.55   672.41   715.47   741.87   744.72   757.08
eigval :      766.73   782.86   817.30   828.76   842.30   847.01
eigval :      848.25   884.94   898.84   903.68   905.84   956.72
eigval :     1036.61  1045.46  1086.41  1099.40  1109.72  1118.46
eigval :     1137.10  1150.58  1176.93  1181.96  1199.90  1207.47
eigval :     1224.97  1241.32  1258.67  1285.30  1298.05  1332.24
eigval :     1365.30  1368.48  1385.17  1393.99  1401.38  1422.13
eigval :     1428.42  1448.91  1487.60  1496.61  1523.97  1539.54
eigval :     1553.61  1582.90  1594.62  3083.09  3085.00  3093.12
eigval :     3095.66  3107.97  3108.93  3114.69  3116.11  3118.80

   temp. (K)  partition function   enthalpy   heat capacity  entropy
                                   cal/mol     cal/K/mol   cal/K/mol   J/K/mol
 298.15  VIB  0.243E+08            10664.130     69.132     63.896
         ROT  0.130E+08              888.752      2.981     35.526
         INT  0.314E+15            11552.882     72.113     99.422
         TR   0.674E+28             1481.254      4.968     43.556
         TOT                       13034.1362    77.0807   142.9776   598.2183

       T/K    H(0)-H(T)+PV         H(T)/Eh          T*S/Eh         G(T)/Eh
   ------------------------------------------------------------------------
    298.15    0.207712E-01    0.244065E+00    0.679333E-01    0.176132E+00
   ------------------------------------------------------------------------

         :::::::::::::::::::::::::::::::::::::::::::::::::::::
         ::                  THERMODYNAMIC                  ::
         :::::::::::::::::::::::::::::::::::::::::::::::::::::
         :: total free energy         -66.862596760205 Eh   ::
         ::.................................................::
         :: total energy              -67.038728700948 Eh   ::
         :: zero point energy           0.223293992547 Eh   ::
         :: G(RRHO) w/o ZPVE           -0.047162051804 Eh   ::
         :: G(RRHO) contrib.            0.176131940743 Eh   ::
         :::::::::::::::::::::::::::::::::::::::::::::::::::::

           -------------------------------------------------
          | TOTAL ENERGY              -67.038728700948 Eh   |
          | TOTAL ENTHALPY            -66.794663490245 Eh   |
          | TOTAL FREE ENERGY         -66.862596760205 Eh   |
          | GRADIENT NORM               0.000120702168 Eh/α |
           -------------------------------------------------

 * finished run on 2025/08/30 at 23:31:40.121
