   * xtb version 6.7.1 (edcfbbe) compiled by 'albert@albert-system' on 2024-07-22

   ID    Z sym.   atoms
    1    8 O      1, 14
    2    6 C      2-13, 16, 18-21, 23, 24
    3    7 N      15, 17
    4   17 Cl     22
    5   16 S      25
    6    1 H      26-34

          program call               : xtb data2507/gas/CBIQD/CBIQD_gas_S0_crest.xyz --gfn 2 --ohess vtight --parallel 40 --molden --ceasefiles --namespace data2507/gas/CBIQD/CBIQD_gas_S0_finalOpt
          :  Hamiltonian                  GFN2-xTB          :
 * total energy  :   -67.1121495 Eh     change       -0.6845596E-08 Eh
 * total energy  :   -67.1121498 Eh     change       -0.2690375E-06 Eh
 * total energy  :   -67.1121500 Eh     change       -0.2110141E-06 Eh
 * total energy  :   -67.1121504 Eh     change       -0.3572984E-06 Eh
 * total energy  :   -67.1121507 Eh     change       -0.3710431E-06 Eh
 * total energy  :   -67.1121511 Eh     change       -0.3800403E-06 Eh
 * total energy  :   -67.1121516 Eh     change       -0.4741966E-06 Eh
 * total energy  :   -67.1121522 Eh     change       -0.6610849E-06 Eh
 * total energy  :   -67.1121529 Eh     change       -0.6981339E-06 Eh
 * total energy  :   -67.1121533 Eh     change       -0.3382127E-06 Eh
 * total energy  :   -67.1121534 Eh     change       -0.7435327E-07 Eh
   *** GEOMETRY OPTIMIZATION CONVERGED AFTER 11 ITERATIONS ***

 final structure:
================
34
 xtb: 6.7.1 (edcfbbe)
O           -0.76467340184448       -2.21603608339899       -0.12074628253324
C           -1.41643908502122       -1.19202392393866       -0.06876533963313
C           -2.87812377943742       -1.19933283169087        0.03645385543365
C           -3.54600180723957       -2.40250864989880        0.15136245784908
C           -4.93775184457788       -2.42623699681683        0.27464574319429
C           -5.65641626585475       -1.25824951361842        0.28131032100518
C           -5.00962889768969       -0.01060746252223        0.15984955491026
C           -5.70718027606315        1.21521912268776        0.14893704527582
C           -5.03549432562912        2.40283678899644        0.01255762354728
C           -3.64417563053391        2.42065620690510       -0.11948528685339
C           -2.92573254600853        1.24148736678581       -0.10485419153246
C           -3.59757615955874        0.01191328865057        0.03653099399528
C           -1.46278602048154        1.29458788138455       -0.25339750900036
O           -0.86917883746081        2.30814043792450       -0.50801074824282
N           -0.78731337166072        0.05436101852722       -0.09226085398356
C            0.60365959542428        0.07231862664683       -0.03953954132208
N            1.28474638070669        1.12617184549559        0.20589125097793
C            2.62207038933256        0.88222198314569        0.19144674175716
C            3.62167414929377        1.82523761842849        0.41782571652948
C            4.93864476608969        1.42690196572807        0.36836299137534
C            5.26195558223333        0.09608024482327        0.09770613644524
Cl           6.92685705120105       -0.36324875411352        0.04402078641254
C            4.29337553328802       -0.86291346665417       -0.12873773238386
C            2.96913737424984       -0.45970068667310       -0.08350813792851
S            1.53053602595047       -1.41158621235973       -0.29785233942395
H           -2.97409443024048       -3.31799168114364        0.14774946513544
H           -5.44355128237057       -3.37535150180013        0.36535320050096
H           -6.73231708252514       -1.27742737374780        0.37637236449878
H           -6.78289538215621        1.20105499564440        0.24663993427957
H           -5.57872078579072        3.33546093072621        0.00353363353315
H           -3.10999401979317        3.35182534430647       -0.23230537770202
H            3.34764118034803        2.84672946738342        0.62368172316576
H            5.73172515973020        2.13781047292774        0.53792187083599
H            4.55816981368993       -1.88699944994125       -0.33594362741875

          :  Hamiltonian                  GFN2-xTB          :
         :: gradient norm              0.000039397151 Eh/a0 ::
         :: HOMO-LUMO gap              1.581333743140 eV    ::
         :: SCC energy               -68.088497471519 Eh    ::
         :: -> dispersion             -0.048105794970 Eh    ::
         :: repulsion energy           0.976344114089 Eh    ::

    * Orbital Energies and Occupations

         #    Occupation            Energy/Eh            Energy/eV
      -------------------------------------------------------------
         1        2.0000           -1.0523539             -28.6360
       ...           ...                  ...                  ...
        48        2.0000           -0.4576465             -12.4532
        49        2.0000           -0.4522598             -12.3066
        50        2.0000           -0.4458016             -12.1309
        51        2.0000           -0.4414654             -12.0129
        52        2.0000           -0.4386464             -11.9362
        53        2.0000           -0.4309417             -11.7265
        54        2.0000           -0.4284866             -11.6597
        55        2.0000           -0.4259732             -11.5913
        56        2.0000           -0.4224639             -11.4958
        57        2.0000           -0.4138528             -11.2615
        58        2.0000           -0.3932900             -10.7020
        59        2.0000           -0.3924303             -10.6786
        60        2.0000           -0.3870438             -10.5320 (HOMO)
        61                         -0.3289308              -8.9507 (LUMO)
        62                         -0.2857171              -7.7748
        63                         -0.2672868              -7.2732
        64                         -0.2499815              -6.8023
        65                         -0.2457853              -6.6882
        66                         -0.2374799              -6.4622
        67                         -0.2048138              -5.5733
        68                         -0.1981732              -5.3926
        69                         -0.1745695              -4.7503
        70                         -0.1703675              -4.6359
        71                         -0.1426038              -3.8804
       ...                                ...                  ...
       119                          0.7165390              19.4980
      -------------------------------------------------------------
                  HL-Gap            0.0581130 Eh            1.5813 eV

     #   Z          covCN         q      C6AA      α(0)
     1   8 O        0.966    -0.361    20.863     6.126
     2   6 C        2.783     0.274    22.361     7.746
     3   6 C        2.976    -0.021    28.530     8.762
     4   6 C        2.922    -0.009    28.244     8.715
     5   6 C        2.914    -0.023    28.590     8.768
     6   6 C        2.918    -0.022    28.545     8.761
     7   6 C        2.984     0.021    27.540     8.608
     8   6 C        2.918    -0.022    28.559     8.763
     9   6 C        2.914    -0.023    28.578     8.766
    10   6 C        2.923    -0.009    28.242     8.715
    11   6 C        2.975    -0.022    28.552     8.765
    12   6 C        2.996     0.013    27.716     8.636
    13   6 C        2.772     0.279    22.279     7.730
    14   8 O        0.858    -0.341    20.539     6.076
    15   7 N        2.760    -0.096    23.114     7.141
    16   6 C        2.997     0.180    24.129     8.058
    17   7 N        1.926    -0.230    26.882     7.688
    18   6 C        3.208     0.074    25.751     8.263
    19   6 C        2.916    -0.035    28.859     8.809
    20   6 C        2.956    -0.044    29.086     8.846
    21   6 C        2.893     0.095    25.886     8.342
    22  17 Cl       0.972    -0.173   104.581    15.645
    23   6 C        2.968    -0.047    29.174     8.860
    24   6 C        2.999     0.010    27.773     8.645
    25  16 S        2.327    -0.030   142.305    20.078
    26   1 H        0.926     0.075     2.032     2.229
    27   1 H        0.926     0.055     2.263     2.352
    28   1 H        0.926     0.053     2.281     2.362
    29   1 H        0.926     0.053     2.284     2.363
    30   1 H        0.926     0.055     2.261     2.351
    31   1 H        0.926     0.076     2.020     2.223
    32   1 H        0.926     0.069     2.096     2.264
    33   1 H        0.926     0.062     2.176     2.307
    34   1 H        0.926     0.064     2.154     2.295

molecular dipole:
                 x           y           z       tot (Debye)
 q only:       -3.362       0.178       0.324
   full:       -3.265      -0.037       0.323       8.339

 projected vibrational frequencies (cm⁻¹)
eigval :       -0.00    -0.00    -0.00     0.00     0.00     0.00
eigval :       19.52    23.11    46.31    71.38    77.71   134.26
eigval :      140.93   166.99   180.71   196.21   198.89   208.37
eigval :      258.91   281.82   325.82   363.59   372.39   374.67
eigval :      379.71   395.23   408.35   419.19   429.01   444.98
eigval :      495.85   501.58   518.07   520.35   542.18   574.35
eigval :      577.60   595.58   625.28   650.12   680.57   682.63
eigval :      684.80   694.91   727.14   748.50   768.72   786.68
eigval :      787.00   819.46   824.94   851.83   863.97   888.09
eigval :      905.89   906.86   913.22   927.42   932.01   950.53
eigval :     1045.81  1053.50  1071.71  1099.31  1109.43  1128.57
eigval :     1140.44  1171.62  1183.60  1189.74  1206.83  1212.73
eigval :     1221.57  1243.89  1270.49  1302.41  1332.82  1351.61
eigval :     1364.63  1389.84  1394.68  1421.40  1432.06  1447.16
eigval :     1509.09  1542.45  1548.25  1555.96  1583.90  1597.07
eigval :     1602.10  1672.75  1735.75  3081.73  3084.59  3096.01
eigval :     3096.56  3104.44  3104.76  3104.91  3111.16  3119.07

   temp. (K)  partition function   enthalpy   heat capacity  entropy
                                   cal/mol     cal/K/mol   cal/K/mol   J/K/mol
 298.15  VIB  0.108E+08            10258.695     67.425     61.406
         ROT  0.131E+08              888.752      2.981     35.552
         INT  0.142E+15            11147.448     70.406     96.959
         TR   0.674E+28             1481.254      4.968     43.556
         TOT                       12628.7015    75.3739   140.5145   587.9125

       T/K    H(0)-H(T)+PV         H(T)/Eh          T*S/Eh         G(T)/Eh
   ------------------------------------------------------------------------
    298.15    0.201251E-01    0.247715E+00    0.667630E-01    0.180952E+00
   ------------------------------------------------------------------------

         :::::::::::::::::::::::::::::::::::::::::::::::::::::
         ::                  THERMODYNAMIC                  ::
         :::::::::::::::::::::::::::::::::::::::::::::::::::::
         :: total free energy         -66.931200874415 Eh   ::
         ::.................................................::
         :: total energy              -67.112153357432 Eh   ::
         :: zero point energy           0.227590322191 Eh   ::
         :: G(RRHO) w/o ZPVE           -0.046637839173 Eh   ::
         :: G(RRHO) contrib.            0.180952483017 Eh   ::
         :::::::::::::::::::::::::::::::::::::::::::::::::::::

           -------------------------------------------------
          | TOTAL ENERGY              -67.112153357432 Eh   |
          | TOTAL ENTHALPY            -66.864437918449 Eh   |
          | TOTAL FREE ENERGY         -66.931200874415 Eh   |
          | GRADIENT NORM               0.000039455869 Eh/α |
          | HOMO-LUMO GAP               1.581336370493 eV   |
           -------------------------------------------------

 * finished run on 2025/08/30 at 23:29:48.398
