   * xtb version 6.7.1 (edcfbbe) compiled by 'albert@albert-system' on 2024-07-22

   ID    Z sym.   atoms
    1    8 O      1, 14
    2    6 C      2-13, 16, 18-21, 23, 24
    3    7 N      15, 17
    4   17 Cl     22
    5   16 S      25
    6    1 H      26-34

          program call               : xtb data2507/gas/CBIQD/CBIQD_gas_S0_finalOpt.xtbopt.xyz --gfn 2 --spinpol --tblite --uhf 2 --ohess vtight --parallel 40 --molden --ceasefiles --namespace data2507/gas/CBIQD/CBIQD_gas_T1_preOpt
 * total energy  :   -67.0304476 Eh     change        0.2838803E-08 Eh
 * total energy  :   -67.0359796 Eh     change       -0.5531948E-02 Eh
 * total energy  :   -67.0376075 Eh     change       -0.1627880E-02 Eh
 * total energy  :   -67.0378110 Eh     change       -0.2035706E-03 Eh
 * total energy  :   -67.0379835 Eh     change       -0.1724199E-03 Eh
 * total energy  :   -67.0380831 Eh     change       -0.9966349E-04 Eh
 * total energy  :   -67.0381867 Eh     change       -0.1035397E-03 Eh
 * total energy  :   -67.0382851 Eh     change       -0.9848086E-04 Eh
 * total energy  :   -67.0383632 Eh     change       -0.7806066E-04 Eh
 * total energy  :   -67.0384187 Eh     change       -0.5550120E-04 Eh
 * total energy  :   -67.0387264 Eh     change       -0.4683758E-06 Eh
 * total energy  :   -67.0387267 Eh     change       -0.3147396E-06 Eh
 * total energy  :   -67.0387269 Eh     change       -0.2317755E-06 Eh
 * total energy  :   -67.0387272 Eh     change       -0.2314706E-06 Eh
 * total energy  :   -67.0387274 Eh     change       -0.2429754E-06 Eh
 * total energy  :   -67.0387276 Eh     change       -0.2371570E-06 Eh
 * total energy  :   -67.0387278 Eh     change       -0.1383707E-06 Eh
 * total energy  :   -67.0387279 Eh     change       -0.1156140E-06 Eh
 * total energy  :   -67.0387280 Eh     change       -0.6179472E-07 Eh
   *** GEOMETRY OPTIMIZATION CONVERGED AFTER 35 ITERATIONS ***

 final structure:
================
34
 xtb: 6.7.1 (edcfbbe)
O           -0.72956918594082       -2.27290320163479        0.08386304107454
C           -1.43804426990996       -1.26368017794842        0.07212820287472
C           -2.87149686481223       -1.24159459887238        0.07454377641976
C           -3.58945519685033       -2.45642679529565        0.08871996847714
C           -4.96517138984957       -2.43847126664922        0.09237311738990
C           -5.65864169422886       -1.23314429434884        0.08404553290906
C           -4.97863660780518       -0.00090868629255        0.06895948648986
C           -5.65235987085736        1.23506618603204        0.05861198156333
C           -4.94785614327813        2.43485583334839        0.04552138627965
C           -3.57314618440254        2.44576997891887        0.03939373904119
C           -2.86060983323463        1.22430096328103        0.05098389492984
C           -3.55504504941836       -0.00716383714103        0.06468693753936
C           -1.42788250405584        1.23861890024107        0.04409449076185
O           -0.72686444773058        2.25808185566481        0.02161832124504
N           -0.80274718652203       -0.01440401346149        0.05807124093764
C            0.56381460036662        0.00141786113910        0.06676605382871
N            1.23550483502158        1.09517861692606        0.07131054716883
C            2.57995564085866        0.90367887210808        0.07145468572068
C            3.56687290749436        1.88382293117980        0.07487078548185
C            4.88844558904925        1.49495289232474        0.07816710177131
C            5.22517771627559        0.14008001425482        0.07877964630559
Cl           6.89117740062285       -0.30714589456834        0.08343517491328
C            4.25986100323680       -0.85148598815221        0.07644387572689
C            2.93184083406662       -0.46417934065146        0.07097740304084
S            1.49112020357771       -1.47372177422449        0.07263862221052
H           -3.03053451798798       -3.37811026172984        0.09615836164743
H           -5.51453620260253       -3.36781882289197        0.10264200431080
H           -6.73814223618739       -1.22922876674006        0.09087591745743
H           -6.73164601516538        1.23947447152836        0.05971381330500
H           -5.48965688663680        3.36879627434743        0.03944464720057
H           -3.01071050999203        3.36500244865155        0.02784257018333
H            3.28413409027390        2.92363912922937        0.07390694318082
H            5.67403492200861        2.23347223642693        0.08018974008688
H            4.53099827591402       -1.89485343249853        0.07961247672985

 projected vibrational frequencies (cm⁻¹)
eigval :       -0.00     0.00     0.00     0.00     0.00     0.00
eigval :       19.95    23.50    42.96    51.65    82.49   134.61
eigval :      142.63   146.36   176.24   185.24   194.14   204.38
eigval :      255.67   279.25   286.54   336.85   348.39   351.27
eigval :      361.50   381.86   392.37   409.18   410.66   436.40
eigval :      446.50   477.02   489.25   509.32   512.48   536.10
eigval :      557.74   591.42   620.49   633.62   651.12   654.14
eigval :      664.64   672.43   715.49   741.89   744.85   757.05
eigval :      766.75   782.88   817.20   828.78   842.31   847.02
eigval :      848.21   885.01   898.82   903.66   905.82   956.84
eigval :     1036.68  1045.52  1086.44  1099.39  1109.78  1118.28
eigval :     1137.18  1150.69  1176.72  1181.73  1199.87  1207.51
eigval :     1224.77  1241.29  1258.71  1285.40  1297.54  1332.23
eigval :     1365.08  1368.20  1385.29  1393.75  1401.37  1421.96
eigval :     1428.57  1448.98  1487.59  1496.55  1523.86  1539.43
eigval :     1553.35  1582.86  1594.68  3082.95  3084.87  3092.95
eigval :     3095.46  3108.00  3108.98  3114.55  3116.13  3118.79

   temp. (K)  partition function   enthalpy   heat capacity  entropy
                                   cal/mol     cal/K/mol   cal/K/mol   J/K/mol
 298.15  VIB  0.236E+08            10661.152     69.114     63.838
         ROT  0.130E+08              888.752      2.981     35.526
         INT  0.306E+15            11549.905     72.094     99.364
         TR   0.674E+28             1481.254      4.968     43.556
         TOT                       13031.1585    77.0626   142.9200   597.9773

       T/K    H(0)-H(T)+PV         H(T)/Eh          T*S/Eh         G(T)/Eh
   ------------------------------------------------------------------------
    298.15    0.207665E-01    0.244065E+00    0.679059E-01    0.176159E+00
   ------------------------------------------------------------------------

         :::::::::::::::::::::::::::::::::::::::::::::::::::::
         ::                  THERMODYNAMIC                  ::
         :::::::::::::::::::::::::::::::::::::::::::::::::::::
         :: total free energy         -66.862568594939 Eh   ::
         ::.................................................::
         :: total energy              -67.038727960168 Eh   ::
         :: zero point energy           0.223298795270 Eh   ::
         :: G(RRHO) w/o ZPVE           -0.047139430041 Eh   ::
         :: G(RRHO) contrib.            0.176159365229 Eh   ::
         :::::::::::::::::::::::::::::::::::::::::::::::::::::

           -------------------------------------------------
          | TOTAL ENERGY              -67.038727960168 Eh   |
          | TOTAL ENTHALPY            -66.794662691958 Eh   |
          | TOTAL FREE ENERGY         -66.862568594939 Eh   |
          | GRADIENT NORM               0.000040002727 Eh/α |
           -------------------------------------------------

 * finished run on 2025/08/30 at 23:29:51.724
