   * xtb version 6.7.1 (edcfbbe) compiled by 'albert@albert-system' on 2024-07-22

   ID    Z sym.   atoms
    1    6 C      1-22, 24-40, 42-48, 50-55
    2    7 N      23, 41, 49
    3    1 H      56-90

          program call               : xtb data2507/toluene/PhCz-Pyr/PhCz-Pyr_toluene_S0_finalOpt.xtbopt.xyz --gfn 2 --uhf 2 --gbsa toluene --ohess vtight --parallel 40 --molden --ceasefiles --namespace data2507/toluene/PhCz-Pyr/PhCz-Pyr_toluene_T1_preOpt
      * Solvation model:               GBSA
        Solvent                        toluene
        Solvent mass                       9.2140E+01 g/mol
          :  Hamiltonian                  GFN2-xTB          :
 * total energy  :  -137.9676427 Eh     change       -0.6106831E-08 Eh
 * total energy  :  -137.9709066 Eh     change       -0.3263893E-02 Eh
 * total energy  :  -137.9722288 Eh     change       -0.1322217E-02 Eh
 * total energy  :  -137.9723599 Eh     change       -0.1310943E-03 Eh
 * total energy  :  -137.9725894 Eh     change       -0.2294586E-03 Eh
 * total energy  :  -137.9727058 Eh     change       -0.1164617E-03 Eh
 * total energy  :  -137.9728539 Eh     change       -0.1480346E-03 Eh
 * total energy  :  -137.9729833 Eh     change       -0.1294836E-03 Eh
 * total energy  :  -137.9730707 Eh     change       -0.8738405E-04 Eh
 * total energy  :  -137.9731562 Eh     change       -0.8551198E-04 Eh
 * total energy  :  -137.9747779 Eh     change       -0.1486907E-05 Eh
 * total energy  :  -137.9747792 Eh     change       -0.1344456E-05 Eh
 * total energy  :  -137.9747805 Eh     change       -0.1262351E-05 Eh
 * total energy  :  -137.9747817 Eh     change       -0.1248199E-05 Eh
 * total energy  :  -137.9747829 Eh     change       -0.1184520E-05 Eh
 * total energy  :  -137.9747840 Eh     change       -0.1096479E-05 Eh
 * total energy  :  -137.9747851 Eh     change       -0.1079307E-05 Eh
 * total energy  :  -137.9747861 Eh     change       -0.1037008E-05 Eh
 * total energy  :  -137.9747861 Eh     change       -0.4697938E-08 Eh
   *** GEOMETRY OPTIMIZATION CONVERGED AFTER 185 ITERATIONS ***

 final structure:
================
90
 xtb: 6.7.1 (edcfbbe)
C           -9.70266452367659       -5.91222625931066       -0.11803819400832
C           -8.55735016289088       -6.05583304610162       -0.88459682520115
C           -7.56309317575946       -5.09656138102052       -0.83634200518254
C           -7.70133765179373       -3.97020618602894       -0.02591340921932
C           -6.65115561849417       -2.94357669644031        0.01446456309273
C           -5.30021926610568       -3.31763125998943        0.05130173050139
C           -4.28163596569695       -2.38692336449586        0.07702111743691
C           -4.62576399179610       -1.04068654938665        0.04134900592383
C           -5.98476629531278       -0.64356687875935        0.03485778488991
C           -6.99112157861571       -1.59171517991396        0.02274050026675
C           -5.98671385310816        0.79711715584896        0.05355839276186
C           -6.99494108680104        1.74330216232514        0.04315439654112
C           -6.65765133208207        3.09581946672160        0.02643425705099
C           -7.71103291094372        4.12011517928347        0.01807839975779
C           -8.83737324269837        3.98338895860837        0.82882040580788
C           -9.82819990775937        4.94736034304737        0.82655816228216
C           -9.71632952739748        6.05991631489218        0.00826397837277
C           -8.60414335005636        6.20394610684342       -0.80550803575407
C           -7.60774694237131        5.24558235136711       -0.79846540097595
C           -5.30728561024505        3.47210666678035        0.00540647750097
C           -4.28651779976141        2.54351984985830        0.02621290495102
C           -4.62874020909597        1.19723017019288        0.07047724366682
N           -3.82078039440853        0.07904418804521        0.06534394863603
C           -2.42360618464412        0.08340295188881        0.07398759853235
C           -1.70393151935061       -0.71897576537244       -0.81692702712974
C           -0.33006813453654       -0.70782955228748       -0.80832805608673
C            0.39424265722031        0.10549810880473        0.08236357713436
C            1.84039191292791        0.12183476977594        0.07981364681296
C            2.59179347173185       -1.00668576832304       -0.30677201239156
C            3.95769486223794       -0.98974290646763       -0.30602852159115
C            4.68699263811757        0.16643639727870        0.06199863915547
C            6.11335645607722        0.13857576513472        0.02946194866802
C            6.94032224219363        1.24062780812000        0.33037658734776
C            8.31025847553163        1.08167374906332        0.25429779830449
C            9.26028318405223        2.14241243525435        0.55824681792883
C           10.59141332818181        1.80762927626710        0.83877373861905
C           11.51901744722950        2.78422943793448        1.13458021360719
C           11.14667587269515        4.12041134305661        1.15354057578329
C            9.83446557626455        4.46706943911164        0.86755377296876
C            8.90027313886379        3.49440052539607        0.57318501619991
N            8.83221229336808       -0.12529849636229       -0.09505336046929
C            8.02289437792859       -1.13654706973363       -0.37145462295747
C            8.61640822440652       -2.42242967152136       -0.74601784757438
C            7.81939159075271       -3.55922246296564       -0.86235545281032
C            8.38298191610056       -4.77160723386429       -1.21100435876367
C            9.74593916968568       -4.86196681667412       -1.44901710748888
C           10.54453562585255       -3.73418874448971       -1.33813392683983
C            9.98492467531081       -2.52007435601305       -0.98775313527330
N            6.71768871572278       -1.03225666444662       -0.32122960073825
C            3.93260276171297        1.29927935389627        0.44168671278982
C            2.56460849003944        1.26916416822885        0.45941122608502
C           -0.34784105338660        0.90402200340699        0.97182493233548
C           -1.72172552737443        0.89383275640381        0.97188697031229
C           -8.85970512597838       -3.83507540385124        0.73858727797687
C           -9.84855377773174       -4.80012856598719        0.69553350508101
H          -10.47788965211187       -6.66363645766767       -0.15447109559693
H           -8.44027415521679       -6.91908852112315       -1.52406669411949
H           -6.68049435270052       -5.20631294711574       -1.44971215258414
H           -5.05206425827986       -4.36781084773538        0.08713571819663
H           -3.25088694816100       -2.70029013803985        0.13645516050536
H           -8.02668432381107       -1.28914503909464       -0.00285660777800
H           -8.03012193620643        1.43925732682417        0.01772111316827
H           -8.92237387953096        3.12662212760159        1.48155479153754
H          -10.69148176108160        4.83230135545832        1.46635221345688
H          -10.49257460247953        6.81113752082729        0.00436889550967
H           -8.51445870272289        7.06720772729599       -1.44937657454997
H           -6.75191478352982        5.35586859639399       -1.44856124254141
H           -5.05962196784984        4.52288392847705       -0.00953044211339
H           -3.25519874101390        2.85911972577898       -0.00262558039614
H           -2.23667422969076       -1.31816073273454       -1.54046418883140
H            0.20305286162017       -1.30530409440448       -1.53176548611134
H            2.07902657820927       -1.91968958952611       -0.57293732887990
H            4.51807502692261       -1.86793479428559       -0.58968912513189
H            6.51094406159765        2.18051201975269        0.63242107745446
H           10.87236817389044        0.76524724007182        0.82716782691104
H           12.54018792180801        2.50501352029959        1.35222747765415
H           11.87287817081446        4.88594813319502        1.38353184825550
H            9.53917190203734        5.50684436257601        0.87001326503996
H            7.89015161672973        3.79043033087273        0.33208868374692
H            6.76058983604522       -3.47243822069053       -0.67071333561868
H            7.76000184494862       -5.65002406058809       -1.29709496250251
H           10.18526698113895       -5.81045024607627       -1.72131210102037
H           11.60622337984175       -3.80338187916642       -1.52548410290391
H           10.59159955441385       -1.63122720818710       -0.90035371958398
H            4.43483072577133        2.21222549939290        0.72488814622396
H            2.02816785097943        2.16586332468727        0.73466617222847
H            0.17118115035433        1.50885847267900        1.69948860933495
H           -2.26822048235208        1.48429078947974        1.69244826862239
H           -8.97268543218131       -2.97904105245009        1.38794051332243
H          -10.73736180934410       -4.68599321110055        1.29952149069338

          :  Hamiltonian                  GFN2-xTB          :
         :: gradient norm              0.000053801306 Eh/a0 ::
         :: HOMO-LUMO gap              0.394329338487 eV    ::
         :: SCC energy              -140.595474111705 Eh    ::
         :: -> dispersion             -0.118085954830 Eh    ::
         :: -> Gsolv                  -0.063945970107 Eh    ::
         :: repulsion energy           2.620687979674 Eh    ::

    * Orbital Energies and Occupations

         #    Occupation            Energy/Eh            Energy/eV
      -------------------------------------------------------------
         1        2.0000           -0.6901251             -18.7793
       ...           ...                  ...                  ...
       118        2.0000           -0.4067578             -11.0684
       119        2.0000           -0.4045351             -11.0080
       120        2.0000           -0.4031995             -10.9716
       121        2.0000           -0.4005815             -10.9004
       122        2.0000           -0.3992389             -10.8638
       123        2.0000           -0.3992003             -10.8628
       124        2.0000           -0.3959466             -10.7743
       125        2.0000           -0.3922044             -10.6724
       126        2.0000           -0.3863424             -10.5129
       127        2.0000           -0.3791056             -10.3160
       128        1.5631           -0.3644035              -9.9159
       129        1.4369           -0.3639215              -9.9028
       130        0.9995           -0.2815665              -7.6618 (HOMO)
       131        0.0005           -0.2670751              -7.2675 (LUMO)
       132                         -0.2565291              -6.9805
       133                         -0.2522401              -6.8638
       134                         -0.2497829              -6.7969
       135                         -0.2384782              -6.4893
       136                         -0.2286378              -6.2216
       137                         -0.2253421              -6.1319
       138                         -0.2247888              -6.1168
       139                         -0.2246903              -6.1141
       140                         -0.2222087              -6.0466
       141                         -0.2199112              -5.9841
       ...                                ...                  ...
       255                          0.7371735              20.0595
      -------------------------------------------------------------
                  HL-Gap            0.0144914 Eh            0.3943 eV

     #   Z          covCN         q      C6AA      α(0)
     1   6 C        2.920    -0.030    28.756     8.794
     2   6 C        2.918    -0.030    28.740     8.791
     3   6 C        2.924    -0.034    28.841     8.807
     4   6 C        2.977     0.011    27.756     8.642
     5   6 C        2.976     0.008    27.826     8.653
     6   6 C        2.927    -0.036    28.894     8.815
     7   6 C        2.908    -0.043    29.074     8.842
     8   6 C        3.074     0.045    26.908     8.505
     9   6 C        3.062    -0.012    28.249     8.716
    10   6 C        2.917    -0.034    28.842     8.807
    11   6 C        3.062    -0.012    28.249     8.716
    12   6 C        2.917    -0.034    28.843     8.807
    13   6 C        2.976     0.008    27.829     8.653
    14   6 C        2.977     0.011    27.758     8.642
    15   6 C        2.925    -0.034    28.843     8.807
    16   6 C        2.918    -0.030    28.742     8.791
    17   6 C        2.920    -0.030    28.759     8.794
    18   6 C        2.918    -0.030    28.741     8.791
    19   6 C        2.924    -0.034    28.843     8.807
    20   6 C        2.927    -0.036    28.896     8.816
    21   6 C        2.908    -0.043    29.077     8.842
    22   6 C        3.075     0.045    26.910     8.505
    23   7 N        2.800    -0.010    21.442     6.877
    24   6 C        2.913     0.051    26.866     8.499
    25   6 C        2.917    -0.042    29.037     8.836
    26   6 C        2.923    -0.036    28.904     8.816
    27   6 C        2.971     0.011    27.761     8.642
    28   6 C        2.972    -0.008    28.214     8.713
    29   6 C        2.918    -0.038    28.952     8.823
    30   6 C        2.921    -0.038    28.952     8.824
    31   6 C        2.973    -0.010    28.260     8.720
    32   6 C        2.936     0.076    26.313     8.413
    33   6 C        2.912    -0.060    29.489     8.905
    34   6 C        2.939     0.086    26.075     8.375
    35   6 C        2.976    -0.002    28.060     8.689
    36   6 C        2.926    -0.032    28.791     8.799
    37   6 C        2.917    -0.031    28.781     8.797
    38   6 C        2.919    -0.035    28.882     8.813
    39   6 C        2.917    -0.032    28.791     8.799
    40   6 C        2.922    -0.039    28.971     8.827
    41   7 N        1.851    -0.277    28.030     7.847
    42   6 C        2.892     0.191    23.921     8.019
    43   6 C        2.983    -0.003    28.083     8.693
    44   6 C        2.924    -0.028    28.694     8.785
    45   6 C        2.918    -0.029    28.720     8.788
    46   6 C        2.920    -0.027    28.671     8.781
    47   6 C        2.918    -0.029    28.717     8.788
    48   6 C        2.924    -0.028    28.697     8.785
    49   7 N        1.853    -0.259    27.588     7.785
    50   6 C        2.916    -0.045    29.129     8.850
    51   6 C        2.919    -0.038    28.947     8.823
    52   6 C        2.923    -0.036    28.906     8.817
    53   6 C        2.917    -0.042    29.039     8.837
    54   6 C        2.924    -0.034    28.841     8.807
    55   6 C        2.918    -0.030    28.741     8.791
    56   1 H        0.926     0.032     2.555     2.500
    57   1 H        0.926     0.033     2.549     2.496
    58   1 H        0.926     0.035     2.515     2.480
    59   1 H        0.926     0.043     2.413     2.429
    60   1 H        0.926     0.043     2.406     2.425
    61   1 H        0.926     0.045     2.386     2.415
    62   1 H        0.926     0.045     2.388     2.417
    63   1 H        0.926     0.036     2.508     2.477
    64   1 H        0.926     0.033     2.544     2.494
    65   1 H        0.926     0.032     2.556     2.500
    66   1 H        0.926     0.032     2.551     2.498
    67   1 H        0.926     0.035     2.519     2.482
    68   1 H        0.926     0.042     2.416     2.431
    69   1 H        0.926     0.043     2.411     2.428
    70   1 H        0.926     0.043     2.408     2.427
    71   1 H        0.926     0.040     2.444     2.445
    72   1 H        0.926     0.029     2.602     2.522
    73   1 H        0.926     0.032     2.561     2.502
    74   1 H        0.926     0.030     2.593     2.518
    75   1 H        0.926     0.038     2.474     2.460
    76   1 H        0.926     0.032     2.554     2.499
    77   1 H        0.926     0.032     2.564     2.504
    78   1 H        0.926     0.031     2.574     2.509
    79   1 H        0.926     0.026     2.645     2.543
    80   1 H        0.926     0.045     2.390     2.417
    81   1 H        0.926     0.041     2.429     2.437
    82   1 H        0.926     0.042     2.416     2.431
    83   1 H        0.926     0.041     2.434     2.439
    84   1 H        0.926     0.046     2.373     2.409
    85   1 H        0.926     0.018     2.764     2.600
    86   1 H        0.926     0.027     2.629     2.536
    87   1 H        0.926     0.039     2.457     2.451
    88   1 H        0.926     0.043     2.413     2.429
    89   1 H        0.926     0.036     2.509     2.477
    90   1 H        0.926     0.033     2.544     2.494

molecular dipole:
                 x           y           z       tot (Debye)
 q only:       -4.575      -0.418      -0.081
   full:       -4.600      -0.096       0.000      11.695

 projected vibrational frequencies (cm⁻¹)
eigval :       -0.00    -0.00    -0.00     0.00     0.00     0.00
eigval :        5.18     7.46    10.65    22.72    30.64    31.04
eigval :       32.89    37.43    39.76    41.42    48.55    52.54
eigval :       53.34    59.19    73.94    77.08    89.35    93.69
eigval :       98.28   107.93   109.46   122.29   148.05   151.11
eigval :      165.22   176.79   203.37   211.60   217.63   220.27
eigval :      227.53   241.68   260.62   266.24   272.42   290.89
eigval :      303.30   320.64   342.98   361.71   367.27   367.97
eigval :      369.57   369.73   370.00   374.80   377.85   385.94
eigval :      390.46   396.19   403.87   417.45   428.13   439.38
eigval :      447.67   465.29   475.09   479.25   480.93   502.31
eigval :      513.73   541.07   551.05   554.53   573.46   580.03
eigval :      582.11   585.05   586.23   589.42   590.06   591.14
eigval :      593.03   600.33   606.37   619.43   627.07   627.87
eigval :      648.05   652.94   659.12   661.96   665.22   670.27
eigval :      671.17   684.46   687.54   706.18   712.07   737.48
eigval :      747.35   751.64   756.32   756.92   765.72   791.18
eigval :      806.23   816.75   820.07   827.54   828.87   830.68
eigval :      837.03   854.22   859.84   863.66   870.21   871.32
eigval :      874.20   877.44   879.33   887.51   900.40   900.50
eigval :      901.12   904.76   905.49   908.27   910.05   913.01
eigval :      923.00   923.63   924.30   924.53   927.22   928.85
eigval :      929.52   929.82   930.35   930.88   931.58   932.37
eigval :      970.04   972.25   979.63   981.21   984.11  1004.90
eigval :     1024.90  1052.69  1058.42  1068.22  1068.55  1073.55
eigval :     1077.77  1082.31  1084.07  1084.68  1104.80  1113.00
eigval :     1119.45  1119.64  1123.06  1129.60  1137.60  1147.88
eigval :     1152.91  1166.56  1176.31  1177.30  1178.71  1180.03
eigval :     1180.33  1195.22  1195.88  1197.45  1200.80  1203.52
eigval :     1216.86  1217.23  1223.34  1241.48  1254.11  1265.61
eigval :     1267.44  1275.18  1277.89  1278.88  1279.16  1286.34
eigval :     1287.60  1290.04  1296.61  1301.96  1315.29  1316.87
eigval :     1317.57  1323.99  1327.41  1329.94  1338.72  1346.08
eigval :     1349.47  1359.35  1381.35  1395.63  1403.31  1417.18
eigval :     1424.09  1427.33  1427.88  1428.11  1433.41  1438.95
eigval :     1444.86  1447.76  1461.19  1463.73  1467.05  1471.15
eigval :     1475.33  1484.79  1488.55  1491.60  1504.46  1538.56
eigval :     1551.82  1557.75  1562.82  1566.65  1576.22  1576.74
eigval :     1582.08  1584.84  1586.89  1588.12  1593.07  1596.08
eigval :     1602.23  3066.10  3067.22  3068.22  3068.32  3068.53
eigval :     3069.67  3069.77  3070.67  3072.31  3076.43  3078.05
eigval :     3078.09  3079.84  3080.42  3081.29  3081.36  3081.79
eigval :     3082.53  3085.34  3086.29  3086.57  3086.99  3088.59
eigval :     3089.32  3089.54  3092.50  3092.55  3093.21  3094.89
eigval :     3095.27  3095.70  3097.61  3098.55  3099.49  3112.06

   temp. (K)  partition function   enthalpy   heat capacity  entropy
                                   cal/mol     cal/K/mol   cal/K/mol   J/K/mol
 298.15  VIB  0.548E+22            26102.774    162.216    165.212
         ROT  0.266E+09              888.752      2.981     41.535
         INT  0.146E+31            26991.526    165.197    206.747
         TR   0.180E+29             1481.254      4.968     45.506
         TOT                       28472.7803   170.1655   252.2529  1055.4260

       T/K    H(0)-H(T)+PV         H(T)/Eh          T*S/Eh         G(T)/Eh
   ------------------------------------------------------------------------
    298.15    0.453743E-01    0.735378E+00    0.119853E+00    0.615524E+00
   ------------------------------------------------------------------------

         :::::::::::::::::::::::::::::::::::::::::::::::::::::
         ::                  THERMODYNAMIC                  ::
         :::::::::::::::::::::::::::::::::::::::::::::::::::::
         :: total free energy        -137.359261872627 Eh   ::
         ::.................................................::
         :: total energy             -137.974786133995 Eh   ::
         :: zero point energy           0.690003469896 Eh   ::
         :: G(RRHO) w/o ZPVE           -0.074479208527 Eh   ::
         :: G(RRHO) contrib.            0.615524261368 Eh   ::
         :::::::::::::::::::::::::::::::::::::::::::::::::::::

           -------------------------------------------------
          | TOTAL ENERGY             -137.974786133995 Eh   |
          | TOTAL ENTHALPY           -137.239408400505 Eh   |
          | TOTAL FREE ENERGY        -137.359261872627 Eh   |
          | GRADIENT NORM               0.000054592699 Eh/α |
          | HOMO-LUMO GAP               0.394331727828 eV   |
           -------------------------------------------------

 * finished run on 2025/07/17 at 07:00:49.954
