   * xtb version 6.7.1 (edcfbbe) compiled by 'albert@albert-system' on 2024-07-22

   ID    Z sym.   atoms
    1    6 C      1-22, 24-40, 42-48, 50-55
    2    7 N      23, 41, 49
    3    1 H      56-90

          program call               : xtb data2507/toluene/PhCz-Pyr/PhCz-Pyr_toluene_S0_crest.xyz --gfn 2 --gbsa toluene --ohess vtight --parallel 40 --molden --ceasefiles --namespace data2507/toluene/PhCz-Pyr/PhCz-Pyr_toluene_S0_finalOpt
      * Solvation model:               GBSA
        Solvent                        toluene
        Solvent mass                       9.2140E+01 g/mol
          :  Hamiltonian                  GFN2-xTB          :
 * total energy  :  -138.0545927 Eh     change       -0.2585125E-08 Eh
 * total energy  :  -138.0546261 Eh     change       -0.3343169E-04 Eh
 * total energy  :  -138.0546419 Eh     change       -0.1579206E-04 Eh
 * total energy  :  -138.0546489 Eh     change       -0.6964491E-05 Eh
 * total energy  :  -138.0546564 Eh     change       -0.7507563E-05 Eh
 * total energy  :  -138.0546597 Eh     change       -0.3349101E-05 Eh
 * total energy  :  -138.0546641 Eh     change       -0.4407035E-05 Eh
 * total energy  :  -138.0546686 Eh     change       -0.4466352E-05 Eh
 * total energy  :  -138.0546724 Eh     change       -0.3793568E-05 Eh
 * total energy  :  -138.0546762 Eh     change       -0.3774219E-05 Eh
 * total energy  :  -138.0547900 Eh     change       -0.2003864E-06 Eh
 * total energy  :  -138.0547902 Eh     change       -0.1727448E-06 Eh
 * total energy  :  -138.0547903 Eh     change       -0.1306198E-06 Eh
 * total energy  :  -138.0547905 Eh     change       -0.1339771E-06 Eh
 * total energy  :  -138.0547906 Eh     change       -0.1313088E-06 Eh
 * total energy  :  -138.0547907 Eh     change       -0.1294962E-06 Eh
 * total energy  :  -138.0547909 Eh     change       -0.1340135E-06 Eh
 * total energy  :  -138.0547910 Eh     change       -0.1360052E-06 Eh
 * total energy  :  -138.0547910 Eh     change       -0.1575671E-08 Eh
   *** GEOMETRY OPTIMIZATION CONVERGED AFTER 68 ITERATIONS ***

 final structure:
================
90
 xtb: 6.7.1 (edcfbbe)
C           -9.71183360095460       -5.90951979207471       -0.54798818082040
C           -8.59173547868572       -5.99141557795050       -1.35882792452758
C           -7.59810112283652       -5.03365150715504       -1.27199501292027
C           -7.70945930865337       -3.97267795378389       -0.37550504712761
C           -6.65527775919017       -2.94980049467487       -0.28463253303135
C           -5.30572693894197       -3.32940207629355       -0.30089164836101
C           -4.28294766281446       -2.40669842166304       -0.21896547875433
C           -4.62177852066377       -1.06330675201885       -0.13438882646210
C           -5.97680527774064       -0.66075620413413       -0.09505179083480
C           -6.98837954754539       -1.60581150034362       -0.17151130056221
C           -5.97255463357410        0.77022367782108        0.04264736701143
C           -6.97802590637033        1.72141818483718        0.12402463412764
C           -6.63626542391986        3.06392584488536        0.23015116437962
C           -7.68327403134329        4.09374137559099        0.32569536031313
C           -8.80316377525757        3.89337786014216        1.13054759863896
C           -9.78528270001805        4.86182719080529        1.22779115755042
C           -9.66809997622202        6.04707262697942        0.52049955034874
C           -8.56166519153116        6.25593586424541       -0.28634730129979
C           -7.57709396021154        5.28969293062879       -0.38161020368262
C           -5.28427790501302        3.43478254443610        0.24230159560412
C           -4.26750116889660        2.50469044331694        0.17108543191034
C           -4.61503681665843        1.16355952291944        0.08663192502450
N           -3.81015459014966        0.04750935325523       -0.02243949585186
C           -2.40785632408994        0.04563642796984       -0.01432608358638
C           -1.69837892653406       -0.61139877543001       -1.01610563452415
C           -0.31800377032657       -0.61067707970775       -1.00224290719557
C            0.38798157046691        0.05698957185239       -0.00237238038023
C            1.85695636130027        0.06988201140744       -0.00005985745343
C            2.58366959748038       -1.07910630568028       -0.31240517681373
C            3.96242057633362       -1.06396924407636       -0.30513638387334
C            4.66037601172667        0.10506680832715       -0.00249927992565
C            6.12756404972820        0.09187232040505       -0.01338813361873
C            6.88744322458650        1.23220270005763       -0.27411679307931
C            8.27469832649197        1.09382404193677       -0.26061454747188
C            9.18348213089204        2.21856957746737       -0.52130024951413
C           10.45375188227665        2.21536992112062        0.05305099701486
C           11.32633858627574        3.26311725797212       -0.17044760333006
C           10.94644204454460        4.32333564182221       -0.97832777769632
C            9.69076052753800        4.32849129896225       -1.56396264364255
C            8.81187519693006        3.28510725214041       -1.33750085370008
N            8.84098014675563       -0.08117739031775        0.01076887383831
C            8.04399855047239       -1.12036870070362        0.23665564333727
C            8.67966376387942       -2.41025706901814        0.52561521475276
C            7.90644247222469       -3.50535049680292        0.90737041452307
C            8.50845417252533       -4.71770174591135        1.18571504660910
C            9.88489957093085       -4.85051715203222        1.08632135435210
C           10.65955923540024       -3.76548439567542        0.70579785607388
C           10.06279756244386       -2.55088946737746        0.42573212301396
N            6.71610092770550       -1.07988947895438        0.22453880893794
C            3.93701704764681        1.25417192480665        0.31246813114167
C            2.55718801933357        1.23288504812600        0.31876532513772
C           -0.33194213228016        0.71493228081063        0.99410113927425
C           -1.71206223791633        0.70429768961678        0.99612742197373
C           -8.84182475630217       -3.90000231756255        0.43344262416055
C           -9.83278799571666       -4.86059510178789        0.34862326986401
H          -10.48710368026599       -6.65903316619626       -0.61515737712961
H           -8.49352202240430       -6.80491497541893       -2.06377697171227
H           -6.73472519486829       -5.09478776176039       -1.91917758830941
H           -5.06183795036488       -4.38040319124401       -0.35415673598808
H           -3.25165398237640       -2.72592238319568       -0.20885030571021
H           -8.02321980895729       -1.29769983956897       -0.16110239944049
H           -8.01476301757856        1.42301782200245        0.07825648452254
H           -8.89263890566897        2.97812565103057        1.69826863697461
H          -10.64489609545319        4.69332477896417        1.86110721268256
H          -10.43555267912615        6.80372460666243        0.59693610073413
H           -8.46661320057238        7.17619304130105       -0.84532399446203
H           -6.72513023332049        5.45335701995007       -1.02604646877775
H           -5.03258586810678        4.48170240757488        0.32880723973014
H           -3.23396137519611        2.81659000150573        0.17474193639219
H           -2.23539252526505       -1.10666212400185       -1.81140220243062
H            0.22163287718161       -1.10746677980114       -1.79479961105165
H            2.06032538649943       -1.99593898264292       -0.54035854444552
H            4.52581556661482       -1.95423185242771       -0.53965402563300
H            6.42206690606364        2.18132378349333       -0.47893636668204
H           10.73477202349034        1.38261438676148        0.67955538043596
H           12.30587430771872        3.25320946721427        0.28472278232404
H           11.62861879201570        5.14181596321031       -1.15502903467762
H            9.39555717462591        5.14771467487279       -2.20329602535317
H            7.84428098915443        3.28906032680422       -1.81780852711239
H            6.83710981634910       -3.38402559897125        0.98558573806683
H            7.90423530565189       -5.56253036374931        1.48289522967779
H           10.35357701528483       -5.79889338182190        1.30538980724392
H           11.73208388312394       -3.86859595610693        0.62689106403452
H           10.65102770885434       -1.69791142980543        0.12441137822474
H            4.45365080261161        2.16493429609579        0.57774840448890
H            2.01246172910998        2.13500059643596        0.55567893798605
H            0.19644211000572        1.21427537631740        1.79262041701305
H           -2.25991725200402        1.19389012076438        1.78757281102038
H           -8.93479911210598       -3.09334509108960        1.14663937439822
H          -10.70268147155434       -4.79294873435120        0.98669935483532

          :  Hamiltonian                  GFN2-xTB          :
         :: gradient norm              0.000025205673 Eh/a0 ::
         :: HOMO-LUMO gap              2.045802856550 eV    ::
         :: SCC energy              -140.685243703009 Eh    ::
         :: -> dispersion             -0.117948439607 Eh    ::
         :: -> Gsolv                  -0.061973672900 Eh    ::
         :: repulsion energy           2.630452691555 Eh    ::

    * Orbital Energies and Occupations

         #    Occupation            Energy/Eh            Energy/eV
      -------------------------------------------------------------
         1        2.0000           -0.6772109             -18.4278
       ...           ...                  ...                  ...
       117        2.0000           -0.4104780             -11.1697
       118        2.0000           -0.4078009             -11.0968
       119        2.0000           -0.4070066             -11.0752
       120        2.0000           -0.4018905             -10.9360
       121        2.0000           -0.4016812             -10.9303
       122        2.0000           -0.4013182             -10.9204
       123        2.0000           -0.3992968             -10.8654
       124        2.0000           -0.3973974             -10.8137
       125        2.0000           -0.3904158             -10.6238
       126        2.0000           -0.3902931             -10.6204
       127        2.0000           -0.3763607             -10.2413
       128        2.0000           -0.3639248              -9.9029
       129        2.0000           -0.3579449              -9.7402 (HOMO)
       130                         -0.2827630              -7.6944 (LUMO)
       131                         -0.2739845              -7.4555
       132                         -0.2521451              -6.8612
       133                         -0.2444806              -6.6527
       134                         -0.2428068              -6.6071
       135                         -0.2337911              -6.3618
       136                         -0.2323598              -6.3228
       137                         -0.2300787              -6.2608
       138                         -0.2297362              -6.2514
       139                         -0.2251592              -6.1269
       140                         -0.2242077              -6.1010
       ...                                ...                  ...
       255                          0.7475183              20.3410
      -------------------------------------------------------------
                  HL-Gap            0.0751819 Eh            2.0458 eV

     #   Z          covCN         q      C6AA      α(0)
     1   6 C        2.920    -0.034    28.840     8.807
     2   6 C        2.918    -0.032    28.786     8.798
     3   6 C        2.925    -0.036    28.896     8.815
     4   6 C        2.977     0.010    27.800     8.649
     5   6 C        2.976    -0.003    28.086     8.693
     6   6 C        2.928    -0.039    28.963     8.826
     7   6 C        2.908    -0.052    29.293     8.875
     8   6 C        3.076     0.046    26.892     8.502
     9   6 C        3.065    -0.019    28.405     8.740
    10   6 C        2.918    -0.039    28.965     8.826
    11   6 C        3.064    -0.019    28.405     8.740
    12   6 C        2.918    -0.039    28.965     8.826
    13   6 C        2.976    -0.003    28.088     8.693
    14   6 C        2.977     0.010    27.800     8.649
    15   6 C        2.925    -0.036    28.892     8.815
    16   6 C        2.918    -0.031    28.784     8.798
    17   6 C        2.920    -0.034    28.840     8.807
    18   6 C        2.918    -0.032    28.786     8.798
    19   6 C        2.925    -0.036    28.897     8.816
    20   6 C        2.928    -0.039    28.967     8.826
    21   6 C        2.908    -0.052    29.295     8.875
    22   6 C        3.077     0.046    26.893     8.502
    23   7 N        2.801    -0.043    22.064     6.976
    24   6 C        2.913     0.063    26.592     8.456
    25   6 C        2.920    -0.042    29.053     8.839
    26   6 C        2.924    -0.032    28.803     8.801
    27   6 C        2.976     0.008    27.824     8.652
    28   6 C        2.976     0.015    27.667     8.628
    29   6 C        2.922    -0.033    28.822     8.804
    30   6 C        2.924    -0.025    28.633     8.775
    31   6 C        2.980    -0.002    28.077     8.692
    32   6 C        2.966     0.113    25.515     8.285
    33   6 C        2.912    -0.072    29.794     8.951
    34   6 C        2.967     0.113    25.515     8.285
    35   6 C        2.980    -0.000    28.028     8.684
    36   6 C        2.926    -0.025    28.618     8.773
    37   6 C        2.918    -0.028    28.692     8.784
    38   6 C        2.920    -0.026    28.656     8.778
    39   6 C        2.918    -0.029    28.718     8.788
    40   6 C        2.923    -0.032    28.803     8.801
    41   7 N        1.849    -0.295    28.491     7.911
    42   6 C        2.943     0.190    23.948     8.026
    43   6 C        2.984    -0.004    28.122     8.699
    44   6 C        2.924    -0.029    28.720     8.788
    45   6 C        2.918    -0.029    28.724     8.789
    46   6 C        2.920    -0.026    28.651     8.778
    47   6 C        2.918    -0.029    28.723     8.789
    48   6 C        2.924    -0.029    28.719     8.788
    49   7 N        1.849    -0.294    28.483     7.910
    50   6 C        2.921    -0.033    28.813     8.803
    51   6 C        2.923    -0.034    28.848     8.808
    52   6 C        2.924    -0.032    28.805     8.801
    53   6 C        2.920    -0.042    29.054     8.839
    54   6 C        2.925    -0.036    28.892     8.815
    55   6 C        2.918    -0.031    28.784     8.798
    56   1 H        0.926     0.028     2.609     2.526
    57   1 H        0.926     0.029     2.602     2.522
    58   1 H        0.926     0.030     2.580     2.512
    59   1 H        0.926     0.033     2.547     2.496
    60   1 H        0.926     0.032     2.560     2.502
    61   1 H        0.926     0.032     2.554     2.499
    62   1 H        0.926     0.032     2.555     2.500
    63   1 H        0.926     0.030     2.583     2.513
    64   1 H        0.926     0.029     2.603     2.523
    65   1 H        0.926     0.028     2.609     2.526
    66   1 H        0.926     0.029     2.604     2.523
    67   1 H        0.926     0.030     2.582     2.513
    68   1 H        0.926     0.033     2.548     2.496
    69   1 H        0.926     0.032     2.564     2.504
    70   1 H        0.926     0.044     2.398     2.421
    71   1 H        0.926     0.044     2.399     2.422
    72   1 H        0.926     0.043     2.405     2.425
    73   1 H        0.926     0.048     2.340     2.392
    74   1 H        0.926     0.037     2.495     2.470
    75   1 H        0.926     0.047     2.356     2.400
    76   1 H        0.926     0.041     2.436     2.441
    77   1 H        0.926     0.041     2.432     2.439
    78   1 H        0.926     0.040     2.453     2.449
    79   1 H        0.926     0.035     2.523     2.484
    80   1 H        0.926     0.050     2.321     2.382
    81   1 H        0.926     0.041     2.440     2.443
    82   1 H        0.926     0.042     2.427     2.436
    83   1 H        0.926     0.040     2.442     2.444
    84   1 H        0.926     0.050     2.324     2.384
    85   1 H        0.926     0.035     2.510     2.478
    86   1 H        0.926     0.042     2.422     2.434
    87   1 H        0.926     0.043     2.407     2.426
    88   1 H        0.926     0.044     2.401     2.423
    89   1 H        0.926     0.030     2.586     2.515
    90   1 H        0.926     0.029     2.604     2.524

molecular dipole:
                 x           y           z       tot (Debye)
 q only:        0.566       0.251      -0.053
   full:        0.435       0.618      -0.130       1.949

 projected vibrational frequencies (cm⁻¹)
eigval :       -0.00    -0.00     0.00     0.00     0.00     0.00
eigval :        7.69    10.70    13.09    22.60    30.38    34.01
eigval :       37.20    39.74    43.41    45.76    52.63    55.18
eigval :       56.51    64.42    69.22    80.81    86.31    91.68
eigval :       99.01   103.83   114.93   126.64   137.68   152.96
eigval :      168.10   187.26   199.16   215.61   216.62   225.79
eigval :      237.08   249.12   264.22   266.76   277.35   295.51
eigval :      304.86   322.73   345.53   365.11   368.06   368.78
eigval :      369.06   371.35   373.68   378.10   382.08   384.64
eigval :      400.07   403.07   412.38   429.30   435.38   450.16
eigval :      454.65   471.95   477.70   484.65   496.63   507.33
eigval :      530.01   552.36   556.75   572.46   582.98   586.67
eigval :      586.90   587.57   591.89   600.72   603.42   606.34
eigval :      607.33   619.38   619.90   625.92   630.52   634.78
eigval :      659.61   665.69   667.82   674.10   674.25   685.37
eigval :      687.99   708.01   710.37   716.17   737.96   739.53
eigval :      753.41   758.73   762.19   765.86   780.59   808.44
eigval :      824.01   826.46   830.42   836.01   844.17   848.74
eigval :      860.86   870.22   872.49   875.03   876.28   878.58
eigval :      878.79   882.55   884.75   899.86   901.78   906.58
eigval :      907.09   910.64   910.95   912.95   917.67   926.96
eigval :      927.84   928.97   929.85   930.53   931.24   931.57
eigval :      932.93   933.24   935.20   936.53   936.90   966.99
eigval :      971.32   980.77   987.68   991.84  1016.88  1025.90
eigval :     1026.67  1070.83  1071.22  1074.56  1077.07  1079.06
eigval :     1085.55  1086.76  1088.05  1104.40  1110.53  1120.25
eigval :     1121.17  1124.27  1131.87  1134.14  1141.83  1157.60
eigval :     1170.37  1176.70  1179.34  1181.29  1181.66  1182.57
eigval :     1193.83  1196.19  1199.17  1200.49  1202.31  1205.07
eigval :     1220.78  1222.07  1223.52  1244.28  1246.95  1264.52
eigval :     1268.66  1269.49  1278.22  1280.54  1280.76  1282.27
eigval :     1289.97  1304.97  1306.79  1312.87  1316.80  1318.03
eigval :     1319.90  1320.95  1326.03  1344.94  1357.86  1360.24
eigval :     1364.17  1375.21  1390.37  1399.43  1407.75  1414.06
eigval :     1428.94  1429.59  1431.75  1433.37  1436.28  1460.11
eigval :     1466.82  1467.94  1475.47  1477.92  1493.18  1496.47
eigval :     1503.04  1512.91  1528.47  1553.41  1561.57  1567.52
eigval :     1573.30  1580.78  1581.26  1582.37  1583.65  1586.80
eigval :     1591.99  1594.23  1595.22  1596.62  1599.83  1601.87
eigval :     1613.56  3064.08  3064.26  3065.35  3065.55  3071.25
eigval :     3073.25  3073.91  3073.92  3074.74  3075.93  3076.24
eigval :     3076.45  3076.60  3077.80  3078.14  3079.96  3081.49
eigval :     3082.55  3082.91  3083.26  3085.20  3086.37  3086.47
eigval :     3086.79  3087.29  3089.58  3090.91  3091.20  3091.75
eigval :     3094.19  3098.63  3098.96  3100.55  3102.01  3110.08

   temp. (K)  partition function   enthalpy   heat capacity  entropy
                                   cal/mol     cal/K/mol   cal/K/mol   J/K/mol
 298.15  VIB  0.857E+21            25749.714    160.706    162.512
         ROT  0.266E+09              888.752      2.981     41.531
         INT  0.228E+30            26638.466    163.686    204.043
         TR   0.180E+29             1481.254      4.968     45.506
         TOT                       28119.7200   168.6546   249.5487  1044.1119

       T/K    H(0)-H(T)+PV         H(T)/Eh          T*S/Eh         G(T)/Eh
   ------------------------------------------------------------------------
    298.15    0.448116E-01    0.739104E+00    0.118569E+00    0.620536E+00
   ------------------------------------------------------------------------

         :::::::::::::::::::::::::::::::::::::::::::::::::::::
         ::                  THERMODYNAMIC                  ::
         :::::::::::::::::::::::::::::::::::::::::::::::::::::
         :: total free energy        -137.434255226485 Eh   ::
         ::.................................................::
         :: total energy             -138.054791013122 Eh   ::
         :: zero point energy           0.694292814564 Eh   ::
         :: G(RRHO) w/o ZPVE           -0.073757027927 Eh   ::
         :: G(RRHO) contrib.            0.620535786637 Eh   ::
         :::::::::::::::::::::::::::::::::::::::::::::::::::::

           -------------------------------------------------
          | TOTAL ENERGY             -138.054791013122 Eh   |
          | TOTAL ENTHALPY           -137.315686572375 Eh   |
          | TOTAL FREE ENERGY        -137.434255226485 Eh   |
          | GRADIENT NORM               0.000025206848 Eh/α |
          | HOMO-LUMO GAP               2.045802806605 eV   |
           -------------------------------------------------

 * finished run on 2025/07/17 at 07:00:28.325
