   * xtb version 6.7.1 (edcfbbe) compiled by 'albert@albert-system' on 2024-07-22

   ID    Z sym.   atoms
    1    6 C      1-22, 24-40, 42-48, 50-55
    2    7 N      23, 41, 49
    3    1 H      56-90

          program call               : xtb data2507/toluene/PhCz-Pyr/PhCz-Pyr.xyz --gfn 2 --gbsa toluene --ohess vtight --parallel 40 --molden --ceasefiles --namespace data2507/toluene/PhCz-Pyr/PhCz-Pyr_toluene_S0_preOpt
      * Solvation model:               GBSA
        Solvent                        toluene
        Solvent mass                       9.2140E+01 g/mol
          :  Hamiltonian                  GFN2-xTB          :
 * total energy  :  -138.0346876 Eh     change       -0.3014691E-08 Eh
 * total energy  :  -138.0471679 Eh     change       -0.1248037E-01 Eh
 * total energy  :  -138.0502807 Eh     change       -0.3112716E-02 Eh
 * total energy  :  -138.0512873 Eh     change       -0.1006668E-02 Eh
 * total energy  :  -138.0520505 Eh     change       -0.7631892E-03 Eh
 * total energy  :  -138.0524003 Eh     change       -0.3497961E-03 Eh
 * total energy  :  -138.0526344 Eh     change       -0.2340871E-03 Eh
 * total energy  :  -138.0527908 Eh     change       -0.1563726E-03 Eh
 * total energy  :  -138.0529343 Eh     change       -0.1434747E-03 Eh
 * total energy  :  -138.0530787 Eh     change       -0.1444280E-03 Eh
 * total energy  :  -138.0544661 Eh     change       -0.1279581E-05 Eh
 * total energy  :  -138.0544676 Eh     change       -0.1438300E-05 Eh
 * total energy  :  -138.0544691 Eh     change       -0.1542989E-05 Eh
 * total energy  :  -138.0544705 Eh     change       -0.1395830E-05 Eh
 * total energy  :  -138.0544718 Eh     change       -0.1260393E-05 Eh
 * total energy  :  -138.0544730 Eh     change       -0.1213877E-05 Eh
 * total energy  :  -138.0544743 Eh     change       -0.1314236E-05 Eh
 * total energy  :  -138.0544760 Eh     change       -0.1667625E-05 Eh
 * total energy  :  -138.0544760 Eh     change       -0.4867360E-08 Eh
   *** GEOMETRY OPTIMIZATION CONVERGED AFTER 122 ITERATIONS ***

 final structure:
================
90
 xtb: 6.7.1 (edcfbbe)
C           -9.44939757698226       -5.98784169116582       -1.00168591546328
C           -8.33041546574425       -5.98226390453177       -1.81813052681042
C           -7.36215654437991       -5.00698225793153       -1.66537327635410
C           -7.49798263032078       -4.01565112876783       -0.69544584534718
C           -6.47000882800483       -2.97509557789584       -0.53358466098968
C           -5.11136568791320       -3.31740662665413       -0.58320644357296
C           -4.11166119187621       -2.37720924269968       -0.43949933967547
C           -4.48289124447553       -1.05222247873277       -0.25648563067623
C           -5.84741961550785       -0.68999015991441       -0.17779314168403
C           -6.83560199095202       -1.65245266870232       -0.31738189401984
C           -5.87922964659539        0.72587938199506        0.06790350863996
C           -6.90935523718582        1.63839224112185        0.23567374290127
C           -6.60376269931609        2.97744710847239        0.44466872388013
C           -7.67842692618798        3.96320384196391        0.64298183308590
C           -8.77426715245815        3.66111571698627        1.44937681243417
C           -9.78330919671557        4.58579915377127        1.64550181070683
C           -9.71757129350908        5.82843512328389        1.03694635975135
C           -8.63520020711124        6.13901435149567        0.23022000665672
C           -7.62356098952218        5.21640648603456        0.03632644399200
C           -5.26270697246452        3.38543529714515        0.46408479770097
C           -4.22170894298504        2.49319092465677        0.30733343059034
C           -4.53229215960555        1.15236446309993        0.12708910521034
N           -3.69899656920899        0.06953556245565       -0.07150731218849
C           -2.29745769081133        0.09738223715058       -0.06522843154114
C           -1.57760121624655       -0.50350576083939       -1.09491162298048
C           -0.19742411773335       -0.49419507036955       -1.07328347282672
C            0.49763268486660        0.13405737742203       -0.04125507526625
C            1.96694716126420        0.14214834639202       -0.02223445253048
C            2.68725930858174       -1.01412729963103       -0.32060670197829
C            4.06578546204215       -1.01235294847989       -0.28709908614482
C            4.76726050655941        0.15273791761646        0.01983863204935
C            6.23451321376737        0.12864346105316        0.03781433893248
C            7.00488709405047        1.24098954861990       -0.30039948804938
C            8.39101664648569        1.09305323021029       -0.26328863946983
C            9.31294037689242        2.17830918791004       -0.62501410008182
C           10.57503366307409        1.86059886621374       -1.12511368804439
C           11.45893491974323        2.85982232186136       -1.48455964517708
C           11.09830032632601        4.19047194929706       -1.34189420877342
C            9.85122058833313        4.51581364955048       -0.83332065537880
C            8.96149930203206        3.51864136220748       -0.47779919316467
N            8.94375786750372       -0.06801082466634        0.08594940764077
C            8.13668210036558       -1.07787586300736        0.39316514080291
C            8.75799497571608       -2.34940444233625        0.77856515786911
C            7.96583402804762       -3.45513920589857        1.08335263523889
C            8.55327510903633       -4.65279833306390        1.44401596600001
C            9.93410574252803       -4.75983856767649        1.50660437012455
C           10.72769481753377       -3.66271526789399        1.20881470644480
C           10.14555886613348       -2.46271648811564        0.84705379177757
N            6.80889477138273       -1.02455225307597        0.37605740644910
C            4.05052598797263        1.31081006970700        0.31460360998257
C            2.67024043820923        1.30093088654944        0.30307305885831
C           -0.23123885790733        0.74787875443639        0.97598585223222
C           -1.61133502584652        0.72100722535768        0.97397164683111
C           -8.62913565944022       -4.03052265816388        0.11829079352538
C           -9.59484647800769       -5.00848509140135       -0.03292865039437
H          -10.20465670224496       -6.75124871276899       -1.12031535892746
H           -8.21331363444156       -6.74095690829647       -2.57909394107022
H           -6.50008972086039       -4.99916848030459       -2.31710998281097
H           -4.84099988239685       -4.35504114938295       -0.71389022488626
H           -3.07319209192957       -2.67167361141677       -0.45527322703445
H           -7.87755825014405       -1.37206727762858       -0.27746485942774
H           -7.93791600783896        1.31441663054311        0.18046600779400
H           -8.82308555080865        2.69978575126100        1.94081985924012
H          -10.62312765836154        4.33793235504327        2.27921466056131
H          -10.50625044652317        6.55091360513015        1.18996143789281
H           -8.58018447542732        7.10503028340608       -0.25159600276463
H           -6.79086969135076        5.46054101826274       -0.60778693927834
H           -5.03863170092978        4.42947259498467        0.62723314913909
H           -3.19777453227506        2.83494288786515        0.31860121185017
H           -2.10638156218684       -0.96497565346842       -1.91548730132046
H            0.35129909188330       -0.95427838542115       -1.88176647911406
H            2.15787440397548       -1.92562387577587       -0.55613062887390
H            4.62464744889208       -1.90947193522042       -0.50605043414393
H            6.54525407459479        2.15975788811096       -0.62386360471714
H           10.84046580640892        0.81993627471708       -1.23195236475414
H           12.43162017893759        2.60154320220491       -1.87690865129954
H           11.78839970248020        4.97261312157902       -1.62212250239103
H            9.57095016188474        5.55192871898009       -0.71095367974114
H            8.00060071351067        3.78520051942921       -0.06278285444920
H            6.89273023620349       -3.35407977265456        1.03480526957416
H            7.93403485938278       -5.50635522829555        1.67883045850477
H           10.39130907632984       -5.69701147663799        1.78896291318074
H           11.80369670551071       -3.74450869373140        1.26050028470905
H           10.74903731384527       -1.59838411503428        0.61680843273807
H            4.57423264196930        2.21775642483786        0.57974555924693
H            2.12759088482315        2.20675140547724        0.53090156641367
H            0.29096223196619        1.22094344357919        1.79447470489370
H           -2.16565615057852        1.16803078603334        1.78566406443422
H           -8.74060337468805       -3.27953986713243        0.88742483048100
H          -10.46387924308954       -5.00926700077188        0.60990463463208

          :  Hamiltonian                  GFN2-xTB          :
         :: gradient norm              0.000057414704 Eh/a0 ::
         :: HOMO-LUMO gap              2.064869483597 eV    ::
         :: SCC energy              -140.685211879958 Eh    ::
         :: -> dispersion             -0.118016933402 Eh    ::
         :: -> Gsolv                  -0.061890665718 Eh    ::
         :: repulsion energy           2.630735905599 Eh    ::

    * Orbital Energies and Occupations

         #    Occupation            Energy/Eh            Energy/eV
      -------------------------------------------------------------
         1        2.0000           -0.6772153             -18.4280
       ...           ...                  ...                  ...
       117        2.0000           -0.4105147             -11.1707
       118        2.0000           -0.4078973             -11.0994
       119        2.0000           -0.4072414             -11.0816
       120        2.0000           -0.4019145             -10.9367
       121        2.0000           -0.4016946             -10.9307
       122        2.0000           -0.4012160             -10.9176
       123        2.0000           -0.4000511             -10.8859
       124        2.0000           -0.3972808             -10.8106
       125        2.0000           -0.3905973             -10.6287
       126        2.0000           -0.3903114             -10.6209
       127        2.0000           -0.3763934             -10.2422
       128        2.0000           -0.3638955              -9.9021
       129        2.0000           -0.3579201              -9.7395 (HOMO)
       130                         -0.2820375              -7.6746 (LUMO)
       131                         -0.2742121              -7.4617
       132                         -0.2522061              -6.8629
       133                         -0.2444962              -6.6531
       134                         -0.2429004              -6.6097
       135                         -0.2340465              -6.3687
       136                         -0.2321662              -6.3176
       137                         -0.2302761              -6.2661
       138                         -0.2298159              -6.2536
       139                         -0.2251629              -6.1270
       140                         -0.2239858              -6.0950
       ...                                ...                  ...
       255                          0.7475113              20.3408
      -------------------------------------------------------------
                  HL-Gap            0.0758826 Eh            2.0649 eV

     #   Z          covCN         q      C6AA      α(0)
     1   6 C        2.920    -0.034    28.840     8.807
     2   6 C        2.918    -0.032    28.786     8.798
     3   6 C        2.925    -0.036    28.897     8.815
     4   6 C        2.977     0.010    27.800     8.649
     5   6 C        2.976    -0.003    28.084     8.693
     6   6 C        2.928    -0.039    28.965     8.826
     7   6 C        2.908    -0.052    29.294     8.875
     8   6 C        3.076     0.046    26.895     8.503
     9   6 C        3.065    -0.018    28.403     8.739
    10   6 C        2.918    -0.039    28.965     8.826
    11   6 C        3.065    -0.018    28.402     8.739
    12   6 C        2.918    -0.039    28.965     8.826
    13   6 C        2.976    -0.003    28.086     8.693
    14   6 C        2.977     0.010    27.800     8.649
    15   6 C        2.925    -0.036    28.892     8.815
    16   6 C        2.918    -0.031    28.784     8.798
    17   6 C        2.920    -0.034    28.840     8.806
    18   6 C        2.918    -0.032    28.786     8.798
    19   6 C        2.925    -0.036    28.897     8.815
    20   6 C        2.928    -0.039    28.967     8.826
    21   6 C        2.908    -0.052    29.295     8.875
    22   6 C        3.076     0.046    26.896     8.503
    23   7 N        2.801    -0.042    22.056     6.975
    24   6 C        2.912     0.063    26.595     8.456
    25   6 C        2.920    -0.043    29.062     8.840
    26   6 C        2.924    -0.032    28.805     8.801
    27   6 C        2.976     0.008    27.829     8.653
    28   6 C        2.977     0.015    27.669     8.628
    29   6 C        2.923    -0.033    28.819     8.804
    30   6 C        2.924    -0.025    28.626     8.774
    31   6 C        2.980    -0.002    28.070     8.691
    32   6 C        2.967     0.113    25.506     8.284
    33   6 C        2.912    -0.072    29.791     8.950
    34   6 C        2.966     0.113    25.515     8.285
    35   6 C        2.979    -0.000    28.028     8.684
    36   6 C        2.926    -0.025    28.616     8.773
    37   6 C        2.918    -0.028    28.691     8.784
    38   6 C        2.920    -0.026    28.653     8.778
    39   6 C        2.918    -0.029    28.718     8.788
    40   6 C        2.923    -0.032    28.798     8.800
    41   7 N        1.849    -0.294    28.482     7.910
    42   6 C        2.943     0.190    23.949     8.026
    43   6 C        2.984    -0.004    28.124     8.699
    44   6 C        2.924    -0.029    28.720     8.788
    45   6 C        2.918    -0.029    28.723     8.789
    46   6 C        2.920    -0.026    28.649     8.777
    47   6 C        2.918    -0.029    28.723     8.789
    48   6 C        2.924    -0.029    28.719     8.788
    49   7 N        1.849    -0.294    28.481     7.910
    50   6 C        2.921    -0.032    28.806     8.801
    51   6 C        2.923    -0.034    28.844     8.807
    52   6 C        2.924    -0.032    28.804     8.801
    53   6 C        2.920    -0.043    29.063     8.841
    54   6 C        2.925    -0.036    28.892     8.815
    55   6 C        2.918    -0.031    28.784     8.798
    56   1 H        0.926     0.028     2.609     2.526
    57   1 H        0.926     0.029     2.602     2.522
    58   1 H        0.926     0.030     2.579     2.511
    59   1 H        0.926     0.033     2.545     2.495
    60   1 H        0.926     0.032     2.554     2.499
    61   1 H        0.926     0.032     2.553     2.498
    62   1 H        0.926     0.032     2.555     2.499
    63   1 H        0.926     0.030     2.583     2.513
    64   1 H        0.926     0.029     2.603     2.523
    65   1 H        0.926     0.028     2.609     2.526
    66   1 H        0.926     0.029     2.603     2.523
    67   1 H        0.926     0.030     2.582     2.513
    68   1 H        0.926     0.033     2.547     2.496
    69   1 H        0.926     0.032     2.559     2.502
    70   1 H        0.926     0.044     2.395     2.420
    71   1 H        0.926     0.043     2.408     2.426
    72   1 H        0.926     0.043     2.408     2.427
    73   1 H        0.926     0.046     2.365     2.405
    74   1 H        0.926     0.037     2.496     2.470
    75   1 H        0.926     0.047     2.356     2.400
    76   1 H        0.926     0.041     2.435     2.440
    77   1 H        0.926     0.041     2.431     2.438
    78   1 H        0.926     0.040     2.452     2.449
    79   1 H        0.926     0.034     2.525     2.485
    80   1 H        0.926     0.050     2.317     2.380
    81   1 H        0.926     0.041     2.440     2.443
    82   1 H        0.926     0.042     2.427     2.436
    83   1 H        0.926     0.041     2.441     2.443
    84   1 H        0.926     0.050     2.322     2.383
    85   1 H        0.926     0.035     2.521     2.483
    86   1 H        0.926     0.042     2.424     2.434
    87   1 H        0.926     0.043     2.414     2.430
    88   1 H        0.926     0.044     2.400     2.423
    89   1 H        0.926     0.030     2.585     2.514
    90   1 H        0.926     0.029     2.604     2.523

molecular dipole:
                 x           y           z       tot (Debye)
 q only:        0.571       0.245      -0.166
   full:        0.443       0.610      -0.244       2.014

 projected vibrational frequencies (cm⁻¹)
eigval :       -0.00    -0.00     0.00     0.00     0.00     0.00
eigval :      -15.82     6.98    10.72    16.67    21.22    28.84
eigval :       33.70    34.94    36.94    38.80    50.27    52.12
eigval :       54.91    60.59    69.19    79.29    89.32    91.94
eigval :       99.18   104.67   109.40   122.26   144.91   151.33
eigval :      167.29   183.97   200.37   213.02   215.97   228.10
eigval :      230.48   246.57   263.59   267.27   278.35   291.42
eigval :      305.07   322.61   342.74   364.35   367.36   368.04
eigval :      369.48   370.16   371.51   376.79   381.27   385.69
eigval :      397.19   400.11   411.01   426.48   430.70   446.29
eigval :      451.50   471.24   477.48   483.94   500.69   507.43
eigval :      531.67   552.70   556.54   571.07   582.98   586.47
eigval :      586.61   587.18   591.52   600.16   602.83   606.25
eigval :      607.33   618.22   619.49   625.05   630.46   634.55
eigval :      659.49   662.85   667.07   672.55   673.01   685.02
eigval :      686.69   707.29   707.92   715.74   737.00   739.53
eigval :      752.37   757.35   760.11   765.23   779.93   810.11
eigval :      822.99   824.82   835.24   838.93   846.08   850.27
eigval :      860.57   870.66   871.84   873.13   874.40   877.27
eigval :      878.74   881.13   884.62   898.32   900.99   905.40
eigval :      906.43   910.29   911.62   912.62   916.99   926.67
eigval :      927.51   927.74   928.06   930.58   930.78   931.37
eigval :      931.71   931.87   932.80   933.31   938.79   967.08
eigval :      971.11   980.59   987.51   992.04  1016.93  1025.94
eigval :     1026.47  1070.96  1071.17  1074.79  1077.58  1079.36
eigval :     1085.03  1086.09  1087.81  1104.12  1110.42  1119.63
eigval :     1120.79  1124.09  1131.73  1134.60  1140.51  1157.20
eigval :     1170.10  1176.45  1178.15  1180.00  1180.68  1181.96
eigval :     1193.62  1195.18  1197.56  1199.91  1201.79  1205.09
eigval :     1220.68  1221.45  1223.60  1244.16  1246.29  1264.76
eigval :     1268.54  1269.41  1276.75  1279.76  1280.63  1281.69
eigval :     1290.23  1305.12  1306.09  1312.90  1316.93  1318.09
eigval :     1319.50  1320.68  1326.04  1344.74  1357.39  1359.84
eigval :     1364.29  1375.05  1390.72  1399.42  1407.21  1413.77
eigval :     1428.86  1428.96  1431.78  1433.24  1436.26  1459.97
eigval :     1466.72  1467.44  1474.74  1478.38  1492.77  1495.93
eigval :     1503.86  1512.92  1528.66  1553.69  1561.69  1567.78
eigval :     1572.79  1580.73  1580.80  1582.24  1583.63  1587.80
eigval :     1591.69  1593.92  1594.78  1596.56  1599.91  1601.82
eigval :     1613.34  3063.54  3064.13  3064.89  3065.65  3071.21
eigval :     3073.17  3073.31  3073.92  3074.38  3076.40  3076.49
eigval :     3076.87  3076.95  3078.15  3078.29  3079.34  3081.85
eigval :     3082.35  3083.27  3083.43  3085.18  3086.13  3086.36
eigval :     3086.51  3086.59  3089.79  3090.98  3091.34  3092.27
eigval :     3094.75  3097.26  3099.35  3101.61  3103.43  3107.83

   temp. (K)  partition function   enthalpy   heat capacity  entropy
                                   cal/mol     cal/K/mol   cal/K/mol   J/K/mol
 298.15  VIB  0.363E+22            25859.865    160.075    163.385
         ROT  0.266E+09              888.752      2.981     41.530
         INT  0.964E+30            26748.617    163.056    204.915
         TR   0.180E+29             1481.254      4.968     45.506
         TOT                       28229.8709   168.0237   250.4209  1047.7611

       T/K    H(0)-H(T)+PV         H(T)/Eh          T*S/Eh         G(T)/Eh
   ------------------------------------------------------------------------
    298.15    0.449872E-01    0.738928E+00    0.118983E+00    0.619945E+00
   ------------------------------------------------------------------------

         :::::::::::::::::::::::::::::::::::::::::::::::::::::
         ::                  THERMODYNAMIC                  ::
         :::::::::::::::::::::::::::::::::::::::::::::::::::::
         :: total free energy        -137.434531074780 Eh   ::
         ::.................................................::
         :: total energy             -138.054475975822 Eh   ::
         :: zero point energy           0.693940799998 Eh   ::
         :: G(RRHO) w/o ZPVE           -0.073995898955 Eh   ::
         :: G(RRHO) contrib.            0.619944901042 Eh   ::
         :::::::::::::::::::::::::::::::::::::::::::::::::::::

           -------------------------------------------------
          | TOTAL ENERGY             -138.054475975822 Eh   |
          | TOTAL ENTHALPY           -137.315548013053 Eh   |
          | TOTAL FREE ENERGY        -137.434531074780 Eh   |
          | GRADIENT NORM               0.000057414477 Eh/α |
          | HOMO-LUMO GAP               2.064869496904 eV   |
           -------------------------------------------------

 * finished run on 2025/07/17 at 06:55:15.588
