   * xtb version 6.7.1 (edcfbbe) compiled by 'albert@albert-system' on 2024-07-22

   ID    Z sym.   atoms
    1    6 C      1-22, 24-40, 42-48, 50-55
    2    7 N      23, 41, 49
    3    1 H      56-90

          program call               : xtb data2507/toluene/PhCz-Pyr/PhCz-Pyr_toluene_T1_crest.xyz --gfn 2 --uhf 2 --gbsa toluene --ohess vtight --parallel 40 --molden --ceasefiles --namespace data2507/toluene/PhCz-Pyr/PhCz-Pyr_toluene_T1_finalOpt
      * Solvation model:               GBSA
        Solvent                        toluene
        Solvent mass                       9.2140E+01 g/mol
          :  Hamiltonian                  GFN2-xTB          :
 * total energy  :  -137.9747219 Eh     change       -0.1404766E-07 Eh
 * total energy  :  -137.9748099 Eh     change       -0.8804361E-04 Eh
 * total energy  :  -137.9748521 Eh     change       -0.4222860E-04 Eh
 * total energy  :  -137.9748600 Eh     change       -0.7836812E-05 Eh
 * total energy  :  -137.9748664 Eh     change       -0.6390263E-05 Eh
 * total energy  :  -137.9748718 Eh     change       -0.5403355E-05 Eh
 * total energy  :  -137.9748776 Eh     change       -0.5812945E-05 Eh
 * total energy  :  -137.9748816 Eh     change       -0.4030556E-05 Eh
 * total energy  :  -137.9748840 Eh     change       -0.2352255E-05 Eh
 * total energy  :  -137.9748857 Eh     change       -0.1714581E-05 Eh
 * total energy  :  -137.9748893 Eh     change       -0.6931064E-06 Eh
 * total energy  :  -137.9748899 Eh     change       -0.5793773E-06 Eh
 * total energy  :  -137.9748904 Eh     change       -0.4876577E-06 Eh
 * total energy  :  -137.9748908 Eh     change       -0.4672872E-06 Eh
 * total energy  :  -137.9748913 Eh     change       -0.4695423E-06 Eh
 * total energy  :  -137.9748918 Eh     change       -0.4928045E-06 Eh
 * total energy  :  -137.9748923 Eh     change       -0.4840417E-06 Eh
 * total energy  :  -137.9748928 Eh     change       -0.4808686E-06 Eh
 * total energy  :  -137.9748928 Eh     change       -0.2556158E-07 Eh
   *** GEOMETRY OPTIMIZATION CONVERGED AFTER 22 ITERATIONS ***

 final structure:
================
90
 xtb: 6.7.1 (edcfbbe)
C           -9.60448985721386       -6.00177458611420        0.57688170825084
C           -8.43648682991354       -6.23852193352929       -0.13001113181469
C           -7.46131054596455       -5.26210541549383       -0.21000914252488
C           -7.63846874338069       -4.02655226599114        0.41264397953995
C           -6.60560718591464       -2.98605348267279        0.32255628470078
C           -5.24857665468514       -3.33077805190565        0.40801488547320
C           -4.24477975420467       -2.38802572203274        0.32225154786959
C           -4.61041783554136       -1.06125038240755        0.12837184001122
C           -5.97500077921672       -0.68883863272201        0.06838280308078
C           -6.96599196619886       -1.64841991443591        0.16317295618040
C           -5.99754281053066        0.74540989383180       -0.07166925986804
C           -7.01778791939914        1.67114834999510       -0.18948994055105
C           -6.69875736350333        3.02026599534401       -0.33920808683033
C           -7.76561637874035        4.02356132469991       -0.45641861097049
C           -8.90805676947666        3.93748814480081        0.33904541958465
C           -9.91150855647679        4.88262431731193        0.23651887768734
C           -9.79573585961223        5.92707802335724       -0.66652626524093
C           -8.66771864773096        6.02054319921340       -1.46574020984633
C           -7.65948246814534        5.08066298860047       -1.35972887518902
C           -5.35316624194398        3.41213612881292       -0.38398933763540
C           -4.32031959734016        2.50494308043341       -0.26216606147668
C           -4.64538529504272        1.16544304785178       -0.08549734541745
N           -3.82240843252232        0.06568307907102        0.03338038780341
C           -2.42497363652824        0.08710862831917        0.04643830909993
C           -1.69583490636609       -0.77891405356910       -0.77371556775959
C           -0.32211180646361       -0.75467064302990       -0.76169679349900
C            0.39133081301874        0.13080082889461        0.06685365868287
C            1.83770786312088        0.15440610771228        0.07341964476185
C            2.59702426406066       -0.99380036592113       -0.23070640585390
C            3.96289379178566       -0.97071580894362       -0.22019504824865
C            4.68446485735928        0.21007205415036        0.07709684903332
C            6.11146162244432        0.18608949415804        0.05855137920261
C            6.93114691463725        1.30776160826564        0.29765023249299
C            8.30288493562566        1.15130316579877        0.24319414233124
C            9.24793913362717        2.23063672319677        0.48852522471111
C           10.58774022726869        1.91650538447618        0.75337686426593
C           11.51329348147376        2.90920499535775        0.99630381521292
C           11.13058864493967        4.24250349654448        0.97790826679173
C            9.80995000155131        4.56896573216813        0.70708866855460
C            8.87795721798838        3.58013885787382        0.46470502546036
N            8.83102202424092       -0.07345692406118       -0.02762341636207
C            8.02875105036545       -1.10302994926010       -0.24905656041861
C            8.63078220893442       -2.40491138100760       -0.54701517564003
C            7.83787819305138       -3.54775170141893       -0.62533959419191
C            8.40953176206962       -4.77310722893815       -0.90969251119877
C            9.77654469352579       -4.87086511834417       -1.11983343285079
C           10.57152320418627       -3.73770368403581       -1.04416337655587
C           10.00368518595271       -2.51058357530187       -0.75855605145821
N            6.72256260087919       -1.00201336120386       -0.21428890339070
C            3.92258264881347        1.36194150815184        0.37471507144088
C            2.55448993474968        1.32742033571787        0.38152914118999
C           -0.36126460765174        0.99220615031586        0.88607360134102
C           -1.73529324977563        0.97390007259538        0.87822107176255
C           -8.81953827522409       -3.79970138392279        1.11924467000133
C           -9.79089943146294       -4.77960685291491        1.20248281802000
H          -10.36503629752074       -6.76621495567962        0.64076788004039
H           -8.28707847090227       -7.18814751784770       -0.62365326827363
H           -6.56287023720202       -5.44805395592539       -0.78036039231932
H           -4.98318891649471       -4.36396271853862        0.57410626997709
H           -3.20887235445762       -2.67419737810844        0.41951515155729
H           -8.00554363468515       -1.36724574718979        0.09511752896284
H           -8.04834794439915        1.35099637041609       -0.19445632035198
H           -8.99685607747156        3.13667658096025        1.05880979044404
H          -10.78715174877619        4.80697388998986        0.86529374036300
H          -10.58129545981275        6.66406879640528       -0.74801366499775
H           -8.57474443778800        6.82977280417664       -2.17591307545386
H           -6.79202541892943        5.15046077066746       -1.99992880130625
H           -5.11897084035604        4.45963127756170       -0.49981776989278
H           -3.29256615934653        2.82980449370940       -0.31132594879412
H           -2.22217352161241       -1.44082022016089       -1.44572417369559
H            0.21864705223701       -1.40314243546797       -1.43365837810688
H            2.09097588323215       -1.92514061522867       -0.43986540493457
H            4.52895110929832       -1.86335545239673       -0.44044991239430
H            6.49428880766157        2.26255380045225        0.53495356766566
H           10.87660884459924        0.87643612311086        0.77172674798095
H           12.54086700561044        2.64498103580623        1.20229968905117
H           11.85481856534403        5.02090084592313        1.16739239735426
H            9.50603846455815        5.60595314048072        0.68115677284340
H            7.86098528619133        3.86170230267753        0.23585073986470
H            6.77560889001851       -3.45502462474811       -0.45719455918864
H            7.78957848393629       -5.65595412548236       -0.96759162206365
H           10.22189062620035       -5.82942664031745       -1.34250455053897
H           11.63658658721124       -3.81262152504514       -1.20873137882716
H           10.60730136364370       -1.61735763927032       -0.70000997908600
H            4.41858807906931        2.29379002007008        0.60177351019422
H            2.01307971045883        2.23854663863641        0.59178463027942
H            0.14894816964734        1.65657177308797        1.56645125181384
H           -2.29130827756415        1.61855688325896        1.54310215525343
H           -8.96477255396509       -2.85748744434577        1.62728350908584
H          -10.69734604503354       -4.59108641507763        1.75981348254664

          :  Hamiltonian                  GFN2-xTB          :
         :: gradient norm              0.000090094355 Eh/a0 ::
         :: HOMO-LUMO gap              0.393168380947 eV    ::
         :: SCC energy              -140.595597294098 Eh    ::
         :: -> dispersion             -0.118106867621 Eh    ::
         :: -> Gsolv                  -0.064003097771 Eh    ::
         :: repulsion energy           2.620704507319 Eh    ::

    * Orbital Energies and Occupations

         #    Occupation            Energy/Eh            Energy/eV
      -------------------------------------------------------------
         1        2.0000           -0.6902114             -18.7816
       ...           ...                  ...                  ...
       118        2.0000           -0.4068124             -11.0699
       119        2.0000           -0.4047920             -11.0150
       120        2.0000           -0.4030245             -10.9669
       121        2.0000           -0.4006044             -10.9010
       122        2.0000           -0.3992511             -10.8642
       123        2.0000           -0.3991935             -10.8626
       124        2.0000           -0.3958288             -10.7711
       125        2.0000           -0.3920112             -10.6672
       126        2.0000           -0.3862048             -10.5092
       127        2.0000           -0.3789075             -10.3106
       128        1.5639           -0.3644837              -9.9181
       129        1.4361           -0.3639951              -9.9048
       130        0.9995           -0.2817126              -7.6658 (HOMO)
       131        0.0005           -0.2672638              -7.2726 (LUMO)
       132                         -0.2564614              -6.9787
       133                         -0.2529031              -6.8818
       134                         -0.2500033              -6.8029
       135                         -0.2389814              -6.5030
       136                         -0.2286681              -6.2224
       137                         -0.2254061              -6.1336
       138                         -0.2248037              -6.1172
       139                         -0.2247059              -6.1146
       140                         -0.2221768              -6.0457
       141                         -0.2196478              -5.9769
       ...                                ...                  ...
       255                          0.7372001              20.0602
      -------------------------------------------------------------
                  HL-Gap            0.0144487 Eh            0.3932 eV

     #   Z          covCN         q      C6AA      α(0)
     1   6 C        2.920    -0.030    28.753     8.793
     2   6 C        2.918    -0.030    28.740     8.791
     3   6 C        2.925    -0.034    28.842     8.807
     4   6 C        2.976     0.011    27.755     8.642
     5   6 C        2.976     0.008    27.827     8.653
     6   6 C        2.927    -0.036    28.894     8.815
     7   6 C        2.908    -0.043    29.073     8.841
     8   6 C        3.076     0.045    26.901     8.504
     9   6 C        3.062    -0.012    28.252     8.716
    10   6 C        2.917    -0.034    28.842     8.807
    11   6 C        3.062    -0.012    28.251     8.716
    12   6 C        2.917    -0.034    28.842     8.807
    13   6 C        2.976     0.008    27.830     8.653
    14   6 C        2.977     0.011    27.757     8.642
    15   6 C        2.925    -0.034    28.843     8.807
    16   6 C        2.918    -0.030    28.742     8.791
    17   6 C        2.920    -0.030    28.757     8.794
    18   6 C        2.918    -0.030    28.741     8.791
    19   6 C        2.924    -0.034    28.843     8.807
    20   6 C        2.927    -0.036    28.895     8.815
    21   6 C        2.908    -0.043    29.076     8.842
    22   6 C        3.075     0.045    26.904     8.504
    23   7 N        2.801    -0.010    21.448     6.878
    24   6 C        2.913     0.050    26.871     8.500
    25   6 C        2.917    -0.042    29.031     8.836
    26   6 C        2.923    -0.036    28.905     8.817
    27   6 C        2.971     0.011    27.762     8.643
    28   6 C        2.972    -0.008    28.213     8.713
    29   6 C        2.918    -0.038    28.953     8.824
    30   6 C        2.921    -0.038    28.951     8.824
    31   6 C        2.973    -0.010    28.260     8.720
    32   6 C        2.936     0.076    26.310     8.412
    33   6 C        2.912    -0.060    29.483     8.904
    34   6 C        2.938     0.086    26.084     8.376
    35   6 C        2.976    -0.002    28.066     8.690
    36   6 C        2.926    -0.032    28.796     8.800
    37   6 C        2.917    -0.031    28.783     8.798
    38   6 C        2.919    -0.036    28.887     8.814
    39   6 C        2.917    -0.032    28.794     8.799
    40   6 C        2.922    -0.039    28.975     8.827
    41   7 N        1.852    -0.276    28.010     7.844
    42   6 C        2.891     0.192    23.921     8.019
    43   6 C        2.983    -0.003    28.083     8.693
    44   6 C        2.924    -0.028    28.693     8.784
    45   6 C        2.918    -0.029    28.720     8.788
    46   6 C        2.920    -0.027    28.670     8.781
    47   6 C        2.918    -0.029    28.716     8.788
    48   6 C        2.924    -0.028    28.696     8.785
    49   7 N        1.853    -0.259    27.592     7.785
    50   6 C        2.916    -0.045    29.127     8.850
    51   6 C        2.919    -0.038    28.949     8.823
    52   6 C        2.923    -0.036    28.907     8.817
    53   6 C        2.916    -0.042    29.034     8.836
    54   6 C        2.925    -0.034    28.842     8.807
    55   6 C        2.918    -0.030    28.741     8.791
    56   1 H        0.926     0.032     2.554     2.499
    57   1 H        0.926     0.033     2.548     2.496
    58   1 H        0.926     0.035     2.510     2.478
    59   1 H        0.926     0.043     2.410     2.428
    60   1 H        0.926     0.043     2.412     2.428
    61   1 H        0.926     0.045     2.382     2.414
    62   1 H        0.926     0.045     2.386     2.415
    63   1 H        0.926     0.036     2.506     2.476
    64   1 H        0.926     0.033     2.543     2.494
    65   1 H        0.926     0.032     2.556     2.500
    66   1 H        0.926     0.032     2.551     2.498
    67   1 H        0.926     0.035     2.517     2.481
    68   1 H        0.926     0.043     2.414     2.430
    69   1 H        0.926     0.043     2.415     2.430
    70   1 H        0.926     0.043     2.413     2.429
    71   1 H        0.926     0.040     2.443     2.444
    72   1 H        0.926     0.029     2.601     2.522
    73   1 H        0.926     0.032     2.561     2.502
    74   1 H        0.926     0.030     2.592     2.518
    75   1 H        0.926     0.038     2.471     2.458
    76   1 H        0.926     0.032     2.557     2.501
    77   1 H        0.926     0.031     2.567     2.506
    78   1 H        0.926     0.031     2.578     2.511
    79   1 H        0.926     0.026     2.649     2.545
    80   1 H        0.926     0.045     2.388     2.417
    81   1 H        0.926     0.042     2.428     2.437
    82   1 H        0.926     0.043     2.415     2.430
    83   1 H        0.926     0.041     2.433     2.439
    84   1 H        0.926     0.046     2.373     2.409
    85   1 H        0.926     0.018     2.765     2.600
    86   1 H        0.926     0.027     2.629     2.535
    87   1 H        0.926     0.039     2.457     2.451
    88   1 H        0.926     0.042     2.417     2.431
    89   1 H        0.926     0.036     2.505     2.475
    90   1 H        0.926     0.033     2.544     2.494

molecular dipole:
                 x           y           z       tot (Debye)
 q only:       -4.610      -0.476      -0.085
   full:       -4.636      -0.149      -0.020      11.789

 projected vibrational frequencies (cm⁻¹)
eigval :       -0.00     0.00     0.00     0.00     0.00     0.00
eigval :        5.13     8.31    11.83    21.36    26.21    29.85
eigval :       32.52    38.47    40.60    46.85    51.92    54.04
eigval :       57.07    64.77    75.08    77.92    89.63    94.98
eigval :       96.33   107.52   109.34   122.03   147.77   152.16
eigval :      166.32   177.40   201.04   209.29   217.92   220.59
eigval :      226.72   244.76   260.66   266.64   273.10   294.02
eigval :      303.79   322.10   344.19   363.00   366.67   367.21
eigval :      367.93   372.19   372.62   375.93   379.22   385.31
eigval :      391.31   397.70   404.76   414.79   428.12   437.67
eigval :      448.20   465.77   475.49   480.07   482.73   503.13
eigval :      514.15   540.80   550.04   554.68   574.12   579.96
eigval :      581.97   585.16   586.83   589.08   589.64   590.65
eigval :      592.80   600.59   606.96   619.81   626.74   627.70
eigval :      646.95   652.96   657.22   662.30   667.84   669.54
eigval :      674.04   685.36   688.06   708.46   712.62   737.30
eigval :      747.95   749.53   758.92   760.07   766.41   791.50
eigval :      807.80   817.31   820.34   827.06   828.86   830.41
eigval :      837.00   855.21   859.81   860.93   869.73   873.25
eigval :      875.14   878.56   882.03   884.71   900.01   902.99
eigval :      904.46   905.57   905.68   909.36   910.64   912.93
eigval :      921.28   922.67   922.98   923.98   927.60   930.00
eigval :      930.40   930.66   931.73   932.11   933.29   938.24
eigval :      970.08   972.47   979.44   981.17   984.17  1005.32
eigval :     1024.91  1052.72  1057.91  1067.19  1068.15  1073.38
eigval :     1077.27  1082.44  1084.30  1085.71  1104.61  1112.09
eigval :     1120.67  1121.60  1123.21  1129.57  1137.83  1147.34
eigval :     1152.50  1166.47  1176.05  1176.70  1179.03  1180.22
eigval :     1181.39  1195.45  1196.28  1199.48  1200.80  1204.33
eigval :     1216.60  1217.80  1222.52  1241.25  1254.61  1266.42
eigval :     1267.32  1275.47  1277.59  1279.41  1281.29  1286.28
eigval :     1287.40  1289.49  1296.23  1301.75  1315.47  1317.32
eigval :     1318.10  1324.40  1327.42  1330.06  1338.81  1345.97
eigval :     1350.48  1360.53  1380.73  1395.05  1403.80  1416.87
eigval :     1424.22  1427.55  1428.12  1428.30  1433.25  1438.68
eigval :     1444.88  1447.79  1461.16  1463.86  1467.00  1472.12
eigval :     1475.60  1484.76  1488.23  1490.74  1505.78  1538.86
eigval :     1551.90  1557.13  1563.30  1566.01  1576.04  1576.85
eigval :     1582.00  1585.17  1586.82  1588.12  1593.16  1596.33
eigval :     1602.51  3065.96  3067.58  3068.24  3068.27  3068.40
eigval :     3069.97  3070.23  3071.20  3072.15  3076.69  3078.28
eigval :     3078.48  3080.03  3080.38  3081.52  3081.59  3082.15
eigval :     3082.23  3085.33  3086.46  3087.12  3087.51  3088.36
eigval :     3089.50  3089.57  3093.01  3093.05  3093.48  3094.88
eigval :     3095.37  3096.00  3097.22  3098.33  3099.21  3113.39

   temp. (K)  partition function   enthalpy   heat capacity  entropy
                                   cal/mol     cal/K/mol   cal/K/mol   J/K/mol
 298.15  VIB  0.383E+22            26063.509    162.436    164.891
         ROT  0.266E+09              888.752      2.981     41.535
         INT  0.102E+31            26952.261    165.417    206.426
         TR   0.180E+29             1481.254      4.968     45.506
         TOT                       28433.5151   170.3852   251.9319  1054.0832

       T/K    H(0)-H(T)+PV         H(T)/Eh          T*S/Eh         G(T)/Eh
   ------------------------------------------------------------------------
    298.15    0.453117E-01    0.735504E+00    0.119701E+00    0.615803E+00
   ------------------------------------------------------------------------

         :::::::::::::::::::::::::::::::::::::::::::::::::::::
         ::                  THERMODYNAMIC                  ::
         :::::::::::::::::::::::::::::::::::::::::::::::::::::
         :: total free energy        -137.359089524755 Eh   ::
         ::.................................................::
         :: total energy             -137.974892785436 Eh   ::
         :: zero point energy           0.690192555865 Eh   ::
         :: G(RRHO) w/o ZPVE           -0.074389295184 Eh   ::
         :: G(RRHO) contrib.            0.615803260681 Eh   ::
         :::::::::::::::::::::::::::::::::::::::::::::::::::::

           -------------------------------------------------
          | TOTAL ENERGY             -137.974892785436 Eh   |
          | TOTAL ENTHALPY           -137.239388539006 Eh   |
          | TOTAL FREE ENERGY        -137.359089524755 Eh   |
          | GRADIENT NORM               0.000089681808 Eh/α |
          | HOMO-LUMO GAP               0.393169602332 eV   |
           -------------------------------------------------

 * finished run on 2025/07/17 at 07:08:25.016
