   * xtb version 6.7.1 (edcfbbe) compiled by 'albert@albert-system' on 2024-07-22

   ID    Z sym.   atoms
    1    6 C      1-26
    2    1 H      27-44

          program call               : xtb data2507/toluene/DPAA/DPAA.xyz --gfn 2 --gbsa toluene --ohess vtight --parallel 40 --molden --ceasefiles --namespace data2507/toluene/DPAA/DPAA_toluene_S0_preOpt
      * Solvation model:               GBSA
        Solvent                        toluene
        Solvent mass                       9.2140E+01 g/mol
          :  Hamiltonian                  GFN2-xTB          :
 * total energy  :   -64.8506745 Eh     change       -0.2106617E-09 Eh
 * total energy  :   -64.8599272 Eh     change       -0.9252766E-02 Eh
 * total energy  :   -64.8618462 Eh     change       -0.1918964E-02 Eh
 * total energy  :   -64.8619812 Eh     change       -0.1349923E-03 Eh
 * total energy  :   -64.8620210 Eh     change       -0.3984944E-04 Eh
 * total energy  :   -64.8620225 Eh     change       -0.1442518E-05 Eh
 * total energy  :   -64.8620226 Eh     change       -0.1234262E-06 Eh
 * total energy  :   -64.8620226 Eh     change       -0.2884235E-08 Eh
   *** GEOMETRY OPTIMIZATION CONVERGED AFTER 8 ITERATIONS ***

 final structure:
================
44
 xtb: 6.7.1 (edcfbbe)
C           -5.67647065527665       -0.00015772760372        0.00007079774699
C           -4.98185876592380       -0.00017605789548       -1.19833722004718
C           -3.59798410820611       -0.00005471255714       -1.19960529141213
C           -2.89397718874161        0.00008421605078       -0.00000792585583
C           -1.41135668555136        0.00010567207617       -0.00004088050562
C           -0.71504104696319       -1.21528844898903       -0.00004727699106
C           -1.39236760993444       -2.46354301494043       -0.00003267042640
C           -0.70522338597167       -3.63823468545336       -0.00003309636170
C            0.70512949684034       -3.63825304152241       -0.00005452764404
C            1.39230455175220       -2.46357941987635       -0.00006609211184
C            0.71500991373039       -1.21530716773262       -0.00005541173026
C            1.41135646521713        0.00006946305928       -0.00004833120912
C            2.89397843880211        0.00001954373796       -0.00001120725550
C            3.59790980121043       -0.00014267401141        1.19963122505961
C            4.98178398668430       -0.00026698776921        1.19845213017169
C            5.67647123512674       -0.00022846414833        0.00008791327524
C            4.98186834139910       -0.00005045563879       -1.19832507427632
C            3.59799352902274        0.00007462113462       -1.19960366844748
C            0.71504160333961        1.21546179772514       -0.00004784954990
C            1.39236867885157        2.46371655955660       -0.00003583886209
C            0.70522244821460        3.63840733297360       -0.00002681310090
C           -0.70513139932149        3.63842538187329       -0.00003349087061
C           -1.39230701345456        2.46375169025903       -0.00004483178758
C           -0.71501186369554        1.21547994139529       -0.00004683986696
C           -3.59791730601080        0.00012499378688        1.19962911759459
C           -4.98179159642879        0.00000238151640        1.19843993009977
H           -6.75691664367612       -0.00027103147405        0.00010127969528
H           -5.51968693831341       -0.00029565366889       -2.13568611297747
H           -3.05332102070932       -0.00008115130848       -2.13340501238552
H           -2.47281412205526       -2.46082409039479       -0.00001996436925
H           -1.23406874134472       -4.58052409712957       -0.00001833206254
H            1.23395003707692       -4.58055639568668       -0.00006160736921
H            2.47275115895028       -2.46088762780052       -0.00008393132743
H            3.05318471314179       -0.00017937779723        2.13339468309372
H            5.51955263428790       -0.00039963236615        2.13583506199349
H            6.75691720569624       -0.00034015454198        0.00012622977017
H            5.51970425971855       -0.00002022395531       -2.13566949308737
H            3.05333636081002        0.00020089654170       -2.13340677394863
H            2.47281575634675        2.46099360524976       -0.00003376399556
H            1.23406475471783        4.58069875949092       -0.00001517117859
H           -1.23394901787705        4.58073063393016       -0.00002877838765
H           -2.47275430014164        2.46105540406842       -0.00005095124524
H           -3.05320051358814        0.00023636288052        2.13339749047789
H           -5.51956644775184        0.00002103695539        2.13581937166853

          :  Hamiltonian                  GFN2-xTB          :
         :: gradient norm              0.000039731947 Eh/a0 ::
         :: HOMO-LUMO gap              2.188553288749 eV    ::
         :: SCC energy               -66.144132359212 Eh    ::
         :: -> dispersion             -0.058130753640 Eh    ::
         :: -> Gsolv                  -0.026261690208 Eh    ::
         :: repulsion energy           1.282109745785 Eh    ::

    * Orbital Energies and Occupations

         #    Occupation            Energy/Eh            Energy/eV
      -------------------------------------------------------------
         1        2.0000           -0.6536488             -17.7867
       ...           ...                  ...                  ...
        49        2.0000           -0.4257528             -11.5853
        50        2.0000           -0.4251294             -11.5684
        51        2.0000           -0.4214964             -11.4695
        52        2.0000           -0.4188496             -11.3975
        53        2.0000           -0.4187299             -11.3942
        54        2.0000           -0.4062954             -11.0559
        55        2.0000           -0.4050403             -11.0217
        56        2.0000           -0.4036553             -10.9840
        57        2.0000           -0.4008639             -10.9081
        58        2.0000           -0.3989344             -10.8556
        59        2.0000           -0.3979048             -10.8275
        60        2.0000           -0.3939928             -10.7211
        61        2.0000           -0.3580662              -9.7435 (HOMO)
        62                         -0.2776383              -7.5549 (LUMO)
        63                         -0.2302643              -6.2658
        64                         -0.2235296              -6.0826
        65                         -0.2231413              -6.0720
        66                         -0.2231173              -6.0713
        67                         -0.2229617              -6.0671
        68                         -0.2191155              -5.9624
        69                         -0.1760065              -4.7894
        70                         -0.1718097              -4.6752
        71                         -0.0978506              -2.6627
        72                         -0.0940340              -2.5588
       ...                                ...                  ...
       122                          0.7149451              19.4546
      -------------------------------------------------------------
                  HL-Gap            0.0804279 Eh            2.1886 eV

     #   Z          covCN         q      C6AA      α(0)
     1   6 C        2.920    -0.033    28.819     8.803
     2   6 C        2.919    -0.030    28.758     8.794
     3   6 C        2.924    -0.033    28.814     8.803
     4   6 C        2.977     0.016    27.651     8.625
     5   6 C        2.977    -0.007    28.181     8.708
     6   6 C        2.984     0.005    27.902     8.665
     7   6 C        2.917    -0.034    28.857     8.809
     8   6 C        2.914    -0.031    28.775     8.796
     9   6 C        2.914    -0.031    28.775     8.796
    10   6 C        2.917    -0.034    28.857     8.809
    11   6 C        2.984     0.005    27.902     8.665
    12   6 C        2.977    -0.007    28.181     8.708
    13   6 C        2.977     0.016    27.651     8.625
    14   6 C        2.924    -0.033    28.814     8.803
    15   6 C        2.919    -0.030    28.758     8.794
    16   6 C        2.920    -0.033    28.819     8.803
    17   6 C        2.919    -0.030    28.758     8.794
    18   6 C        2.924    -0.033    28.814     8.803
    19   6 C        2.984     0.005    27.902     8.665
    20   6 C        2.917    -0.034    28.857     8.809
    21   6 C        2.914    -0.031    28.775     8.796
    22   6 C        2.914    -0.031    28.775     8.796
    23   6 C        2.917    -0.034    28.857     8.809
    24   6 C        2.984     0.005    27.902     8.665
    25   6 C        2.924    -0.033    28.814     8.803
    26   6 C        2.919    -0.030    28.758     8.794
    27   1 H        0.926     0.031     2.577     2.511
    28   1 H        0.926     0.031     2.568     2.506
    29   1 H        0.926     0.029     2.607     2.525
    30   1 H        0.926     0.030     2.585     2.514
    31   1 H        0.926     0.030     2.587     2.515
    32   1 H        0.926     0.030     2.587     2.515
    33   1 H        0.926     0.030     2.585     2.514
    34   1 H        0.926     0.029     2.607     2.525
    35   1 H        0.926     0.031     2.568     2.506
    36   1 H        0.926     0.031     2.577     2.511
    37   1 H        0.926     0.031     2.568     2.506
    38   1 H        0.926     0.029     2.607     2.525
    39   1 H        0.926     0.030     2.585     2.514
    40   1 H        0.926     0.030     2.587     2.515
    41   1 H        0.926     0.030     2.587     2.515
    42   1 H        0.926     0.030     2.585     2.514
    43   1 H        0.926     0.029     2.607     2.525
    44   1 H        0.926     0.031     2.568     2.506

molecular dipole:
                 x           y           z       tot (Debye)
 q only:        0.000      -0.000       0.000
   full:        0.000      -0.000       0.000       0.000

 projected vibrational frequencies (cm⁻¹)
eigval :       -0.00    -0.00    -0.00     0.00     0.00     0.00
eigval :       -8.60     8.69    25.45    47.76    67.34    74.75
eigval :       81.09    96.25   178.66   197.58   201.39   210.16
eigval :      225.98   237.01   239.01   363.55   363.80   380.30
eigval :      383.50   398.61   399.39   440.52   443.63   456.40
eigval :      458.68   492.16   575.87   580.97   585.08   585.43
eigval :      592.33   602.95   613.72   631.42   668.81   672.83
eigval :      678.74   691.06   727.29   739.87   753.10   764.24
eigval :      774.31   776.65   872.81   874.64   881.32   881.50
eigval :      894.00   901.08   906.54   908.39   912.73   917.39
eigval :      917.54   928.79   929.12   932.02   932.06   932.15
eigval :      934.09   934.63   990.65   999.53  1077.50  1078.35
eigval :     1081.92  1082.45  1116.55  1116.69  1134.36  1144.50
eigval :     1179.08  1179.78  1179.79  1182.64  1194.05  1194.49
eigval :     1212.93  1220.55  1226.67  1256.69  1263.21  1279.75
eigval :     1279.78  1307.59  1307.84  1325.67  1348.86  1371.23
eigval :     1384.04  1418.31  1426.62  1427.31  1428.33  1443.25
eigval :     1464.70  1485.92  1494.62  1525.14  1532.29  1543.25
eigval :     1578.93  1579.43  1599.17  1599.28  1607.26  1621.95
eigval :     3065.10  3065.12  3065.70  3065.77  3068.52  3068.55
eigval :     3072.69  3072.79  3073.68  3073.95  3076.84  3076.99
eigval :     3081.67  3081.84  3086.75  3086.85  3087.60  3089.57

   temp. (K)  partition function   enthalpy   heat capacity  entropy
                                   cal/mol     cal/K/mol   cal/K/mol   J/K/mol
 298.15  VIB  0.886E+09            11051.318     72.701     68.931
         ROT  0.265E+07              888.752      2.981     32.373
         INT  0.235E+16            11940.070     75.681    101.304
         TR   0.581E+28             1481.254      4.968     43.261
         TOT                       13421.3238    80.6496   144.5654   604.8615

       T/K    H(0)-H(T)+PV         H(T)/Eh          T*S/Eh         G(T)/Eh
   ------------------------------------------------------------------------
    298.15    0.213882E-01    0.364796E+00    0.686877E-01    0.296108E+00
   ------------------------------------------------------------------------

         :::::::::::::::::::::::::::::::::::::::::::::::::::::
         ::                  THERMODYNAMIC                  ::
         :::::::::::::::::::::::::::::::::::::::::::::::::::::
         :: total free energy         -64.565914196373 Eh   ::
         ::.................................................::
         :: total energy              -64.862022613424 Eh   ::
         :: zero point energy           0.343407850057 Eh   ::
         :: G(RRHO) w/o ZPVE           -0.047299433006 Eh   ::
         :: G(RRHO) contrib.            0.296108417051 Eh   ::
         :::::::::::::::::::::::::::::::::::::::::::::::::::::

           -------------------------------------------------
          | TOTAL ENERGY              -64.862022613424 Eh   |
          | TOTAL ENTHALPY            -64.497226522410 Eh   |
          | TOTAL FREE ENERGY         -64.565914196373 Eh   |
          | GRADIENT NORM               0.000039736169 Eh/α |
          | HOMO-LUMO GAP               2.188553279475 eV   |
           -------------------------------------------------

 * finished run on 2025/07/20 at 14:51:14.013
