   * xtb version 6.7.1 (edcfbbe) compiled by 'albert@albert-system' on 2024-07-22

   ID    Z sym.   atoms
    1    6 C      1-26
    2    1 H      27-44

          program call               : xtb data2507/toluene/DPAA/DPAA_toluene_S0_finalOpt.xtbopt.xyz --gfn 2 --uhf 2 --gbsa toluene --ohess vtight --parallel 40 --molden --ceasefiles --namespace data2507/toluene/DPAA/DPAA_toluene_T1_preOpt
      * Solvation model:               GBSA
        Solvent                        toluene
        Solvent mass                       9.2140E+01 g/mol
          :  Hamiltonian                  GFN2-xTB          :
 * total energy  :   -64.7827368 Eh     change       -0.1042764E-08 Eh
 * total energy  :   -64.7889361 Eh     change       -0.6199284E-02 Eh
 * total energy  :   -64.7902807 Eh     change       -0.1344638E-02 Eh
 * total energy  :   -64.7903824 Eh     change       -0.1017304E-03 Eh
 * total energy  :   -64.7904593 Eh     change       -0.7682977E-04 Eh
 * total energy  :   -64.7904998 Eh     change       -0.4055873E-04 Eh
 * total energy  :   -64.7905429 Eh     change       -0.4312069E-04 Eh
 * total energy  :   -64.7905969 Eh     change       -0.5397166E-04 Eh
 * total energy  :   -64.7906548 Eh     change       -0.5787688E-04 Eh
 * total energy  :   -64.7907053 Eh     change       -0.5054784E-04 Eh
 * total energy  :   -64.7922654 Eh     change       -0.5735375E-06 Eh
 * total energy  :   -64.7922659 Eh     change       -0.5332305E-06 Eh
 * total energy  :   -64.7922664 Eh     change       -0.4787648E-06 Eh
 * total energy  :   -64.7922668 Eh     change       -0.4334218E-06 Eh
 * total energy  :   -64.7922672 Eh     change       -0.3892815E-06 Eh
 * total energy  :   -64.7922676 Eh     change       -0.3528028E-06 Eh
 * total energy  :   -64.7922679 Eh     change       -0.3212925E-06 Eh
 * total energy  :   -64.7922682 Eh     change       -0.2897170E-06 Eh
 * total energy  :   -64.7922682 Eh     change       -0.2453433E-08 Eh
   *** GEOMETRY OPTIMIZATION CONVERGED AFTER 68 ITERATIONS ***

 final structure:
================
44
 xtb: 6.7.1 (edcfbbe)
C           -5.68223336692969       -0.00044243780592       -0.00196403020491
C           -4.98447904951855        0.64610782478916       -1.01051094065617
C           -3.60306473310625        0.65358718235835       -1.00830701614599
C           -2.88623429764663       -0.00000085403852       -0.00154050099095
C           -1.42352965210205        0.00027907321837       -0.00132276555881
C           -0.71336466046809       -1.23858256291803       -0.02923858863031
C           -1.37658345408091       -2.46467853927178       -0.13003143164160
C           -0.68364614013588       -3.67499369974049       -0.08575055038790
C            0.68530887859081       -3.67510116863871        0.06395781375806
C            1.37773900188924       -2.46473472197449        0.11456434726651
C            0.71398387328242       -1.23841651847641        0.02024337038299
C            1.42362382954406        0.00086657418834       -0.00110174876714
C            2.88633256461054        0.00114257619460       -0.00117303388057
C            3.60311384502941        0.64925227274933        1.00916075476457
C            4.98453447032302        0.64221885586977        1.01104402074024
C            5.68229214478828        0.00161807278328       -0.00129079435201
C            4.98466389182492       -0.63921781943771       -1.01356790311265
C            3.60324685577662       -0.64672551017264       -1.01156115779675
C            0.71348146092069        1.23986320948761       -0.02246468370448
C            1.37673523297598        2.46646758688848       -0.11660739784270
C            0.68379058390678        3.67653953103570       -0.06602813947759
C           -0.68519050128348        3.67585415346668        0.08344010741578
C           -1.37762631365727        2.46524466726673        0.12752533038064
C           -0.71387590452550        1.23943274368526        0.02678614610123
C           -3.60315937289789       -0.65382785529222        1.00500148235148
C           -4.98457832797269       -0.64678491919702        1.00678365255423
H           -6.76236210909458       -0.00060748339394       -0.00212377662922
H           -5.52132452123665        1.14546415206823       -1.80456698193587
H           -3.06224185345845        1.14334169070882       -1.80571699589106
H           -2.44932333271031       -2.47934654859638       -0.24807123320767
H           -1.23009485506774       -4.60388132918405       -0.15770097332279
H            1.23215650130927       -4.60412375290047        0.13098297464484
H            2.45049109570182       -2.47955836988103        0.23247721877459
H            3.06223970939939        1.13428720466978        1.80942438959441
H            5.52139273941317        1.13726307373036        1.80778647710476
H            6.76242008897490        0.00180026219354       -0.00133821342805
H            5.52162099743082       -1.13407636664927       -1.81035931092418
H            3.06246503608608       -1.13195674756046       -1.81176838405477
H            2.44949828948433        2.48175543457501       -0.23435311005890
H            1.23026392416815        4.60579356042043       -0.13289855317770
H           -1.23204181528427        4.60450869553216        0.15534580289309
H           -2.45039488748728        2.47945373502833        0.24536408310835
H           -3.06242919621272       -1.14341504238644        1.80257685311129
H           -5.52150819660258       -1.14631216304424        1.80067519261507

          :  Hamiltonian                  GFN2-xTB          :
         :: gradient norm              0.000042109279 Eh/a0 ::
         :: HOMO-LUMO gap              1.648110793113 eV    ::
         :: SCC energy               -66.055041532039 Eh    ::
         :: -> dispersion             -0.058343522038 Eh    ::
         :: -> Gsolv                  -0.025770315185 Eh    ::
         :: repulsion energy           1.262773326580 Eh    ::

    * Orbital Energies and Occupations

         #    Occupation            Energy/Eh            Energy/eV
      -------------------------------------------------------------
         1        2.0000           -0.6514361             -17.7265
       ...           ...                  ...                  ...
        50        2.0000           -0.4240996             -11.5403
        51        2.0000           -0.4226462             -11.5008
        52        2.0000           -0.4199149             -11.4265
        53        2.0000           -0.4162204             -11.3259
        54        2.0000           -0.4079304             -11.1004
        55        2.0000           -0.4048107             -11.0155
        56        2.0000           -0.4040890             -10.9958
        57        2.0000           -0.3999822             -10.8841
        58        2.0000           -0.3998423             -10.8803
        59        2.0000           -0.3958607             -10.7719
        60        2.0000           -0.3942360             -10.7277
        61        1.0000           -0.3488247              -9.4920
        62        1.0000           -0.2869252              -7.8076 (HOMO)
        63                         -0.2263583              -6.1595 (LUMO)
        64                         -0.2261776              -6.1546
        65                         -0.2253441              -6.1319
        66                         -0.2244154              -6.1067
        67                         -0.2222380              -6.0474
        68                         -0.2202252              -5.9926
        69                         -0.1745704              -4.7503
        70                         -0.1722933              -4.6883
        71                         -0.0976464              -2.6571
        72                         -0.0961649              -2.6168
        73                         -0.0922885              -2.5113
       ...                                ...                  ...
       122                          0.7099471              19.3186
      -------------------------------------------------------------
                  HL-Gap            0.0605670 Eh            1.6481 eV

     #   Z          covCN         q      C6AA      α(0)
     1   6 C        2.919    -0.033    28.811     8.802
     2   6 C        2.917    -0.031    28.763     8.795
     3   6 C        2.924    -0.032    28.804     8.801
     4   6 C        2.974     0.015    27.662     8.627
     5   6 C        2.972    -0.011    28.292     8.725
     6   6 C        2.976     0.008    27.839     8.655
     7   6 C        2.921    -0.039    28.972     8.827
     8   6 C        2.913    -0.032    28.807     8.801
     9   6 C        2.913    -0.032    28.807     8.801
    10   6 C        2.921    -0.039    28.972     8.827
    11   6 C        2.976     0.008    27.839     8.655
    12   6 C        2.973    -0.011    28.292     8.725
    13   6 C        2.974     0.015    27.662     8.627
    14   6 C        2.924    -0.032    28.804     8.801
    15   6 C        2.917    -0.031    28.763     8.795
    16   6 C        2.919    -0.033    28.811     8.802
    17   6 C        2.917    -0.031    28.763     8.795
    18   6 C        2.924    -0.032    28.804     8.801
    19   6 C        2.976     0.008    27.839     8.655
    20   6 C        2.921    -0.039    28.972     8.827
    21   6 C        2.913    -0.032    28.807     8.801
    22   6 C        2.913    -0.032    28.807     8.801
    23   6 C        2.921    -0.039    28.972     8.827
    24   6 C        2.976     0.008    27.839     8.655
    25   6 C        2.924    -0.032    28.804     8.801
    26   6 C        2.917    -0.031    28.763     8.795
    27   1 H        0.926     0.031     2.574     2.509
    28   1 H        0.926     0.032     2.562     2.503
    29   1 H        0.926     0.032     2.561     2.503
    30   1 H        0.926     0.032     2.553     2.498
    31   1 H        0.926     0.029     2.596     2.520
    32   1 H        0.926     0.029     2.596     2.520
    33   1 H        0.926     0.032     2.553     2.498
    34   1 H        0.926     0.032     2.561     2.503
    35   1 H        0.926     0.032     2.562     2.503
    36   1 H        0.926     0.031     2.574     2.509
    37   1 H        0.926     0.032     2.562     2.503
    38   1 H        0.926     0.032     2.561     2.503
    39   1 H        0.926     0.032     2.553     2.498
    40   1 H        0.926     0.029     2.596     2.520
    41   1 H        0.926     0.029     2.596     2.520
    42   1 H        0.926     0.032     2.553     2.498
    43   1 H        0.926     0.032     2.561     2.503
    44   1 H        0.926     0.032     2.562     2.503

molecular dipole:
                 x           y           z       tot (Debye)
 q only:       -0.000      -0.000      -0.000
   full:       -0.000      -0.000      -0.000       0.000

 projected vibrational frequencies (cm⁻¹)
eigval :       -0.00    -0.00    -0.00     0.00     0.00     0.00
eigval :       23.12    44.49    51.88    63.27    70.86    77.89
eigval :       91.47   124.20   189.86   195.34   199.65   234.90
eigval :      237.29   239.63   257.84   360.68   368.31   372.63
eigval :      378.38   395.95   396.56   402.31   420.13   454.93
eigval :      467.14   485.31   563.99   574.46   575.54   579.22
eigval :      588.01   592.68   607.57   613.82   662.79   669.02
eigval :      672.37   676.88   714.07   725.93   744.63   754.75
eigval :      755.59   761.65   840.60   841.47   875.93   882.07
eigval :      884.25   890.52   890.90   899.45   901.27   904.23
eigval :      905.12   907.74   909.60   930.45   930.82   933.38
eigval :      933.52   943.30   987.29   994.14  1080.90  1081.48
eigval :     1100.21  1102.42  1110.11  1118.64  1119.08  1125.49
eigval :     1179.55  1180.88  1180.93  1181.12  1183.01  1194.32
eigval :     1199.94  1201.15  1228.35  1254.76  1267.51  1278.77
eigval :     1282.80  1295.38  1299.34  1310.51  1311.56  1338.99
eigval :     1366.90  1371.99  1377.77  1406.80  1422.61  1422.76
eigval :     1423.92  1458.51  1459.90  1479.49  1481.36  1518.02
eigval :     1527.69  1557.70  1559.01  1559.27  1581.46  1582.31
eigval :     3066.52  3066.54  3067.13  3067.15  3071.05  3071.17
eigval :     3075.87  3075.92  3078.74  3078.85  3079.98  3080.10
eigval :     3087.93  3088.09  3091.89  3092.21  3094.77  3096.54

   temp. (K)  partition function   enthalpy   heat capacity  entropy
                                   cal/mol     cal/K/mol   cal/K/mol   J/K/mol
 298.15  VIB  0.196E+08            10945.727     74.872     66.039
         ROT  0.267E+07              888.752      2.981     32.389
         INT  0.523E+14            11834.479     77.853     98.428
         TR   0.581E+28             1481.254      4.968     43.261
         TOT                       13315.7328    82.8215   141.6892   592.8275

       T/K    H(0)-H(T)+PV         H(T)/Eh          T*S/Eh         G(T)/Eh
   ------------------------------------------------------------------------
    298.15    0.212200E-01    0.362531E+00    0.673211E-01    0.295210E+00
   ------------------------------------------------------------------------

         :::::::::::::::::::::::::::::::::::::::::::::::::::::
         ::                  THERMODYNAMIC                  ::
         :::::::::::::::::::::::::::::::::::::::::::::::::::::
         :: total free energy         -64.497058354287 Eh   ::
         ::.................................................::
         :: total energy              -64.792268205590 Eh   ::
         :: zero point energy           0.341310974967 Eh   ::
         :: G(RRHO) w/o ZPVE           -0.046101123664 Eh   ::
         :: G(RRHO) contrib.            0.295209851303 Eh   ::
         :::::::::::::::::::::::::::::::::::::::::::::::::::::

           -------------------------------------------------
          | TOTAL ENERGY              -64.792268205590 Eh   |
          | TOTAL ENTHALPY            -64.429737259708 Eh   |
          | TOTAL FREE ENERGY         -64.497058354287 Eh   |
          | GRADIENT NORM               0.000042088664 Eh/α |
          | HOMO-LUMO GAP               1.648110821154 eV   |
           -------------------------------------------------

 * finished run on 2025/07/20 at 14:52:08.761
