   * xtb version 6.7.1 (edcfbbe) compiled by 'albert@albert-system' on 2024-07-22

   ID    Z sym.   atoms
    1    6 C      1-26
    2    1 H      27-44

          program call               : xtb data2507/toluene/DPAA/DPAA_toluene_T1_crest.xyz --gfn 2 --uhf 2 --gbsa toluene --ohess vtight --parallel 40 --molden --ceasefiles --namespace data2507/toluene/DPAA/DPAA_toluene_T1_finalOpt
      * Solvation model:               GBSA
        Solvent                        toluene
        Solvent mass                       9.2140E+01 g/mol
          :  Hamiltonian                  GFN2-xTB          :
 * total energy  :   -64.7921751 Eh     change       -0.1537515E-08 Eh
 * total energy  :   -64.7921973 Eh     change       -0.2223070E-04 Eh
 * total energy  :   -64.7922059 Eh     change       -0.8566742E-05 Eh
 * total energy  :   -64.7922125 Eh     change       -0.6594210E-05 Eh
 * total energy  :   -64.7922181 Eh     change       -0.5668228E-05 Eh
 * total energy  :   -64.7922234 Eh     change       -0.5308162E-05 Eh
 * total energy  :   -64.7922285 Eh     change       -0.5092405E-05 Eh
 * total energy  :   -64.7922331 Eh     change       -0.4599891E-05 Eh
 * total energy  :   -64.7922371 Eh     change       -0.4018237E-05 Eh
 * total energy  :   -64.7922407 Eh     change       -0.3577340E-05 Eh
 * total energy  :   -64.7922691 Eh     change       -0.3528144E-06 Eh
 * total energy  :   -64.7922694 Eh     change       -0.3017210E-06 Eh
 * total energy  :   -64.7922697 Eh     change       -0.2590145E-06 Eh
 * total energy  :   -64.7922699 Eh     change       -0.2305136E-06 Eh
 * total energy  :   -64.7922701 Eh     change       -0.1978359E-06 Eh
 * total energy  :   -64.7922703 Eh     change       -0.1483418E-06 Eh
 * total energy  :   -64.7922704 Eh     change       -0.1310040E-06 Eh
 * total energy  :   -64.7922705 Eh     change       -0.1007420E-06 Eh
 * total energy  :   -64.7922706 Eh     change       -0.8451347E-07 Eh
   *** GEOMETRY OPTIMIZATION CONVERGED AFTER 40 ITERATIONS ***

 final structure:
================
44
 xtb: 6.7.1 (edcfbbe)
C           -5.68276658802044        0.00102885134925       -0.00169669713059
C           -4.98438349449221       -0.65640015778197       -1.00280187785442
C           -3.60304668737261       -0.66354206233800       -1.00007064886422
C           -2.88621999140075        0.00068292111258        0.00004326861087
C           -1.42397051002968        0.00038848689801        0.00079856388761
C           -0.71393471237245       -1.23877818536073        0.02785968956507
C           -1.37698344081493       -2.46478912721722        0.13115298362777
C           -0.68501650992430       -3.67529079325174        0.08056180178486
C            0.68285603463088       -3.67569055665852       -0.07915834403001
C            1.37555203773335       -2.46560536896940       -0.12971656226067
C            0.71325369424668       -1.23919783424186       -0.02624134698678
C            1.42396089333406       -0.00043150171142        0.00087937064447
C            2.88621077042114       -0.00072952296624        0.00012699698650
C            3.60410418077241       -0.66564295001765        0.99900205848735
C            4.98545625231299       -0.65889976483239        0.99994519704325
C            5.68276416177701       -0.00117469692786       -0.00171058982631
C            4.98436706472715        0.65678151430806       -1.00245968784142
C            3.60303092267988        0.66397450163785       -0.99967376563139
C            0.71392056619727        1.23872136741599        0.02849194703989
C            1.37695741936023        2.46468759107834        0.13239999786072
C            0.68498806416037        3.67520941761195        0.08232797406530
C           -0.68287210126654        3.67568001164042       -0.07749966019408
C           -1.37556171063072        2.46561550379696       -0.12866922220651
C           -0.71326408372359        1.23916547975734       -0.02570249944119
C           -3.60409824293737        0.66508981601890        0.99926565289403
C           -4.98544986361467        0.65829454536293        1.00025473677804
H           -6.76288922712657        0.00117239781756       -0.00236183411248
H           -5.52077798961513       -1.16455473009419       -1.79157135870315
H           -3.06216584390351       -1.16119827622819       -1.79250912414239
H           -2.44891131705017       -2.47927230676953        0.25629607942703
H           -1.23139306680866       -4.60405970983235        0.15452852620793
H            1.22867384646824       -4.60478286391397       -0.15319164100862
H            2.44745194442830       -2.48074337779691       -0.25498945591961
H            3.06412473282748       -1.16352344971191        1.79191485952059
H            5.52272048070178       -1.16759502304712        1.78777493120291
H            6.76288672623040       -0.00137298146706       -0.00242392538363
H            5.52074878400484        1.16530721971944       -1.79099864119253
H            3.06214661738340        1.16204643109864       -1.79184696876522
H            2.44887674869126        2.47911542373875        0.25762741544200
H            1.23135388264650        4.60394597345026        0.15677944332311
H           -1.22868638869441        4.60480587255795       -0.15113898812094
H           -2.44745229100311        2.48080316659534       -0.25401818176463
H           -3.06410022552879        1.16260273395662        1.79239797618405
H           -5.52270654420500        1.16658105161325        1.78835284979812

          :  Hamiltonian                  GFN2-xTB          :
         :: gradient norm              0.000020812069 Eh/a0 ::
         :: HOMO-LUMO gap              1.649105486260 eV    ::
         :: SCC energy               -66.054948436649 Eh    ::
         :: -> dispersion             -0.058358766023 Eh    ::
         :: -> Gsolv                  -0.025744577024 Eh    ::
         :: repulsion energy           1.262677840896 Eh    ::

    * Orbital Energies and Occupations

         #    Occupation            Energy/Eh            Energy/eV
      -------------------------------------------------------------
         1        2.0000           -0.6514149             -17.7259
       ...           ...                  ...                  ...
        50        2.0000           -0.4240201             -11.5382
        51        2.0000           -0.4226527             -11.5010
        52        2.0000           -0.4199700             -11.4280
        53        2.0000           -0.4161749             -11.3247
        54        2.0000           -0.4079846             -11.1018
        55        2.0000           -0.4047605             -11.0141
        56        2.0000           -0.4041439             -10.9973
        57        2.0000           -0.3999321             -10.8827
        58        2.0000           -0.3998563             -10.8806
        59        2.0000           -0.3956876             -10.7672
        60        2.0000           -0.3942171             -10.7272
        61        1.0000           -0.3487369              -9.4896
        62        1.0000           -0.2870061              -7.8098 (HOMO)
        63                         -0.2264025              -6.1607 (LUMO)
        64                         -0.2262115              -6.1555
        65                         -0.2254038              -6.1335
        66                         -0.2244173              -6.1067
        67                         -0.2221772              -6.0458
        68                         -0.2201486              -5.9905
        69                         -0.1743693              -4.7448
        70                         -0.1722109              -4.6861
        71                         -0.0977381              -2.6596
        72                         -0.0962331              -2.6186
        73                         -0.0921405              -2.5073
       ...                                ...                  ...
       122                          0.7099164              19.3178
      -------------------------------------------------------------
                  HL-Gap            0.0606035 Eh            1.6491 eV

     #   Z          covCN         q      C6AA      α(0)
     1   6 C        2.919    -0.033    28.811     8.802
     2   6 C        2.917    -0.031    28.764     8.795
     3   6 C        2.924    -0.032    28.805     8.801
     4   6 C        2.973     0.015    27.664     8.627
     5   6 C        2.972    -0.011    28.293     8.725
     6   6 C        2.976     0.008    27.839     8.655
     7   6 C        2.921    -0.039    28.972     8.827
     8   6 C        2.913    -0.032    28.808     8.801
     9   6 C        2.913    -0.032    28.808     8.801
    10   6 C        2.921    -0.039    28.972     8.827
    11   6 C        2.976     0.008    27.839     8.655
    12   6 C        2.972    -0.011    28.293     8.725
    13   6 C        2.973     0.015    27.664     8.627
    14   6 C        2.924    -0.032    28.805     8.802
    15   6 C        2.917    -0.031    28.764     8.795
    16   6 C        2.919    -0.033    28.811     8.802
    17   6 C        2.917    -0.031    28.764     8.795
    18   6 C        2.924    -0.032    28.805     8.801
    19   6 C        2.976     0.008    27.839     8.655
    20   6 C        2.921    -0.039    28.972     8.827
    21   6 C        2.913    -0.032    28.808     8.801
    22   6 C        2.913    -0.032    28.808     8.801
    23   6 C        2.921    -0.039    28.972     8.827
    24   6 C        2.976     0.008    27.839     8.655
    25   6 C        2.924    -0.032    28.805     8.802
    26   6 C        2.917    -0.031    28.764     8.795
    27   1 H        0.926     0.031     2.575     2.509
    28   1 H        0.926     0.032     2.562     2.503
    29   1 H        0.926     0.032     2.560     2.502
    30   1 H        0.926     0.033     2.551     2.498
    31   1 H        0.926     0.029     2.596     2.520
    32   1 H        0.926     0.029     2.596     2.520
    33   1 H        0.926     0.033     2.551     2.497
    34   1 H        0.926     0.032     2.560     2.502
    35   1 H        0.926     0.032     2.562     2.503
    36   1 H        0.926     0.031     2.575     2.509
    37   1 H        0.926     0.032     2.562     2.503
    38   1 H        0.926     0.032     2.560     2.502
    39   1 H        0.926     0.033     2.551     2.498
    40   1 H        0.926     0.029     2.596     2.520
    41   1 H        0.926     0.029     2.596     2.520
    42   1 H        0.926     0.033     2.551     2.497
    43   1 H        0.926     0.032     2.560     2.502
    44   1 H        0.926     0.032     2.562     2.503

molecular dipole:
                 x           y           z       tot (Debye)
 q only:       -0.000      -0.000      -0.000
   full:       -0.000      -0.000      -0.000       0.000

 projected vibrational frequencies (cm⁻¹)
eigval :       -0.00    -0.00    -0.00    -0.00     0.00     0.00
eigval :       24.43    49.29    54.33    65.95    70.65    77.05
eigval :       93.99   127.34   191.38   195.91   200.22   236.27
eigval :      237.51   240.37   259.24   362.72   368.38   372.53
eigval :      378.55   396.38   397.22   402.02   422.96   455.74
eigval :      467.65   485.60   564.61   574.46   575.82   579.47
eigval :      588.49   592.88   607.39   613.91   663.31   669.18
eigval :      673.35   676.50   714.38   725.88   745.46   753.88
eigval :      755.30   761.36   842.25   842.85   875.26   881.26
eigval :      884.89   891.12   891.29   899.24   901.41   904.31
eigval :      905.21   907.74   909.67   929.55   930.01   933.26
eigval :      933.36   943.53   987.12   993.82  1080.79  1081.38
eigval :     1100.40  1102.48  1110.34  1118.56  1119.21  1125.52
eigval :     1179.49  1180.24  1180.30  1181.04  1182.74  1194.13
eigval :     1199.77  1201.16  1228.50  1254.61  1267.41  1278.48
eigval :     1282.63  1295.56  1299.06  1310.74  1311.83  1338.57
eigval :     1366.53  1372.27  1377.38  1406.93  1422.51  1422.54
eigval :     1423.76  1458.15  1459.40  1480.00  1481.29  1518.50
eigval :     1527.76  1557.52  1558.67  1558.68  1581.10  1581.98
eigval :     3066.45  3066.47  3067.21  3067.25  3071.13  3071.24
eigval :     3076.34  3076.44  3079.12  3079.21  3080.07  3080.18
eigval :     3087.98  3088.14  3091.95  3092.28  3094.84  3096.59

   temp. (K)  partition function   enthalpy   heat capacity  entropy
                                   cal/mol     cal/K/mol   cal/K/mol   J/K/mol
 298.15  VIB  0.149E+08            10914.128     75.023     65.779
         ROT  0.267E+07              888.752      2.981     32.389
         INT  0.399E+14            11802.881     78.003     98.168
         TR   0.581E+28             1481.254      4.968     43.261
         TOT                       13284.1346    82.9716   141.4289   591.7384

       T/K    H(0)-H(T)+PV         H(T)/Eh          T*S/Eh         G(T)/Eh
   ------------------------------------------------------------------------
    298.15    0.211696E-01    0.362551E+00    0.671974E-01    0.295354E+00
   ------------------------------------------------------------------------

         :::::::::::::::::::::::::::::::::::::::::::::::::::::
         ::                  THERMODYNAMIC                  ::
         :::::::::::::::::::::::::::::::::::::::::::::::::::::
         :: total free energy         -64.496916643316 Eh   ::
         ::.................................................::
         :: total energy              -64.792270595877 Eh   ::
         :: zero point energy           0.341381757790 Eh   ::
         :: G(RRHO) w/o ZPVE           -0.046027805229 Eh   ::
         :: G(RRHO) contrib.            0.295353952561 Eh   ::
         :::::::::::::::::::::::::::::::::::::::::::::::::::::

           -------------------------------------------------
          | TOTAL ENERGY              -64.792270595877 Eh   |
          | TOTAL ENTHALPY            -64.429719222140 Eh   |
          | TOTAL FREE ENERGY         -64.496916643316 Eh   |
          | GRADIENT NORM               0.000020811873 Eh/α |
          | HOMO-LUMO GAP               1.649106053125 eV   |
           -------------------------------------------------

 * finished run on 2025/07/20 at 14:52:59.449
