   * xtb version 6.7.1 (edcfbbe) compiled by 'albert@albert-system' on 2024-07-22

   ID    Z sym.   atoms
    1    6 C      1-26
    2    1 H      27-44

          program call               : xtb data2507/toluene/DPAA/DPAA_toluene_S0_crest.xyz --gfn 2 --gbsa toluene --ohess vtight --parallel 40 --molden --ceasefiles --namespace data2507/toluene/DPAA/DPAA_toluene_S0_finalOpt
      * Solvation model:               GBSA
        Solvent                        toluene
        Solvent mass                       9.2140E+01 g/mol
          :  Hamiltonian                  GFN2-xTB          :
 * total energy  :   -64.8619787 Eh     change       -0.7765095E-09 Eh
 * total energy  :   -64.8620011 Eh     change       -0.2232999E-04 Eh
 * total energy  :   -64.8620120 Eh     change       -0.1096745E-04 Eh
 * total energy  :   -64.8620245 Eh     change       -0.1251876E-04 Eh
 * total energy  :   -64.8620365 Eh     change       -0.1191639E-04 Eh
 * total energy  :   -64.8620451 Eh     change       -0.8685474E-05 Eh
 * total energy  :   -64.8620511 Eh     change       -0.6003938E-05 Eh
 * total energy  :   -64.8620564 Eh     change       -0.5254029E-05 Eh
 * total energy  :   -64.8620624 Eh     change       -0.6037497E-05 Eh
 * total energy  :   -64.8620697 Eh     change       -0.7285289E-05 Eh
 * total energy  :   -64.8621604 Eh     change       -0.1045252E-05 Eh
 * total energy  :   -64.8621614 Eh     change       -0.9354951E-06 Eh
 * total energy  :   -64.8621622 Eh     change       -0.8829751E-06 Eh
 * total energy  :   -64.8621631 Eh     change       -0.8723307E-06 Eh
 * total energy  :   -64.8621640 Eh     change       -0.8728760E-06 Eh
 * total energy  :   -64.8621649 Eh     change       -0.8821435E-06 Eh
 * total energy  :   -64.8621658 Eh     change       -0.8933444E-06 Eh
 * total energy  :   -64.8621667 Eh     change       -0.9024804E-06 Eh
 * total energy  :   -64.8621667 Eh     change       -0.5353755E-08 Eh
   *** GEOMETRY OPTIMIZATION CONVERGED AFTER 44 ITERATIONS ***

 final structure:
================
44
 xtb: 6.7.1 (edcfbbe)
C           -5.67699658919249        0.00020240279294       -0.00487136179739
C           -4.98076162348659        0.31704544596626       -1.15975373041491
C           -3.59705840064007        0.31892733540258       -1.15874984992978
C           -2.89335784735951       -0.00017463886968       -0.00152854372327
C           -1.41254782390815       -0.00001701685081       -0.00012560907583
C           -0.71477955198515       -1.21571655101969       -0.00715508288063
C           -1.39044245388733       -2.46470029639962       -0.03576642539849
C           -0.70362688831510       -3.63957640981401       -0.02818546276945
C            0.70574698261447       -3.63926427211621        0.01155612486973
C            1.39184169246653       -2.46401971825614        0.02443701530593
C            0.71539721404222       -1.21534368326248        0.00172437573748
C            1.41256128326795        0.00069967937278       -0.00005405886666
C            2.89340882109531        0.00104996176308       -0.00123284848583
C            3.59958551277750        0.31164046079537        1.15676931314090
C            4.98329855485156        0.31006483921283        1.15463128098462
C            5.67703171784998        0.00199960530565       -0.00412251687699
C            4.98112018726249       -0.30658773439411       -1.16143100764232
C            3.59741610735705       -0.30912848454684       -1.16067939621652
C            0.71480923175407        1.21640858949806       -0.00119972940597
C            1.39058091541870        2.46545682573590       -0.02349526717058
C            0.70386263353885        3.64033066090800       -0.00996635390617
C           -0.70550780650715        3.63987949356359        0.02980724156850
C           -1.39169428532412        2.46463435437301        0.03671944475972
C           -0.71536131763682        1.21602353877200        0.00762284488814
C           -3.59987550125879       -0.31912641126051        1.15399321408987
C           -4.98359207039349       -0.31687648808921        1.15164495529516
H           -6.75738074669591        0.00037319643833       -0.00613452694222
H           -5.51734801027708        0.56445875600284       -2.06458941797191
H           -3.05139101898670        0.56520871393162       -2.05891726474540
H           -2.47026534188039       -2.46433204122086       -0.06451051156909
H           -1.23247649877975       -4.58160602579848       -0.04997511409688
H            1.23514901608639       -4.58107213491254        0.02901033051368
H            2.47166902608712       -2.46304835942758        0.05308501486596
H            3.05591848784903        0.55116485546252        2.05996177269293
H            5.52187755827348        0.55079809725936        2.06007672074238
H            6.75741542325526        0.00239160504367       -0.00523462312154
H            5.51797281489041       -0.54696318241494       -2.06799740437642
H            3.05202277916457       -0.54901485354859       -2.06273354606898
H            2.47040161575261        2.46510269183917       -0.05224165517588
H            1.23276897945805        4.58242564032779       -0.02695672463935
H           -1.23485899643175        4.58161303860398        0.05217641678931
H           -2.47151841844474        2.46366563437981        0.06548905940221
H           -3.05647407059275       -0.56549888808717        2.05550576330123
H           -5.52243274873040       -0.56414039746220        2.05517899771956

          :  Hamiltonian                  GFN2-xTB          :
         :: gradient norm              0.000059392783 Eh/a0 ::
         :: HOMO-LUMO gap              2.156205166664 eV    ::
         :: SCC energy               -66.143670690682 Eh    ::
         :: -> dispersion             -0.058236255742 Eh    ::
         :: -> Gsolv                  -0.026097728668 Eh    ::
         :: repulsion energy           1.281504025209 Eh    ::

    * Orbital Energies and Occupations

         #    Occupation            Energy/Eh            Energy/eV
      -------------------------------------------------------------
         1        2.0000           -0.6534172             -17.7804
       ...           ...                  ...                  ...
        49        2.0000           -0.4258384             -11.5877
        50        2.0000           -0.4247880             -11.5591
        51        2.0000           -0.4219115             -11.4808
        52        2.0000           -0.4193014             -11.4098
        53        2.0000           -0.4179995             -11.3743
        54        2.0000           -0.4061837             -11.0528
        55        2.0000           -0.4048647             -11.0169
        56        2.0000           -0.4044367             -11.0053
        57        2.0000           -0.3995448             -10.8722
        58        2.0000           -0.3992612             -10.8645
        59        2.0000           -0.3977623             -10.8237
        60        2.0000           -0.3941960             -10.7266
        61        2.0000           -0.3573636              -9.7244 (HOMO)
        62                         -0.2781245              -7.5682 (LUMO)
        63                         -0.2301210              -6.2619
        64                         -0.2236243              -6.0851
        65                         -0.2235866              -6.0841
        66                         -0.2232867              -6.0759
        67                         -0.2228817              -6.0649
        68                         -0.2187975              -5.9538
        69                         -0.1746829              -4.7534
        70                         -0.1712189              -4.6591
        71                         -0.0977187              -2.6591
        72                         -0.0939627              -2.5569
       ...                                ...                  ...
       122                          0.7152750              19.4636
      -------------------------------------------------------------
                  HL-Gap            0.0792391 Eh            2.1562 eV

     #   Z          covCN         q      C6AA      α(0)
     1   6 C        2.920    -0.033    28.815     8.803
     2   6 C        2.918    -0.031    28.762     8.795
     3   6 C        2.924    -0.033    28.812     8.802
     4   6 C        2.977     0.016    27.658     8.627
     5   6 C        2.977    -0.007    28.185     8.708
     6   6 C        2.983     0.005    27.902     8.665
     7   6 C        2.917    -0.035    28.869     8.811
     8   6 C        2.914    -0.031    28.779     8.797
     9   6 C        2.914    -0.031    28.779     8.797
    10   6 C        2.917    -0.035    28.869     8.811
    11   6 C        2.983     0.005    27.902     8.665
    12   6 C        2.977    -0.007    28.185     8.708
    13   6 C        2.977     0.016    27.658     8.627
    14   6 C        2.924    -0.033    28.812     8.802
    15   6 C        2.918    -0.031    28.762     8.795
    16   6 C        2.920    -0.033    28.816     8.803
    17   6 C        2.918    -0.031    28.762     8.795
    18   6 C        2.924    -0.033    28.812     8.802
    19   6 C        2.983     0.005    27.902     8.665
    20   6 C        2.917    -0.035    28.869     8.811
    21   6 C        2.914    -0.031    28.779     8.797
    22   6 C        2.914    -0.031    28.779     8.797
    23   6 C        2.917    -0.035    28.869     8.811
    24   6 C        2.983     0.005    27.902     8.665
    25   6 C        2.924    -0.033    28.812     8.802
    26   6 C        2.918    -0.031    28.762     8.795
    27   1 H        0.926     0.031     2.578     2.511
    28   1 H        0.926     0.031     2.569     2.506
    29   1 H        0.926     0.029     2.598     2.521
    30   1 H        0.926     0.031     2.575     2.510
    31   1 H        0.926     0.030     2.591     2.517
    32   1 H        0.926     0.030     2.591     2.517
    33   1 H        0.926     0.031     2.576     2.510
    34   1 H        0.926     0.029     2.598     2.521
    35   1 H        0.926     0.031     2.569     2.506
    36   1 H        0.926     0.031     2.578     2.511
    37   1 H        0.926     0.031     2.569     2.506
    38   1 H        0.926     0.029     2.599     2.521
    39   1 H        0.926     0.031     2.576     2.510
    40   1 H        0.926     0.030     2.591     2.517
    41   1 H        0.926     0.030     2.591     2.517
    42   1 H        0.926     0.031     2.575     2.510
    43   1 H        0.926     0.029     2.598     2.521
    44   1 H        0.926     0.031     2.569     2.506

molecular dipole:
                 x           y           z       tot (Debye)
 q only:       -0.000      -0.000      -0.000
   full:       -0.000       0.000      -0.000       0.000

 projected vibrational frequencies (cm⁻¹)
eigval :       -0.00    -0.00    -0.00    -0.00     0.00     0.00
eigval :       23.66    37.94    41.63    54.75    72.49    75.22
eigval :       81.86   107.91   185.78   198.64   201.42   215.03
eigval :      231.53   241.05   246.32   366.68   367.66   380.76
eigval :      385.39   400.32   400.35   436.99   446.73   456.47
eigval :      459.30   494.61   576.18   581.59   584.49   585.62
eigval :      593.36   602.46   613.34   630.95   670.58   672.40
eigval :      680.25   691.39   727.25   737.88   756.78   764.91
eigval :      774.33   775.59   874.58   876.35   883.66   885.38
eigval :      894.76   903.35   907.81   908.02   912.32   918.01
eigval :      918.43   927.46   927.66   932.41   933.20   934.72
eigval :      934.86   936.11   990.76   999.76  1080.82  1080.95
eigval :     1081.29  1082.22  1116.98  1117.20  1134.00  1144.73
eigval :     1180.57  1182.00  1182.39  1184.31  1193.71  1194.33
eigval :     1213.73  1220.67  1230.71  1259.58  1261.84  1279.29
eigval :     1280.12  1308.85  1309.05  1324.55  1349.04  1370.35
eigval :     1384.04  1417.47  1426.46  1426.58  1429.10  1441.69
eigval :     1464.22  1484.02  1492.99  1525.15  1529.99  1541.91
eigval :     1578.67  1579.08  1598.05  1598.19  1607.27  1621.65
eigval :     3066.49  3066.51  3066.84  3066.91  3068.89  3068.91
eigval :     3073.42  3073.49  3075.28  3075.38  3078.07  3078.22
eigval :     3084.44  3084.71  3087.40  3087.45  3089.21  3091.13

   temp. (K)  partition function   enthalpy   heat capacity  entropy
                                   cal/mol     cal/K/mol   cal/K/mol   J/K/mol
 298.15  VIB  0.357E+08            10895.163     73.328     66.127
         ROT  0.265E+07              888.752      2.981     32.373
         INT  0.946E+14            11783.915     76.308     98.500
         TR   0.581E+28             1481.254      4.968     43.261
         TOT                       13265.1693    81.2766   141.7614   593.1298

       T/K    H(0)-H(T)+PV         H(T)/Eh          T*S/Eh         G(T)/Eh
   ------------------------------------------------------------------------
    298.15    0.211394E-01    0.364965E+00    0.673554E-01    0.297610E+00
   ------------------------------------------------------------------------

         :::::::::::::::::::::::::::::::::::::::::::::::::::::
         ::                  THERMODYNAMIC                  ::
         :::::::::::::::::::::::::::::::::::::::::::::::::::::
         :: total free energy         -64.564557065196 Eh   ::
         ::.................................................::
         :: total energy              -64.862166665740 Eh   ::
         :: zero point energy           0.343825638406 Eh   ::
         :: G(RRHO) w/o ZPVE           -0.046216037862 Eh   ::
         :: G(RRHO) contrib.            0.297609600544 Eh   ::
         :::::::::::::::::::::::::::::::::::::::::::::::::::::

           -------------------------------------------------
          | TOTAL ENERGY              -64.862166665740 Eh   |
          | TOTAL ENTHALPY            -64.497201634509 Eh   |
          | TOTAL FREE ENERGY         -64.564557065196 Eh   |
          | GRADIENT NORM               0.000059393890 Eh/α |
          | HOMO-LUMO GAP               2.156205161005 eV   |
           -------------------------------------------------

 * finished run on 2025/07/20 at 14:52:05.937
