   * xtb version 6.7.1 (edcfbbe) compiled by 'albert@albert-system' on 2024-07-22

   ID    Z sym.   atoms
    1    7 N      1, 14
    2    6 C      2-13, 15-30
    3    1 H      31-54

          program call               : xtb data2507/gas/TPA-L-BN/TPA-L-BN.xyz --gfn 2 --ohess vtight --parallel 40 --molden --ceasefiles --namespace data2507/gas/TPA-L-BN/TPA-L-BN_gas_S0_preOpt
          :  Hamiltonian                  GFN2-xTB          :
 * total energy  :   -77.9887030 Eh     change       -0.3405631E-09 Eh
 * total energy  :   -77.9977560 Eh     change       -0.9053032E-02 Eh
 * total energy  :   -78.0005424 Eh     change       -0.2786316E-02 Eh
 * total energy  :   -78.0011369 Eh     change       -0.5944931E-03 Eh
 * total energy  :   -78.0014649 Eh     change       -0.3280918E-03 Eh
 * total energy  :   -78.0016194 Eh     change       -0.1544736E-03 Eh
 * total energy  :   -78.0017854 Eh     change       -0.1659631E-03 Eh
 * total energy  :   -78.0018987 Eh     change       -0.1133288E-03 Eh
 * total energy  :   -78.0019831 Eh     change       -0.8438070E-04 Eh
 * total energy  :   -78.0020397 Eh     change       -0.5660150E-04 Eh
 * total energy  :   -78.0022811 Eh     change       -0.8665620E-06 Eh
 * total energy  :   -78.0022819 Eh     change       -0.8107046E-06 Eh
 * total energy  :   -78.0022826 Eh     change       -0.6933909E-06 Eh
 * total energy  :   -78.0022832 Eh     change       -0.5601966E-06 Eh
 * total energy  :   -78.0022836 Eh     change       -0.4816111E-06 Eh
 * total energy  :   -78.0022841 Eh     change       -0.4781178E-06 Eh
 * total energy  :   -78.0022847 Eh     change       -0.5770948E-06 Eh
 * total energy  :   -78.0022855 Eh     change       -0.7537884E-06 Eh
 * total energy  :   -78.0022855 Eh     change       -0.5325703E-08 Eh
   *** GEOMETRY OPTIMIZATION CONVERGED AFTER 44 ITERATIONS ***

 final structure:
================
54
 xtb: 6.7.1 (edcfbbe)
N            7.11091515598998       -3.59169095983955       -2.17152909457445
C            6.49222794499655       -2.69146357047795       -1.82232742068994
C            5.73170004473428       -1.58230537039084       -1.38949382729784
C            6.35417702219488       -0.52746925561612       -0.72024686198149
C            5.60472884319557        0.55102804072969       -0.29880113181119
C            4.23237507971040        0.60463112552931       -0.52854000786413
C            3.42986305506941        1.77400525306402       -0.04060473844553
C            3.35725232049104        1.82466704652820        1.49076260884475
C            2.66580254270880        0.59407136646622        2.08793779268366
C            1.26294628108389        0.41294409995614        1.57937665750543
C            0.30155730678268        1.39938474970669        1.77258315215721
C           -0.98403520535394        1.24759658645228        1.29605153887703
C           -1.34843064649844        0.09308401279666        0.60347222235334
N           -2.64950415559932       -0.06164664524449        0.11203369080414
C           -3.32932300536313        1.04056713972300       -0.41678678154325
C           -2.64422590525118        2.00408587995242       -1.15719257802181
C           -3.31658659969404        3.09391967938744       -1.67449650863178
C           -4.67915327685129        3.23908429656861       -1.47198574256271
C           -5.36540590769848        2.28360322643902       -0.74038802771662
C           -4.70037166696424        1.19476641676942       -0.21155715301359
C           -3.27138654446162       -1.31408921156298        0.16358835702306
C           -3.05521369276177       -2.16716009963511        1.24570541432646
C           -3.66888439109334       -3.40371742201338        1.29069357590866
C           -4.51143829683488       -3.80742289134757        0.26796673421225
C           -4.73188286573014       -2.96284399188957       -0.80772570118309
C           -4.11585282224251       -1.72805542584174       -0.86647342314736
C           -0.39295756153344       -0.90424283328751        0.41664581347013
C            0.88921809391789       -0.74198200040354        0.90394891370379
C            3.62458825143762       -0.44763435382052       -1.20486811984975
C            4.35924166128361       -1.53538423718891       -1.63330835402599
H            7.41860652247107       -0.56395801770537       -0.53994471331889
H            6.09145073489250        1.36892055513870        0.21263240417094
H            2.41662832769177        1.71998273722446       -0.44278060937736
H            3.89021065335950        2.69966695196839       -0.39651074007726
H            4.36596643218430        1.89433579439457        1.90285049129156
H            2.81554467346079        2.72626305531065        1.78155234416648
H            2.64328476752665        0.70616563961032        3.17596436703927
H            3.25369091484633       -0.29658075412479        1.85607793311190
H            0.55708414886391        2.29683340826382        2.31718788952215
H           -1.71961109513557        2.02110239305165        1.46187446471951
H           -1.58339134585184        1.88848419345216       -1.32576345332189
H           -2.77349556506307        3.83085481404878       -2.24802013182971
H           -5.20209636869342        4.09013461443662       -1.88102478743615
H           -6.42692252412512        2.39116441254184       -0.57206779186789
H           -5.23672154287896        0.45719584415925        0.36736198938271
H           -2.40712174918024       -1.85089124434469        2.05006625688213
H           -3.49464264806126       -4.05314822510719        2.13607089223786
H           -4.99252788101909       -4.77279402827389        0.30886603679853
H           -5.38264125199986       -3.27111637926952       -1.61285850377136
H           -4.28208049046479       -1.07581117902089       -1.71142524954600
H           -0.66205494478143       -1.80595719482132       -0.11396223293813
H            1.61515203119129       -1.52854882316671        0.75288594141903
H            2.56213963307726       -0.41171231036229       -1.39694337235440
H            3.88160350802431       -2.35091690891792       -2.15652842441066

          :  Hamiltonian                  GFN2-xTB          :
         :: gradient norm              0.000057349007 Eh/a0 ::
         :: HOMO-LUMO gap              2.188978896041 eV    ::
         :: SCC energy               -79.483254503684 Eh    ::
         :: -> dispersion             -0.065946548040 Eh    ::
         :: repulsion energy           1.480969045211 Eh    ::

    * Orbital Energies and Occupations

         #    Occupation            Energy/Eh            Energy/eV
      -------------------------------------------------------------
         1        2.0000           -0.6666569             -18.1407
       ...           ...                  ...                  ...
        61        2.0000           -0.4308532             -11.7241
        62        2.0000           -0.4248370             -11.5604
        63        2.0000           -0.4234232             -11.5219
        64        2.0000           -0.4231394             -11.5142
        65        2.0000           -0.4221898             -11.4884
        66        2.0000           -0.4168006             -11.3417
        67        2.0000           -0.4108949             -11.1810
        68        2.0000           -0.4094753             -11.1424
        69        2.0000           -0.4080149             -11.1027
        70        2.0000           -0.4058039             -11.0425
        71        2.0000           -0.4050902             -11.0231
        72        2.0000           -0.4017111             -10.9311
        73        2.0000           -0.3496818              -9.5153 (HOMO)
        74                         -0.2692383              -7.3263 (LUMO)
        75                         -0.2407264              -6.5505
        76                         -0.2316250              -6.3028
        77                         -0.2308081              -6.2806
        78                         -0.2285103              -6.2181
        79                         -0.2231981              -6.0735
        80                         -0.2220791              -6.0431
        81                         -0.2027395              -5.5168
        82                         -0.1951878              -5.3113
        83                         -0.1710913              -4.6556
        84                         -0.1013121              -2.7568
       ...                                ...                  ...
       144                          1.1741976              31.9515
      -------------------------------------------------------------
                  HL-Gap            0.0804435 Eh            2.1890 eV

     #   Z          covCN         q      C6AA      α(0)
     1   7 N        0.911    -0.239    26.237     7.408
     2   6 C        1.912     0.111    28.358     8.600
     3   6 C        2.974     0.015    27.683     8.630
     4   6 C        2.925    -0.022    28.555     8.763
     5   6 C        2.924    -0.034    28.845     8.808
     6   6 C        2.969     0.025    27.447     8.593
     7   6 C        3.808    -0.063    21.697     6.631
     8   6 C        3.803    -0.050    21.478     6.598
     9   6 C        3.807    -0.061    21.668     6.626
    10   6 C        2.967     0.006    27.895     8.663
    11   6 C        2.925    -0.038    28.943     8.823
    12   6 C        2.921    -0.049    29.228     8.866
    13   6 C        2.924     0.062    26.620     8.461
    14   7 N        2.752    -0.077    22.740     7.083
    15   6 C        2.924     0.065    26.537     8.448
    16   6 C        2.923    -0.048    29.193     8.860
    17   6 C        2.919    -0.030    28.740     8.791
    18   6 C        2.919    -0.039    28.965     8.826
    19   6 C        2.920    -0.029    28.730     8.790
    20   6 C        2.922    -0.048    29.190     8.860
    21   6 C        2.924     0.065    26.544     8.449
    22   6 C        2.922    -0.048    29.192     8.860
    23   6 C        2.920    -0.029    28.732     8.790
    24   6 C        2.919    -0.039    28.958     8.825
    25   6 C        2.920    -0.029    28.732     8.790
    26   6 C        2.922    -0.048    29.192     8.860
    27   6 C        2.921    -0.050    29.238     8.867
    28   6 C        2.925    -0.039    28.961     8.825
    29   6 C        2.923    -0.034    28.839     8.807
    30   6 C        2.925    -0.021    28.542     8.761
    31   1 H        0.926     0.040     2.449     2.447
    32   1 H        0.926     0.038     2.479     2.462
    33   1 H        0.924     0.041     2.432     2.439
    34   1 H        0.924     0.042     2.418     2.432
    35   1 H        0.924     0.034     2.528     2.486
    36   1 H        0.924     0.037     2.486     2.466
    37   1 H        0.924     0.039     2.458     2.452
    38   1 H        0.924     0.035     2.522     2.484
    39   1 H        0.926     0.031     2.571     2.508
    40   1 H        0.926     0.031     2.566     2.505
    41   1 H        0.926     0.029     2.606     2.524
    42   1 H        0.926     0.030     2.581     2.512
    43   1 H        0.926     0.030     2.590     2.517
    44   1 H        0.926     0.031     2.569     2.506
    45   1 H        0.926     0.032     2.564     2.504
    46   1 H        0.926     0.031     2.578     2.511
    47   1 H        0.926     0.031     2.570     2.507
    48   1 H        0.926     0.030     2.585     2.514
    49   1 H        0.926     0.031     2.568     2.506
    50   1 H        0.926     0.031     2.569     2.507
    51   1 H        0.926     0.031     2.569     2.506
    52   1 H        0.926     0.029     2.594     2.519
    53   1 H        0.926     0.040     2.446     2.446
    54   1 H        0.926     0.040     2.447     2.446

molecular dipole:
                 x           y           z       tot (Debye)
 q only:       -0.719       1.188       0.569
   full:       -0.963       1.546       0.717       4.976

 projected vibrational frequencies (cm⁻¹)
eigval :       -0.00    -0.00    -0.00     0.00     0.00     0.00
eigval :        7.56    10.81    27.40    34.67    40.09    49.27
eigval :       60.75    61.28    79.77    80.60   105.48   111.79
eigval :      137.01   166.69   197.45   219.18   230.06   258.47
eigval :      268.71   306.53   319.32   330.19   350.16   362.45
eigval :      368.28   377.84   381.21   389.44   399.44   405.95
eigval :      433.82   469.06   488.55   496.55   517.15   534.29
eigval :      551.25   567.87   584.59   589.59   594.40   613.96
eigval :      617.35   658.90   661.69   676.16   678.90   685.03
eigval :      704.98   756.51   758.90   782.45   804.35   814.61
eigval :      833.17   862.17   870.53   873.98   875.02   876.97
eigval :      890.97   892.78   909.94   914.69   915.95   922.15
eigval :      926.89   927.31   927.49   928.42   928.92   930.22
eigval :      936.49   985.34  1003.77  1006.33  1011.08  1026.28
eigval :     1031.17  1083.60  1084.45  1105.85  1122.05  1124.47
eigval :     1128.26  1137.66  1152.58  1157.44  1180.77  1180.85
eigval :     1187.12  1190.27  1196.03  1198.63  1211.63  1214.13
eigval :     1236.03  1243.13  1261.48  1271.97  1275.25  1280.13
eigval :     1282.96  1312.62  1319.08  1322.00  1325.71  1327.41
eigval :     1330.77  1335.86  1345.01  1348.22  1405.09  1417.74
eigval :     1437.13  1443.69  1472.82  1476.25  1477.59  1478.50
eigval :     1483.83  1488.98  1494.22  1563.82  1569.20  1578.16
eigval :     1581.24  1595.59  1596.77  1599.34  1607.59  2374.38
eigval :     2950.82  2960.49  2972.14  2984.64  2992.50  2993.96
eigval :     3070.01  3074.39  3075.32  3075.72  3076.33  3076.98
eigval :     3077.88  3080.57  3085.16  3085.83  3086.66  3088.45
eigval :     3088.95  3089.40  3091.13  3091.93  3097.19  3097.69

   temp. (K)  partition function   enthalpy   heat capacity  entropy
                                   cal/mol     cal/K/mol   cal/K/mol   J/K/mol
 298.15  VIB  0.929E+12            14512.391     90.654     91.819
         ROT  0.255E+08              888.752      2.981     36.869
         INT  0.237E+20            15401.143     93.635    128.688
         TR   0.741E+28             1481.254      4.968     43.743
         TOT                       16882.3973    98.6032   172.4315   721.4532

       T/K    H(0)-H(T)+PV         H(T)/Eh          T*S/Eh         G(T)/Eh
   ------------------------------------------------------------------------
    298.15    0.269038E-01    0.458312E+00    0.819277E-01    0.376384E+00
   ------------------------------------------------------------------------

         :::::::::::::::::::::::::::::::::::::::::::::::::::::
         ::                  THERMODYNAMIC                  ::
         :::::::::::::::::::::::::::::::::::::::::::::::::::::
         :: total free energy         -77.625901153086 Eh   ::
         ::.................................................::
         :: total energy              -78.002285458473 Eh   ::
         :: zero point energy           0.431408242310 Eh   ::
         :: G(RRHO) w/o ZPVE           -0.055023936923 Eh   ::
         :: G(RRHO) contrib.            0.376384305387 Eh   ::
         :::::::::::::::::::::::::::::::::::::::::::::::::::::

           -------------------------------------------------
          | TOTAL ENERGY              -78.002285458473 Eh   |
          | TOTAL ENTHALPY            -77.543973403547 Eh   |
          | TOTAL FREE ENERGY         -77.625901153086 Eh   |
          | GRADIENT NORM               0.000057352099 Eh/α |
          | HOMO-LUMO GAP               2.188978853474 eV   |
           -------------------------------------------------

 * finished run on 2025/09/04 at 14:01:10.852
