   * xtb version 6.7.1 (edcfbbe) compiled by 'albert@albert-system' on 2024-07-22

   ID    Z sym.   atoms
    1    7 N      1, 14
    2    6 C      2-13, 15-30
    3    1 H      31-54

          program call               : xtb data2507/gas/TPA-L-BN/TPA-L-BN_gas_S0_finalOpt.xtbopt.xyz --gfn 2 --spinpol --tblite --uhf 2 --ohess vtight --parallel 40 --molden --ceasefiles --namespace data2507/gas/TPA-L-BN/TPA-L-BN_gas_T1_preOpt
 * total energy  :   -77.8942531 Eh     change        0.1559738E-07 Eh
 * total energy  :   -77.8985275 Eh     change       -0.4274400E-02 Eh
 * total energy  :   -77.8993409 Eh     change       -0.8133856E-03 Eh
 * total energy  :   -77.8995703 Eh     change       -0.2294211E-03 Eh
 * total energy  :   -77.8998415 Eh     change       -0.2712659E-03 Eh
 * total energy  :   -77.9000796 Eh     change       -0.2380350E-03 Eh
 * total energy  :   -77.9003570 Eh     change       -0.2774557E-03 Eh
 * total energy  :   -77.9006285 Eh     change       -0.2714700E-03 Eh
 * total energy  :   -77.9009938 Eh     change       -0.3652714E-03 Eh
 * total energy  :   -77.9015104 Eh     change       -0.5166293E-03 Eh
 * total energy  :   -77.9185197 Eh     change       -0.1753641E-05 Eh
 * total energy  :   -77.9185215 Eh     change       -0.1751952E-05 Eh
 * total energy  :   -77.9185227 Eh     change       -0.1274952E-05 Eh
 * total energy  :   -77.9185237 Eh     change       -0.9122745E-06 Eh
 * total energy  :   -77.9185234 Eh     change        0.2929283E-06 Eh
 * total energy  :   -77.9185243 Eh     change       -0.9091274E-06 Eh
 * total energy  :   -77.9185246 Eh     change       -0.3792133E-06 Eh
 * total energy  :   -77.9185251 Eh     change       -0.4268190E-06 Eh
 * total energy  :   -77.9185251 Eh     change       -0.6764523E-08 Eh
   *** GEOMETRY OPTIMIZATION CONVERGED AFTER 122 ITERATIONS ***

 final structure:
================
54
 xtb: 6.7.1 (edcfbbe)
N            1.95960613158324       -4.69470567618883        0.22194929435268
C            2.31953096323054       -3.60179018676419        0.30007054319678
C            2.72023333807972       -2.27116043898807        0.38949841418071
C            3.68666272023541       -1.73510674604502       -0.50144048683309
C            4.00018565642544       -0.42249956973931       -0.47482741969477
C            3.30025446146614        0.55682021293220        0.40051401566422
C            4.26890876255508        1.61512123755563        0.95357141633024
C            4.47246733640407        2.64637419343494       -0.16353219856944
C            3.30753678550132        2.46319878391001       -1.14836468772072
C            2.32238753357772        1.45777928812724       -0.52060720040408
C            1.32369193319559        2.14634435277500        0.35143211770542
C            0.02243429157136        1.78814465677940        0.41001123513741
C           -0.49745983659078        0.76093901339279       -0.41413654318268
N           -1.80183295120431        0.31220750377102       -0.28266922861505
C           -2.09071119623677       -1.03695957718094       -0.52547768801832
C           -1.17115109662529       -2.02572807000877       -0.17365473005634
C           -1.44333097351693       -3.35530410840689       -0.42747949034070
C           -2.63914210293132       -3.71972293171480       -1.02627468542721
C           -3.55911099263080       -2.74275817323949       -1.37255541807969
C           -3.29117989650385       -1.40940804519015       -1.13077245587185
C           -2.82409495461906        1.18780576718208        0.09472382827437
C           -3.84094265764596        0.76347227692718        0.95144563185744
C           -4.84755234459714        1.63431615979496        1.31857934173566
C           -4.85583289760316        2.93760634272401        0.84722680506579
C           -3.84747910140290        3.36427708007416       -0.00235044417397
C           -2.83942322032089        2.50004036654867       -0.38086131565677
C            0.34665541226136        0.22894545792301       -1.41976242385633
C            1.64080775318576        0.59356164149026       -1.52520375274735
C            2.49625687117077       -0.11933422625375        1.45154661924184
C            2.19029624966199       -1.43213328104426        1.40636613809836
H            4.18000638201632       -2.40857305183626       -1.18834770535603
H            4.75835854446813       -0.03165345121494       -1.13621989953947
H            5.20749454341614        1.15485563643677        1.26350706933132
H            3.82232576139011        2.08288889262178        1.83130585706886
H            4.49027496441171        3.65567859273188        0.24687815770761
H            5.42529999963720        2.48540136291905       -0.66797351549543
H            3.66633724109544        2.07165642558601       -2.10066897479874
H            2.79587347551598        3.40380539300436       -1.35286382440373
H            1.69355715490845        2.94118426046040        0.98108251547783
H           -0.64278386448821        2.28598092746192        1.10150271034422
H           -0.24537298073345       -1.73992949965816        0.30257400209399
H           -0.71811932646576       -4.10677290421839       -0.15353272016185
H           -2.85204751856831       -4.75925283612425       -1.22259295215714
H           -4.49050401350132       -3.01971373474788       -1.84434277852827
H           -4.00339935439310       -0.64847219671186       -1.41527745436557
H           -3.82926808819323       -0.24884564656406        1.32791725044923
H           -5.62776009299994        1.29545931736782        1.98405310836219
H           -5.64339423608345        3.61556543459664        1.13879017707917
H           -3.85120280506085        4.37597864928042       -0.38053682063669
H           -2.06170923915730        2.82663432679933       -1.05571482405266
H           -0.08606375317033       -0.44465380013775       -2.14613992774016
H            2.24091244899456        0.22562363633678       -2.34383798759626
H            2.10888286678582        0.50072233995910        2.24598880696673
H            1.55848105485060       -1.87804921657633        2.16251732684861

 projected vibrational frequencies (cm⁻¹)
eigval :       -0.00    -0.00    -0.00     0.00     0.00     0.00
eigval :       20.01    30.84    31.88    40.88    45.26    61.81
eigval :       64.87    76.11    84.76    89.65   138.09   146.80
eigval :      173.80   192.90   203.92   215.81   237.84   243.91
eigval :      273.77   286.86   312.92   336.16   344.19   377.02
eigval :      378.91   385.00   391.11   410.19   418.61   426.11
eigval :      443.76   474.36   493.39   500.33   529.91   541.32
eigval :      560.63   577.42   586.58   589.25   593.76   599.41
eigval :      620.71   627.26   659.80   663.74   681.01   697.06
eigval :      736.70   756.57   759.98   762.17   772.74   776.42
eigval :      787.14   795.32   843.72   873.74   875.72   879.14
eigval :      892.09   895.08   898.63   904.76   905.73   909.18
eigval :      910.49   914.35   927.26   929.05   929.34   936.50
eigval :      939.24   953.15   963.08   991.53   999.40  1003.57
eigval :     1020.87  1080.71  1081.64  1082.80  1093.00  1109.05
eigval :     1120.90  1123.41  1125.11  1138.86  1148.31  1180.15
eigval :     1180.39  1181.68  1187.26  1193.16  1195.44  1201.27
eigval :     1215.39  1225.19  1232.03  1258.92  1262.28  1273.34
eigval :     1279.13  1281.75  1288.81  1305.54  1311.21  1315.83
eigval :     1320.94  1325.41  1327.31  1330.01  1353.95  1366.60
eigval :     1403.81  1425.47  1433.99  1445.78  1465.99  1469.68
eigval :     1483.69  1490.58  1506.11  1512.55  1523.54  1571.35
eigval :     1576.21  1587.24  1591.53  1593.29  1602.90  2294.59
eigval :     2973.21  2983.03  2996.89  2998.34  3002.26  3009.29
eigval :     3066.47  3067.94  3069.59  3071.71  3076.10  3077.46
eigval :     3078.98  3082.87  3085.59  3085.83  3087.26  3087.92
eigval :     3089.58  3090.94  3091.04  3096.70  3099.09  3103.42

   temp. (K)  partition function   enthalpy   heat capacity  entropy
                                   cal/mol     cal/K/mol   cal/K/mol   J/K/mol
 298.15  VIB  0.253E+11            14262.011     92.205     87.603
         ROT  0.162E+08              888.752      2.981     35.969
         INT  0.410E+18            15150.763     95.186    123.572
         TR   0.741E+28             1481.254      4.968     43.743
         TOT                       16632.0170   100.1541   167.3157   700.0487

       T/K    H(0)-H(T)+PV         H(T)/Eh          T*S/Eh         G(T)/Eh
   ------------------------------------------------------------------------
    298.15    0.265048E-01    0.455869E+00    0.794971E-01    0.376372E+00
   ------------------------------------------------------------------------

         :::::::::::::::::::::::::::::::::::::::::::::::::::::
         ::                  THERMODYNAMIC                  ::
         :::::::::::::::::::::::::::::::::::::::::::::::::::::
         :: total free energy         -77.542153538295 Eh   ::
         ::.................................................::
         :: total energy              -77.918525083002 Eh   ::
         :: zero point energy           0.429363803422 Eh   ::
         :: G(RRHO) w/o ZPVE           -0.052992258716 Eh   ::
         :: G(RRHO) contrib.            0.376371544706 Eh   ::
         :::::::::::::::::::::::::::::::::::::::::::::::::::::

           -------------------------------------------------
          | TOTAL ENERGY              -77.918525083002 Eh   |
          | TOTAL ENTHALPY            -77.462656473334 Eh   |
          | TOTAL FREE ENERGY         -77.542153538295 Eh   |
          | GRADIENT NORM               0.000106215186 Eh/α |
           -------------------------------------------------

 * finished run on 2025/09/04 at 14:05:47.092
