   * xtb version 6.7.1 (edcfbbe) compiled by 'albert@albert-system' on 2024-07-22

   ID    Z sym.   atoms
    1    7 N      1, 14
    2    6 C      2-13, 15-30
    3    1 H      31-54

          program call               : xtb data2507/gas/TPA-L-BN/TPA-L-BN_gas_T1_crest.xyz --gfn 2 --spinpol --tblite --uhf 2 --ohess vtight --parallel 40 --molden --ceasefiles --namespace data2507/gas/TPA-L-BN/TPA-L-BN_gas_T1_finalOpt
 * total energy  :   -77.9184919 Eh     change       -0.7973654E-08 Eh
 * total energy  :   -77.9185064 Eh     change       -0.1442279E-04 Eh
 * total energy  :   -77.9185153 Eh     change       -0.8929188E-05 Eh
 * total energy  :   -77.9185177 Eh     change       -0.2375135E-05 Eh
 * total energy  :   -77.9185169 Eh     change        0.7155392E-06 Eh
 * total energy  :   -77.9185184 Eh     change       -0.1488572E-05 Eh
 * total energy  :   -77.9185189 Eh     change       -0.4378052E-06 Eh
 * total energy  :   -77.9185198 Eh     change       -0.9118968E-06 Eh
 * total energy  :   -77.9185207 Eh     change       -0.9079293E-06 Eh
 * total energy  :   -77.9185213 Eh     change       -0.6447383E-06 Eh
 * total energy  :   -77.9185237 Eh     change       -0.3971979E-06 Eh
 * total energy  :   -77.9185240 Eh     change       -0.3297377E-06 Eh
 * total energy  :   -77.9185243 Eh     change       -0.2823036E-06 Eh
 * total energy  :   -77.9185246 Eh     change       -0.2675148E-06 Eh
 * total energy  :   -77.9185248 Eh     change       -0.1852575E-06 Eh
 * total energy  :   -77.9185249 Eh     change       -0.1077717E-06 Eh
 * total energy  :   -77.9185248 Eh     change        0.4264268E-07 Eh
 * total energy  :   -77.9185249 Eh     change       -0.5360452E-07 Eh
 * total energy  :   -77.9185249 Eh     change       -0.5419248E-07 Eh
   *** GEOMETRY OPTIMIZATION CONVERGED AFTER 24 ITERATIONS ***

 final structure:
================
54
 xtb: 6.7.1 (edcfbbe)
N            2.37973668069703       -4.40648205241277        0.64416582648300
C            2.62767181109870       -3.28024883787321        0.63106126216038
C            2.89133351219594       -1.91302546295929        0.61040674705844
C            3.79514380755576       -1.35472135180467       -0.33113823138469
C            3.97334814459605       -0.01919010530380       -0.41209846445274
C            3.18032036126076        0.95106045840383        0.39102175810861
C            4.03876415899629        2.14247469009339        0.84795655007066
C            4.11761391300335        3.10930242749877       -0.34109239609300
C            2.98946854293297        2.71381758478203       -1.30567614177320
C            2.11194582843530        1.67121936644700       -0.58678598123287
C            1.05408295765877        2.32675797428441        0.23956890669172
C           -0.20461098321592        1.84738870017366        0.34390294377267
C           -0.62326924872070        0.70942953309525       -0.38723456683681
N           -1.87558344001862        0.14584396460997       -0.20239067549178
C           -2.02935495146141       -1.24070602868239       -0.33000380210366
C           -1.01308615042145       -2.10072251456378        0.08794106828428
C           -1.15210438284220       -3.46716703353448       -0.05260102628101
C           -2.30913637613380       -3.99695121396463       -0.60209953852576
C           -3.32463758715625       -3.14826602792146       -1.01345556593828
C           -3.19022111967223       -1.77947523985747       -0.88534988284830
C           -2.97853741256928        0.94430335760837        0.11409206590728
C           -3.94425621064079        0.49459042684558        1.01583038401266
C           -5.03146649548968        1.28884158588370        1.32170233232169
C           -5.17210196176645        2.54057541095268        0.74359378474690
C           -4.21483460623401        2.99250381398368       -0.15084354221752
C           -3.12687559635631        2.20400899945806       -0.46857550459348
C            0.26473851696919        0.18301944512808       -1.35741628349946
C            1.51541379971238        0.66435868611257       -1.50912320898530
C            2.45308020663411        0.28296758250691        1.50147200759014
C            2.28231973668276       -1.05345256633686        1.56386096498206
H            4.35237716529093       -2.02748952079359       -0.96805622716588
H            4.68606576907019        0.39239026250932       -1.11046520221116
H            5.02482901742738        1.80539948743782        1.16873024652237
H            3.55817313578778        2.62158652194696        1.70125995390705
H            4.00576792710999        4.13913326215295       -0.00277063700104
H            5.08553090080104        3.03497949623747       -0.83687215950268
H            3.39775687127223        2.27569249331545       -2.21690254320287
H            2.38323395416613        3.57162037367997       -1.59725839438033
H            1.34605275657292        3.20312228235730        0.79787746666277
H           -0.91295960182048        2.33183178017034        1.00124098190196
H           -0.11760619958731       -1.68595525477167        0.52569578857911
H           -0.35337529198160       -4.11758657237046        0.27094277790536
H           -2.41794076596738       -5.06514569395792       -0.70981528290743
H           -4.22658881774155       -3.55447034879191       -1.44734747199305
H           -3.97695396758545       -1.11934589396808       -1.22075902921643
H           -3.82983022087167       -0.47631719770725        1.47506293199602
H           -5.77118767073855        0.93123657251480        2.02265384129032
H           -6.02249134882493        3.15889694030802        0.98730816816754
H           -4.32128106891659        3.96346786476698       -0.61179042661456
H           -2.38838827703443        2.54846307472948       -1.17774308161673
H           -0.10214565230398       -0.58752416925206       -2.02093649147915
H            2.14526440138323        0.29207060995393       -2.30307424696817
H            2.00694956520554        0.92204988521629        2.24861198917051
H            1.70202185605640       -1.49920328683717        2.36032367592334

 projected vibrational frequencies (cm⁻¹)
eigval :       -0.00    -0.00    -0.00    -0.00     0.00     0.00
eigval :       20.51    30.36    32.29    40.35    44.15    59.70
eigval :       65.04    75.21    84.83    89.77   137.49   146.91
eigval :      174.37   192.42   203.98   216.18   237.95   244.21
eigval :      273.85   286.76   312.97   336.15   344.03   377.09
eigval :      378.95   384.93   391.12   409.92   418.38   425.99
eigval :      443.91   474.43   493.40   500.42   529.89   541.41
eigval :      560.74   577.43   586.65   589.27   593.77   599.37
eigval :      620.58   627.32   659.81   663.71   682.15   697.13
eigval :      737.01   756.56   759.85   762.10   773.01   776.48
eigval :      787.67   794.18   843.52   873.81   875.80   879.27
eigval :      892.23   895.20   898.78   904.69   905.81   909.08
eigval :      910.53   914.48   927.34   929.16   929.39   936.53
eigval :      939.57   953.74   963.36   991.43   999.35  1003.48
eigval :     1021.10  1081.15  1081.72  1082.80  1093.28  1109.30
eigval :     1120.89  1123.43  1125.12  1138.99  1148.52  1180.26
eigval :     1180.50  1181.51  1187.30  1193.28  1195.37  1201.41
eigval :     1217.55  1225.30  1230.65  1258.83  1262.20  1273.35
eigval :     1279.22  1281.84  1288.90  1305.94  1311.29  1316.05
eigval :     1320.97  1325.65  1327.41  1330.12  1354.04  1366.58
eigval :     1403.60  1425.46  1434.05  1445.71  1466.14  1469.78
eigval :     1483.93  1490.98  1506.15  1512.83  1523.68  1571.37
eigval :     1576.21  1587.27  1591.60  1593.28  1603.08  2294.68
eigval :     2973.19  2982.90  2996.76  2998.37  3002.24  3009.28
eigval :     3066.46  3067.96  3069.53  3071.57  3076.17  3077.51
eigval :     3079.04  3083.04  3085.65  3085.96  3087.33  3088.09
eigval :     3089.58  3090.57  3090.96  3096.68  3099.07  3103.41

   temp. (K)  partition function   enthalpy   heat capacity  entropy
                                   cal/mol     cal/K/mol   cal/K/mol   J/K/mol
 298.15  VIB  0.266E+11            14266.162     92.133     87.620
         ROT  0.162E+08              888.752      2.981     35.970
         INT  0.431E+18            15154.915     95.114    123.590
         TR   0.741E+28             1481.254      4.968     43.743
         TOT                       16636.1687   100.0823   167.3332   700.1221

       T/K    H(0)-H(T)+PV         H(T)/Eh          T*S/Eh         G(T)/Eh
   ------------------------------------------------------------------------
    298.15    0.265114E-01    0.455886E+00    0.795054E-01    0.376380E+00
   ------------------------------------------------------------------------

         :::::::::::::::::::::::::::::::::::::::::::::::::::::
         ::                  THERMODYNAMIC                  ::
         :::::::::::::::::::::::::::::::::::::::::::::::::::::
         :: total free energy         -77.542144568869 Eh   ::
         ::.................................................::
         :: total energy              -77.918524917544 Eh   ::
         :: zero point energy           0.429374329224 Eh   ::
         :: G(RRHO) w/o ZPVE           -0.052993980549 Eh   ::
         :: G(RRHO) contrib.            0.376380348675 Eh   ::
         :::::::::::::::::::::::::::::::::::::::::::::::::::::

           -------------------------------------------------
          | TOTAL ENERGY              -77.918524917544 Eh   |
          | TOTAL ENTHALPY            -77.462639166025 Eh   |
          | TOTAL FREE ENERGY         -77.542144568869 Eh   |
          | GRADIENT NORM               0.000090808695 Eh/α |
           -------------------------------------------------

 * finished run on 2025/09/04 at 14:08:01.085
