   * xtb version 6.7.1 (edcfbbe) compiled by 'albert@albert-system' on 2024-07-22

   ID    Z sym.   atoms
    1    7 N      1, 14
    2    6 C      2-13, 15-30
    3    1 H      31-54

          program call               : xtb data2507/gas/TPA-L-BN/TPA-L-BN_gas_S0_crest.xyz --gfn 2 --ohess vtight --parallel 40 --molden --ceasefiles --namespace data2507/gas/TPA-L-BN/TPA-L-BN_gas_S0_finalOpt
          :  Hamiltonian                  GFN2-xTB          :
 * total energy  :   -78.0057211 Eh     change       -0.4774563E-09 Eh
 * total energy  :   -78.0057173 Eh     change        0.3753627E-05 Eh
 * total energy  :   -78.0057241 Eh     change       -0.6730917E-05 Eh
 * total energy  :   -78.0057250 Eh     change       -0.9069940E-06 Eh
 * total energy  :   -78.0057276 Eh     change       -0.2651488E-05 Eh
 * total energy  :   -78.0057307 Eh     change       -0.3041538E-05 Eh
 * total energy  :   -78.0057320 Eh     change       -0.1364997E-05 Eh
 * total energy  :   -78.0057325 Eh     change       -0.4873192E-06 Eh
 * total energy  :   -78.0057330 Eh     change       -0.4385555E-06 Eh
 * total energy  :   -78.0057336 Eh     change       -0.6491102E-06 Eh
 * total energy  :   -78.0057360 Eh     change       -0.5369864E-06 Eh
 * total energy  :   -78.0057365 Eh     change       -0.4968225E-06 Eh
 * total energy  :   -78.0057369 Eh     change       -0.4628408E-06 Eh
 * total energy  :   -78.0057374 Eh     change       -0.4451668E-06 Eh
 * total energy  :   -78.0057378 Eh     change       -0.4525342E-06 Eh
 * total energy  :   -78.0057383 Eh     change       -0.4243017E-06 Eh
 * total energy  :   -78.0057387 Eh     change       -0.4417597E-06 Eh
 * total energy  :   -78.0057391 Eh     change       -0.4524685E-06 Eh
 * total energy  :   -78.0057392 Eh     change       -0.6072696E-08 Eh
   *** GEOMETRY OPTIMIZATION CONVERGED AFTER 22 ITERATIONS ***

 final structure:
================
54
 xtb: 6.7.1 (edcfbbe)
N            0.82398172354994       -4.06636452296853        1.77652728624362
C            1.44363215776870       -3.14055881774626        1.50375249170727
C            2.22649305027842       -2.01362990829374        1.16617674467245
C            3.07950025204086       -2.06739213886060        0.06261228972987
C            3.88095170366626       -0.98587944930817       -0.23353402571340
C            3.85142062934836        0.16628510953022        0.54798959047085
C            4.77935805227297        1.30472286868928        0.23995089984435
C            4.50975070136880        1.96397354700429       -1.11810906962580
C            3.28038977119237        2.87704195233976       -1.10801717113712
C            1.98554596009975        2.15441431291437       -0.86476198488800
C            1.19905108744841        2.44674016839788        0.24164408182999
C           -0.01591237696624        1.82379054865967        0.44255145797193
C           -0.49387791494219        0.89296708623161       -0.47920433808761
N           -1.75072626174488        0.30886119494423       -0.30950979827832
C           -1.98825105493975       -1.00744725794274       -0.72472877053550
C           -1.00673401410866       -1.98408529994283       -0.56977821102062
C           -1.24542371521282       -3.28478435167825       -0.96670691423675
C           -2.46508250524080       -3.63281098528203       -1.52345261817818
C           -3.44370688696638       -2.66561209196406       -1.68435098641175
C           -3.21166949778557       -1.36139495282152       -1.29272238982741
C           -2.79702523036862        1.05253625769014        0.25160790071987
C           -3.70254231186188        0.44670024886294        1.12224743894901
C           -4.74014494054222        1.17805437766435        1.66662972506483
C           -4.88857329129749        2.52113585420114        1.36113017231451
C           -3.98973576538142        3.12857274391444        0.49967016424868
C           -2.95366330362958        2.40374869202938       -0.05625880098692
C            0.30090561651879        0.58169531278604       -1.58301757957853
C            1.51800420286875        1.20407389117660       -1.76543688342178
C            2.98402073152219        0.21445823101949        1.63320776929650
C            2.17364978341650       -0.85818272330336        1.94510739284880
H            3.11409680531266       -2.96191078589499       -0.54213963852073
H            4.55564608813624       -1.04201717936899       -1.07560068770733
H            5.80256766177128        0.91702598245036        0.23502302036595
H            4.71235388877048        2.05940614696553        1.02581622340687
H            5.37992281858143        2.56616608009277       -1.39035586173764
H            4.38735669271046        1.19331058538088       -1.88016844134846
H            3.22399102524193        3.37986360645907       -2.07845916882684
H            3.41446107864924        3.64674976600006       -0.34466000093510
H            1.53888521568443        3.18020189573137        0.95961921063504
H           -0.61101780590078        2.06511339690159        1.31112126034695
H           -0.06010820982441       -1.71296139263271       -0.12737642985047
H           -0.48051414240359       -4.03229667244330       -0.81997631252116
H           -2.65242364238285       -4.65124621754678       -1.82768468596382
H           -4.39562439475522       -2.92677650306747       -2.12328531016679
H           -3.97533914014246       -0.60848792767340       -1.42357006664119
H           -3.58352488629706       -0.59861372802032        1.36709251887401
H           -5.43346012606461        0.69705641554369        2.34088970586249
H           -5.69923404716590        3.09015622515147        1.79044302132708
H           -4.10148194446349        4.17369416867307        0.25021965328493
H           -2.26038342104339        2.87696768804851       -0.73638326774626
H           -0.05411198000767       -0.13580380211694       -2.30813375745063
H            2.10378386473853        0.96402393772207       -2.64133145385037
H            2.94940725910416        1.10038226371115        2.24965548745629
H            1.50596997167941       -0.81571759901094        2.79311339072557

          :  Hamiltonian                  GFN2-xTB          :
         :: gradient norm              0.000071888255 Eh/a0 ::
         :: HOMO-LUMO gap              2.111038247745 eV    ::
         :: SCC energy               -79.487942379515 Eh    ::
         :: -> dispersion             -0.072406388252 Eh    ::
         :: repulsion energy           1.482203223744 Eh    ::

    * Orbital Energies and Occupations

         #    Occupation            Energy/Eh            Energy/eV
      -------------------------------------------------------------
         1        2.0000           -0.6643174             -18.0770
       ...           ...                  ...                  ...
        61        2.0000           -0.4279773             -11.6459
        62        2.0000           -0.4221360             -11.4869
        63        2.0000           -0.4203768             -11.4390
        64        2.0000           -0.4198271             -11.4241
        65        2.0000           -0.4190183             -11.4021
        66        2.0000           -0.4156549             -11.3105
        67        2.0000           -0.4090823             -11.1317
        68        2.0000           -0.4052981             -11.0287
        69        2.0000           -0.4036788             -10.9847
        70        2.0000           -0.4014870             -10.9250
        71        2.0000           -0.3992175             -10.8633
        72        2.0000           -0.3957706             -10.7695
        73        2.0000           -0.3452413              -9.3945 (HOMO)
        74                         -0.2676621              -7.2835 (LUMO)
        75                         -0.2390902              -6.5060
        76                         -0.2281585              -6.2085
        77                         -0.2255040              -6.1363
        78                         -0.2241595              -6.0997
        79                         -0.2193096              -5.9677
        80                         -0.2164168              -5.8890
        81                         -0.2016246              -5.4865
        82                         -0.1908603              -5.1936
        83                         -0.1690843              -4.6010
        84                         -0.0978212              -2.6619
       ...                                ...                  ...
       144                          1.1744177              31.9575
      -------------------------------------------------------------
                  HL-Gap            0.0775792 Eh            2.1110 eV

     #   Z          covCN         q      C6AA      α(0)
     1   7 N        0.911    -0.240    26.275     7.414
     2   6 C        1.912     0.113    28.317     8.594
     3   6 C        2.975     0.014    27.693     8.632
     4   6 C        2.925    -0.022    28.552     8.763
     5   6 C        2.925    -0.034    28.837     8.806
     6   6 C        2.968     0.025    27.447     8.593
     7   6 C        3.807    -0.063    21.695     6.630
     8   6 C        3.801    -0.051    21.486     6.599
     9   6 C        3.807    -0.061    21.671     6.627
    10   6 C        2.967     0.003    27.958     8.673
    11   6 C        2.925    -0.039    28.959     8.825
    12   6 C        2.922    -0.051    29.273     8.873
    13   6 C        2.923     0.062    26.615     8.460
    14   7 N        2.752    -0.077    22.738     7.082
    15   6 C        2.924     0.064    26.558     8.451
    16   6 C        2.923    -0.045    29.126     8.850
    17   6 C        2.919    -0.027    28.672     8.781
    18   6 C        2.919    -0.037    28.918     8.818
    19   6 C        2.920    -0.029    28.735     8.791
    20   6 C        2.922    -0.048    29.198     8.861
    21   6 C        2.925     0.066    26.531     8.447
    22   6 C        2.922    -0.047    29.162     8.856
    23   6 C        2.920    -0.029    28.729     8.790
    24   6 C        2.919    -0.039    28.958     8.825
    25   6 C        2.919    -0.030    28.743     8.792
    26   6 C        2.922    -0.047    29.179     8.858
    27   6 C        2.921    -0.051    29.265     8.871
    28   6 C        2.925    -0.038    28.948     8.823
    29   6 C        2.924    -0.032    28.809     8.802
    30   6 C        2.924    -0.021    28.534     8.760
    31   1 H        0.926     0.039     2.456     2.451
    32   1 H        0.926     0.037     2.487     2.466
    33   1 H        0.924     0.043     2.407     2.426
    34   1 H        0.924     0.041     2.430     2.438
    35   1 H        0.924     0.033     2.538     2.491
    36   1 H        0.924     0.038     2.470     2.458
    37   1 H        0.924     0.039     2.466     2.456
    38   1 H        0.924     0.036     2.503     2.474
    39   1 H        0.926     0.027     2.629     2.536
    40   1 H        0.926     0.030     2.581     2.512
    41   1 H        0.926     0.024     2.676     2.558
    42   1 H        0.926     0.038     2.480     2.463
    43   1 H        0.926     0.032     2.557     2.501
    44   1 H        0.926     0.031     2.572     2.508
    45   1 H        0.926     0.030     2.587     2.515
    46   1 H        0.926     0.034     2.534     2.489
    47   1 H        0.926     0.032     2.558     2.501
    48   1 H        0.926     0.030     2.590     2.517
    49   1 H        0.926     0.030     2.580     2.512
    50   1 H        0.926     0.030     2.580     2.512
    51   1 H        0.926     0.031     2.576     2.510
    52   1 H        0.926     0.028     2.615     2.529
    53   1 H        0.926     0.038     2.478     2.462
    54   1 H        0.926     0.039     2.456     2.451

molecular dipole:
                 x           y           z       tot (Debye)
 q only:        0.861       1.148      -0.414
   full:        1.123       1.519      -0.519       4.978

 projected vibrational frequencies (cm⁻¹)
eigval :       -0.00    -0.00    -0.00     0.00     0.00     0.00
eigval :       -8.31    20.32    34.80    36.58    46.94    56.07
eigval :       60.15    63.58    74.08    82.59   103.50   120.29
eigval :      133.97   169.40   197.11   219.19   233.23   255.71
eigval :      268.33   300.06   318.40   324.32   345.62   367.12
eigval :      372.14   378.45   379.72   388.89   396.19   404.00
eigval :      432.18   467.78   487.51   494.57   515.22   534.48
eigval :      549.73   563.12   584.47   589.21   594.61   614.00
eigval :      617.22   659.26   661.49   670.10   674.33   686.24
eigval :      704.24   755.96   759.11   788.12   806.10   809.47
eigval :      841.25   866.75   871.29   873.79   876.57   880.64
eigval :      891.88   893.22   909.55   912.40   913.21   920.87
eigval :      924.28   924.92   927.26   927.70   928.85   929.52
eigval :      930.23   961.51   987.79  1006.24  1016.46  1027.10
eigval :     1046.90  1083.36  1084.88  1088.44  1121.18  1123.25
eigval :     1124.12  1146.45  1156.59  1180.42  1180.76  1187.50
eigval :     1190.82  1195.73  1198.18  1199.78  1211.59  1218.65
eigval :     1227.16  1242.34  1261.73  1272.57  1276.52  1280.80
eigval :     1283.38  1316.42  1319.15  1321.20  1327.45  1328.08
eigval :     1333.49  1339.80  1348.16  1349.64  1406.70  1419.36
eigval :     1437.68  1443.54  1472.48  1474.42  1476.77  1478.29
eigval :     1486.06  1488.52  1496.21  1564.44  1569.83  1578.73
eigval :     1582.03  1595.34  1597.85  1599.51  1609.82  2372.39
eigval :     2946.33  2950.24  2967.29  2978.99  2986.30  2999.81
eigval :     3065.17  3072.04  3074.59  3074.82  3076.86  3077.18
eigval :     3082.19  3084.06  3085.30  3086.77  3087.94  3088.97
eigval :     3089.58  3090.14  3093.67  3095.17  3096.86  3102.29

   temp. (K)  partition function   enthalpy   heat capacity  entropy
                                   cal/mol     cal/K/mol   cal/K/mol   J/K/mol
 298.15  VIB  0.276E+12            14483.150     91.151     91.086
         ROT  0.162E+08              888.752      2.981     35.969
         INT  0.446E+19            15371.903     94.131    127.055
         TR   0.741E+28             1481.254      4.968     43.743
         TOT                       16853.1567    99.0996   170.7989   714.6225

       T/K    H(0)-H(T)+PV         H(T)/Eh          T*S/Eh         G(T)/Eh
   ------------------------------------------------------------------------
    298.15    0.268572E-01    0.458319E+00    0.811521E-01    0.377167E+00
   ------------------------------------------------------------------------

         :::::::::::::::::::::::::::::::::::::::::::::::::::::
         ::                  THERMODYNAMIC                  ::
         :::::::::::::::::::::::::::::::::::::::::::::::::::::
         :: total free energy         -77.628572082335 Eh   ::
         ::.................................................::
         :: total energy              -78.005739155771 Eh   ::
         :: zero point energy           0.431461916092 Eh   ::
         :: G(RRHO) w/o ZPVE           -0.054294842656 Eh   ::
         :: G(RRHO) contrib.            0.377167073436 Eh   ::
         :::::::::::::::::::::::::::::::::::::::::::::::::::::

           -------------------------------------------------
          | TOTAL ENERGY              -78.005739155771 Eh   |
          | TOTAL ENTHALPY            -77.547420024898 Eh   |
          | TOTAL FREE ENERGY         -77.628572082335 Eh   |
          | GRADIENT NORM               0.000071905796 Eh/α |
          | HOMO-LUMO GAP               2.111037984313 eV   |
           -------------------------------------------------

 * finished run on 2025/09/04 at 14:05:38.450
