   * xtb version 6.7.1 (edcfbbe) compiled by 'albert@albert-system' on 2024-07-22

   ID    Z sym.   atoms
    1    6 C      1-4, 6-17, 19, 21, 22, 24, 26-39
    2    7 N      5, 18, 20, 23, 25
    3    1 H      40-60

          program call               : xtb data2507/gas/TPA-APm/TPA-APm_gas_S0_crest.xyz --gfn 2 --ohess vtight --parallel 40 --molden --ceasefiles --namespace data2507/gas/TPA-APm/TPA-APm_gas_S0_finalOpt
          :  Hamiltonian                  GFN2-xTB          :
 * total energy  :   -98.1424687 Eh     change       -0.6867879E-08 Eh
 * total energy  :   -98.1424696 Eh     change       -0.8999447E-06 Eh
 * total energy  :   -98.1424708 Eh     change       -0.1163801E-05 Eh
 * total energy  :   -98.1424719 Eh     change       -0.1079499E-05 Eh
 * total energy  :   -98.1424724 Eh     change       -0.5168653E-06 Eh
 * total energy  :   -98.1424729 Eh     change       -0.5575542E-06 Eh
 * total energy  :   -98.1424738 Eh     change       -0.8225392E-06 Eh
 * total energy  :   -98.1424746 Eh     change       -0.8452813E-06 Eh
 * total energy  :   -98.1424752 Eh     change       -0.5491831E-06 Eh
 * total energy  :   -98.1424755 Eh     change       -0.3431649E-06 Eh
 * total energy  :   -98.1424764 Eh     change       -0.1821832E-06 Eh
 * total energy  :   -98.1424766 Eh     change       -0.1579525E-06 Eh
 * total energy  :   -98.1424767 Eh     change       -0.1374801E-06 Eh
 * total energy  :   -98.1424768 Eh     change       -0.1364211E-06 Eh
 * total energy  :   -98.1424770 Eh     change       -0.1603667E-06 Eh
 * total energy  :   -98.1424772 Eh     change       -0.1689855E-06 Eh
 * total energy  :   -98.1424773 Eh     change       -0.1433703E-06 Eh
 * total energy  :   -98.1424774 Eh     change       -0.1117188E-06 Eh
 * total energy  :   -98.1424774 Eh     change       -0.1523134E-08 Eh
   *** GEOMETRY OPTIMIZATION CONVERGED AFTER 22 ITERATIONS ***

 final structure:
================
60
 xtb: 6.7.1 (edcfbbe)
C           -6.47632825853135       -4.15070594537902        0.41453868976266
C           -7.09481887233301       -3.31257702888468       -0.49861182471994
C           -6.67411784422862       -2.00474308950331       -0.64415959169188
C           -5.62616308928191       -1.51519364956523        0.13373295110948
N           -5.20569854190517       -0.18377339469553       -0.00344133269954
C           -6.16604607060214        0.81792160405019       -0.20775134905187
C           -5.91729361496027        1.86684839290318       -1.09188874733719
C           -6.86928568583393        2.84785296498670       -1.29089535551723
C           -8.08163188286478        2.79485121354857       -0.62265781433335
C           -8.33554468162097        1.75085527532410        0.25170643060314
C           -7.38675490179867        0.76928937417562        0.46358931462677
C           -3.85588517441634        0.13853615991922        0.05876161093348
C           -2.88296447737563       -0.75391274071739       -0.40546303907302
C           -1.55019108558259       -0.42520891382941       -0.34427014630767
C           -1.13065155185964        0.80545910894867        0.17326746770825
C            0.29408170585650        1.10882494211970        0.20256537204008
C            0.80100743343286        2.42339907247257        0.39438688488928
N            2.07376075992127        2.69554375280979        0.43700476948286
C            2.93427928584801        1.67308657979984        0.27822244811801
N            4.25416599350565        1.95301605744295        0.33609496359992
C            5.04096513661653        0.93100221097925        0.14816540768468
C            4.54388788653643       -0.40969054524105       -0.10687412057003
N            3.27586185193266       -0.69897702479310       -0.15951341278086
C            2.44121296392108        0.35104345082160        0.04096735662562
N            1.12960985808579        0.10097443146373        0.01509542137567
C            5.69112151918479       -1.28974748526409       -0.27362929858871
C            5.86742307740776       -2.62629653740694       -0.52950869530408
C            7.18311948626262       -3.11796157934172       -0.62198152455274
C            8.29054186955557       -2.31808326557099       -0.46720347631297
C            8.14454572799939       -0.93726562820089       -0.20300905619002
C            9.15952156157369        0.02891764684105       -0.01718805634660
C            8.83352566810954        1.34087899989327        0.23288486085268
C            7.50372746687023        1.79463581062365        0.31770870516324
C            6.49429658064545        0.88159231573614        0.14231930715422
C            6.83143486351439       -0.46817548184983       -0.11486477053141
C           -2.10353541316734        1.68991452521082        0.64557020816854
C           -3.43961137314407        1.36277197596046        0.59140629685680
C           -5.01053160526070       -2.36012881096922        1.05597705935442
C           -5.43319288347453       -3.66866003708646        1.18821913322032
H           -6.80566949454467       -5.17282041486304        0.52310609279311
H           -7.90619067233487       -3.68142323988500       -1.10853147082029
H           -7.15174478476719       -1.35428242777680       -1.36223827018655
H           -4.97725414724236        1.90253770832645       -1.62281892002746
H           -6.66605041673779        3.65431040093279       -1.97989073564319
H           -8.82414107512556        3.56153174792122       -0.78336636830840
H           -9.27670380429366        1.70382493817680        0.77930551938633
H           -7.58264568598933       -0.04024425253111        1.15140377289025
H           -3.18933356185926       -1.70095394189344       -0.82445745930379
H           -0.79723921518651       -1.10667888189663       -0.70713773597967
H            0.14052457838062        3.27396889700083        0.49456783228996
H            5.02498883743311       -3.28784697418851       -0.65736160545167
H            7.32143614807226       -4.17060004575802       -0.82354432207784
H            9.28151920907009       -2.74148836668525       -0.54699489001125
H           10.19581231490530       -0.27200693922106       -0.07345658226387
H            9.62772378170785        2.06054656447480        0.37112408381032
H            7.29081939589671        2.83351909025288        0.51530510268524
H           -1.81880937937901        2.63163324439292        1.08895236186032
H           -4.17833414769565        2.05084624617305        0.97552108660073
H           -4.20452862859210       -1.98246126481072        1.66782011706805
H           -4.94966785765633       -4.31345924277629        1.90701859816835

          :  Hamiltonian                  GFN2-xTB          :
         :: gradient norm              0.000028553370 Eh/a0 ::
         :: HOMO-LUMO gap              0.700246049810 eV    ::
         :: SCC energy               -99.910665535441 Eh    ::
         :: -> dispersion             -0.081495133607 Eh    ::
         :: repulsion energy           1.768188123034 Eh    ::

    * Orbital Energies and Occupations

         #    Occupation            Energy/Eh            Energy/eV
      -------------------------------------------------------------
         1        2.0000           -0.6793093             -18.4849
       ...           ...                  ...                  ...
        79        2.0000           -0.4209421             -11.4544
        80        2.0000           -0.4173688             -11.3572
        81        2.0000           -0.4147190             -11.2851
        82        2.0000           -0.4135351             -11.2529
        83        2.0000           -0.4129271             -11.2363
        84        2.0000           -0.4098286             -11.1520
        85        2.0000           -0.4093777             -11.1397
        86        2.0000           -0.4063952             -11.0586
        87        2.0000           -0.3982864             -10.8379
        88        2.0000           -0.3950521             -10.7499
        89        2.0000           -0.3788966             -10.3103
        90        2.0000           -0.3558615              -9.6835
        91        2.0000           -0.3322622              -9.0413 (HOMO)
        92        0.0000           -0.3065287              -8.3411 (LUMO)
        93                         -0.2991749              -8.1410
        94                         -0.2572001              -6.9988
        95                         -0.2417533              -6.5784
        96                         -0.2370727              -6.4511
        97                         -0.2356396              -6.4121
        98                         -0.2320644              -6.3148
        99                         -0.2267475              -6.1701
       100                         -0.2257427              -6.1428
       101                         -0.2204455              -5.9986
       102                         -0.1998643              -5.4386
       ...                                ...                  ...
       177                          0.7213766              19.6297
      -------------------------------------------------------------
                  HL-Gap            0.0257336 Eh            0.7002 eV

     #   Z          covCN         q      C6AA      α(0)
     1   6 C        2.919    -0.036    28.900     8.816
     2   6 C        2.920    -0.028    28.712     8.787
     3   6 C        2.922    -0.046    29.137     8.852
     4   6 C        2.925     0.064    26.559     8.451
     5   7 N        2.752    -0.068    22.556     7.054
     6   6 C        2.925     0.064    26.557     8.451
     7   6 C        2.922    -0.046    29.142     8.853
     8   6 C        2.920    -0.028    28.712     8.787
     9   6 C        2.919    -0.036    28.905     8.816
    10   6 C        2.920    -0.028    28.711     8.787
    11   6 C        2.922    -0.046    29.137     8.852
    12   6 C        2.923     0.069    26.450     8.434
    13   6 C        2.919    -0.047    29.179     8.858
    14   6 C        2.925    -0.025    28.624     8.774
    15   6 C        2.979    -0.004    28.127     8.700
    16   6 C        2.952     0.088    26.035     8.369
    17   6 C        2.906     0.052    26.834     8.494
    18   7 N        1.843    -0.217    26.568     7.639
    19   6 C        2.990     0.145    24.846     8.177
    20   7 N        1.840    -0.229    26.856     7.680
    21   6 C        3.068     0.085    26.040     8.367
    22   6 C        3.064     0.088    25.983     8.359
    23   7 N        1.841    -0.233    26.962     7.695
    24   6 C        2.973     0.149    24.757     8.162
    25   7 N        1.855    -0.235    27.006     7.702
    26   6 C        3.027    -0.002    28.055     8.688
    27   6 C        2.913    -0.017    28.429     8.743
    28   6 C        2.919    -0.027    28.680     8.782
    29   6 C        2.918    -0.028    28.701     8.785
    30   6 C        2.976     0.017    27.622     8.621
    31   6 C        2.918    -0.028    28.711     8.787
    32   6 C        2.919    -0.027    28.674     8.781
    33   6 C        2.913    -0.017    28.436     8.744
    34   6 C        3.027    -0.002    28.047     8.687
    35   6 C        3.140    -0.005    27.919     8.647
    36   6 C        2.920    -0.032    28.796     8.800
    37   6 C        2.920    -0.049    29.215     8.864
    38   6 C        2.922    -0.046    29.133     8.851
    39   6 C        2.920    -0.028    28.704     8.786
    40   1 H        0.926     0.033     2.541     2.493
    41   1 H        0.926     0.034     2.531     2.488
    42   1 H        0.926     0.033     2.543     2.494
    43   1 H        0.926     0.034     2.530     2.487
    44   1 H        0.926     0.034     2.524     2.485
    45   1 H        0.926     0.033     2.542     2.493
    46   1 H        0.926     0.034     2.529     2.487
    47   1 H        0.926     0.033     2.538     2.491
    48   1 H        0.926     0.039     2.464     2.455
    49   1 H        0.926     0.066     2.127     2.281
    50   1 H        0.925     0.046     2.366     2.405
    51   1 H        0.926     0.055     2.255     2.348
    52   1 H        0.926     0.042     2.420     2.433
    53   1 H        0.926     0.041     2.433     2.439
    54   1 H        0.926     0.041     2.435     2.440
    55   1 H        0.926     0.042     2.418     2.432
    56   1 H        0.926     0.056     2.250     2.346
    57   1 H        0.926     0.036     2.500     2.472
    58   1 H        0.926     0.036     2.502     2.474
    59   1 H        0.926     0.035     2.512     2.478
    60   1 H        0.926     0.035     2.514     2.479

molecular dipole:
                 x           y           z       tot (Debye)
 q only:       -0.270      -0.714      -0.145
   full:       -0.228      -0.667      -0.124       1.819

 projected vibrational frequencies (cm⁻¹)
eigval :       -0.00    -0.00    -0.00     0.00     0.00     0.00
eigval :       10.13    13.85    23.20    38.38    45.35    47.24
eigval :       60.67    67.27    74.13    87.29   101.21   136.84
eigval :      137.90   153.82   159.26   165.67   206.03   214.96
eigval :      234.86   255.37   274.57   296.01   301.33   315.47
eigval :      344.77   346.14   355.90   377.25   378.11   384.11
eigval :      396.05   400.33   422.11   430.10   442.28   459.07
eigval :      465.00   485.43   489.09   494.36   505.07   540.85
eigval :      564.47   572.98   575.41   584.11   585.76   590.55
eigval :      593.32   594.02   611.33   625.70   643.84   660.61
eigval :      667.34   678.68   686.73   694.54   720.32   734.72
eigval :      743.61   758.13   762.53   774.32   787.85   789.82
eigval :      815.61   817.03   819.47   858.54   865.92   875.50
eigval :      876.30   891.98   893.85   894.96   896.53   899.01
eigval :      910.00   914.85   917.04   923.33   927.83   928.49
eigval :      929.45   929.53   930.22   932.11   951.64   974.72
eigval :      988.83  1005.36  1020.29  1057.41  1079.03  1082.73
eigval :     1083.76  1093.88  1121.51  1123.44  1124.96  1129.54
eigval :     1140.39  1177.41  1180.50  1180.60  1186.18  1188.59
eigval :     1194.68  1194.79  1208.20  1215.06  1224.96  1232.34
eigval :     1243.73  1269.51  1277.39  1279.12  1282.63  1308.52
eigval :     1311.62  1318.01  1323.56  1326.05  1332.02  1336.09
eigval :     1339.91  1363.69  1375.32  1398.78  1411.62  1417.99
eigval :     1435.55  1437.30  1442.13  1452.51  1468.57  1472.25
eigval :     1474.97  1483.55  1491.81  1511.91  1549.67  1565.51
eigval :     1578.04  1581.61  1583.40  1585.59  1593.83  1595.03
eigval :     1600.57  1607.70  1614.30  3056.66  3073.45  3075.22
eigval :     3077.80  3078.26  3078.98  3079.67  3083.54  3084.99
eigval :     3086.71  3086.99  3087.44  3088.37  3090.73  3091.55
eigval :     3097.77  3098.98  3099.38  3104.53  3105.14  3112.34

   temp. (K)  partition function   enthalpy   heat capacity  entropy
                                   cal/mol     cal/K/mol   cal/K/mol   J/K/mol
 298.15  VIB  0.397E+13            16677.367    108.497    102.727
         ROT  0.583E+08              888.752      2.981     38.517
         INT  0.232E+21            17566.119    111.478    141.244
         TR   0.108E+29             1481.254      4.968     44.493
         TOT                       19047.3729   116.4464   185.7368   777.1227

       T/K    H(0)-H(T)+PV         H(T)/Eh          T*S/Eh         G(T)/Eh
   ------------------------------------------------------------------------
    298.15    0.303539E-01    0.478756E+00    0.882495E-01    0.390506E+00
   ------------------------------------------------------------------------

         :::::::::::::::::::::::::::::::::::::::::::::::::::::
         ::                  THERMODYNAMIC                  ::
         :::::::::::::::::::::::::::::::::::::::::::::::::::::
         :: total free energy         -97.751971045339 Eh   ::
         ::.................................................::
         :: total energy              -98.142477412406 Eh   ::
         :: zero point energy           0.448401984660 Eh   ::
         :: G(RRHO) w/o ZPVE           -0.057895617593 Eh   ::
         :: G(RRHO) contrib.            0.390506367067 Eh   ::
         :::::::::::::::::::::::::::::::::::::::::::::::::::::

           -------------------------------------------------
          | TOTAL ENERGY              -98.142477412406 Eh   |
          | TOTAL ENTHALPY            -97.663721506924 Eh   |
          | TOTAL FREE ENERGY         -97.751971045339 Eh   |
          | GRADIENT NORM               0.000028547265 Eh/α |
          | HOMO-LUMO GAP               0.700246072805 eV   |
           -------------------------------------------------

 * finished run on 2025/08/22 at 23:11:12.281
