   * xtb version 6.7.1 (edcfbbe) compiled by 'albert@albert-system' on 2024-07-22

   ID    Z sym.   atoms
    1    6 C      1-4, 6-17, 19, 21, 22, 24, 26-39
    2    7 N      5, 18, 20, 23, 25
    3    1 H      40-60

          program call               : xtb data2507/gas/TPA-APm/TPA-APm_gas_T1_crest.xyz --gfn 2 --spinpol --tblite --uhf 2 --ohess vtight --parallel 40 --molden --ceasefiles --namespace data2507/gas/TPA-APm/TPA-APm_gas_T1_finalOpt
 * total energy  :   -98.1248338 Eh     change       -0.2297924E-07 Eh
 * total energy  :   -98.1248416 Eh     change       -0.7800507E-05 Eh
 * total energy  :   -98.1248457 Eh     change       -0.4138188E-05 Eh
 * total energy  :   -98.1248463 Eh     change       -0.6537211E-06 Eh
 * total energy  :   -98.1248467 Eh     change       -0.3583259E-06 Eh
 * total energy  :   -98.1248470 Eh     change       -0.2863893E-06 Eh
 * total energy  :   -98.1248473 Eh     change       -0.3012731E-06 Eh
 * total energy  :   -98.1248475 Eh     change       -0.2168301E-06 Eh
 * total energy  :   -98.1248477 Eh     change       -0.1847792E-06 Eh
 * total energy  :   -98.1248478 Eh     change       -0.1393971E-06 Eh
 * total energy  :   -98.1248480 Eh     change       -0.1434065E-06 Eh
 * total energy  :   -98.1248481 Eh     change       -0.1575618E-06 Eh
 * total energy  :   -98.1248483 Eh     change       -0.1353303E-06 Eh
 * total energy  :   -98.1248484 Eh     change       -0.9274584E-07 Eh
   *** GEOMETRY OPTIMIZATION CONVERGED AFTER 14 ITERATIONS ***

 final structure:
================
60
 xtb: 6.7.1 (edcfbbe)
C           -8.09872157463337        2.72309894557815        0.86794988227062
C           -6.86219437259667        2.76210323435082        1.49137293101749
C           -5.90848719695118        1.80179591951747        1.21514918978010
C           -6.17958963280670        0.78760953823908        0.29734371957569
N           -5.21723864264981       -0.19076047757870        0.01268287193023
C           -5.62379593020885       -1.51857475123904       -0.18036718712443
C           -5.02015214774236       -2.30865672833875       -1.15784875507705
C           -5.42670065615766       -3.61576066858279       -1.34306958098300
C           -6.44203489821918       -4.15160037010474       -0.56775931868304
C           -7.04862726239034       -3.36843647456793        0.40054856242274
C           -6.64370929861768       -2.06269950691054        0.59902749742194
C           -3.87134031687183        0.15143035278042       -0.07573110901874
C           -2.87598167339869       -0.74433734101517        0.32739505252386
C           -1.54851819362186       -0.40006827164740        0.23691565721677
C           -1.15444981712539        0.85192703888553       -0.25177801918609
C            0.26082723482908        1.16735310537315       -0.31820552955118
C            0.77605648417174        2.42631308626141       -0.61813416677424
N            2.07648695238509        2.65700722131332       -0.65957581457334
C            2.95040289502099        1.70449126251522       -0.41629389994375
N            4.24898780863243        1.90979259781319       -0.45419772555319
C            5.07287020015713        0.90685968038680       -0.19402183348690
C            4.57249672315400       -0.38548737705370        0.12568637868008
N            3.27396205184768       -0.62701705390980        0.17235083611719
C            2.42243081823917        0.35137163643281       -0.08380831094723
N            1.13070044039304        0.17512644212307       -0.05725526784491
C            5.69785160259531       -1.26938609687947        0.35983533236967
C            5.85853412564380       -2.59139415846607        0.69312878567991
C            7.16929639520006       -3.08764252746769        0.83185011648751
C            8.28739388508990       -2.30960503080602        0.64918357433279
C            8.15703523733136       -0.94342784924023        0.30504513040205
C            9.18230944167084        0.00536209747827        0.07862849516506
C            8.86515606843446        1.30139961835852       -0.25020088506652
C            7.53899152356328        1.75801261204486       -0.38013308902359
C            6.52061907046379        0.86223419612916       -0.16683963470876
C            6.85297577356462       -0.47227463354573        0.17220262144546
C           -2.15316051204811        1.74196833828513       -0.65804662215147
C           -3.48332318220428        1.39896526762910       -0.57374868806495
C           -7.42481205762455        0.75359132247069       -0.32903834297831
C           -8.37482390734097        1.71383313340074       -0.03986284669255
H           -8.84238656908269        3.47353709391095        1.08889470793944
H           -6.64094254973172        3.54132800835749        2.20578176274826
H           -4.94917352580909        1.82673479466437        1.71105540156687
H           -4.23572846073582       -1.88912098394647       -1.77052782335639
H           -4.95254297285851       -4.21723214841099       -2.10452506738905
H           -6.75879748658906       -5.17250571157239       -0.71755568734233
H           -7.83805109524913       -3.77941658104993        1.01243559064334
H           -7.11178201159816       -1.45581951520502        1.36027517025241
H           -3.15892091609028       -1.70946854012342        0.72102232236078
H           -0.78266005428274       -1.08999702231999        0.55494082536807
H            0.14616209358820        3.27743889789649       -0.82033412119604
H            5.01130494196833       -3.24173633230881        0.84685970673845
H            7.29289599248626       -4.12878549426322        1.09412609075889
H            9.27250587968709       -2.73738027441737        0.76739293351891
H           10.21606882941905       -0.29628296416376        0.16619892584617
H            9.66424339010951        2.00933015737340       -0.41855127229660
H            7.34091867347474        2.78626724060255       -0.64053373134292
H           -1.89295390771146        2.70679083041174       -1.06483099892452
H           -4.24028024117616        2.09444843132313       -0.90554201177514
H           -7.63860860249942       -0.02795359905292       -1.04341333283958
H           -9.33482983989732        1.67792858488145       -0.53341547118492

 projected vibrational frequencies (cm⁻¹)
eigval :       -0.00    -0.00    -0.00     0.00     0.00     0.00
eigval :        7.90    14.57    25.04    38.45    44.94    47.13
eigval :       60.91    67.18    72.92    89.19    99.86   133.98
eigval :      142.63   153.25   163.73   169.79   205.29   216.20
eigval :      234.72   255.55   274.75   291.25   298.24   316.45
eigval :      347.31   355.71   376.50   378.18   384.30   395.38
eigval :      405.59   412.77   418.49   432.55   439.37   466.18
eigval :      477.55   482.77   485.74   496.32   500.35   538.54
eigval :      549.42   572.39   575.70   582.64   586.13   591.34
eigval :      594.00   595.51   601.43   614.50   643.09   660.16
eigval :      664.03   665.59   671.07   679.26   683.14   705.17
eigval :      727.95   730.84   757.67   761.36   774.03   782.20
eigval :      797.73   799.67   812.04   815.43   862.16   875.21
eigval :      876.22   885.44   888.81   889.74   893.21   893.96
eigval :      896.73   909.83   912.94   920.73   925.28   926.95
eigval :      927.98   929.22   929.77   930.53   933.51   968.08
eigval :      986.87  1005.26  1019.22  1050.97  1079.40  1083.09
eigval :     1083.99  1098.22  1115.72  1121.57  1122.93  1123.78
eigval :     1142.60  1169.13  1177.69  1180.38  1180.50  1186.11
eigval :     1191.47  1194.74  1195.38  1203.24  1216.71  1231.68
eigval :     1238.76  1270.92  1277.74  1278.99  1281.51  1287.06
eigval :     1312.78  1313.65  1318.57  1325.71  1326.61  1330.72
eigval :     1335.49  1357.39  1365.61  1378.40  1397.22  1409.96
eigval :     1420.81  1436.30  1441.75  1442.46  1453.73  1470.30
eigval :     1474.71  1476.06  1483.79  1513.07  1513.71  1526.39
eigval :     1547.41  1577.35  1581.17  1581.33  1589.19  1593.83
eigval :     1599.26  1603.06  1613.90  3073.06  3074.57  3077.22
eigval :     3077.71  3078.39  3078.86  3082.77  3084.17  3085.87
eigval :     3086.39  3087.04  3088.06  3090.36  3091.14  3091.74
eigval :     3098.48  3099.05  3099.58  3099.65  3100.35  3106.93

   temp. (K)  partition function   enthalpy   heat capacity  entropy
                                   cal/mol     cal/K/mol   cal/K/mol   J/K/mol
 298.15  VIB  0.435E+13            16715.214    109.174    102.919
         ROT  0.588E+08              888.752      2.981     38.531
         INT  0.255E+21            17603.966    112.155    141.450
         TR   0.108E+29             1481.254      4.968     44.493
         TOT                       19085.2203   117.1233   185.9424   777.9831

       T/K    H(0)-H(T)+PV         H(T)/Eh          T*S/Eh         G(T)/Eh
   ------------------------------------------------------------------------
    298.15    0.304142E-01    0.477268E+00    0.883473E-01    0.388920E+00
   ------------------------------------------------------------------------

         :::::::::::::::::::::::::::::::::::::::::::::::::::::
         ::                  THERMODYNAMIC                  ::
         :::::::::::::::::::::::::::::::::::::::::::::::::::::
         :: total free energy         -97.735927899606 Eh   ::
         ::.................................................::
         :: total energy              -98.124848378832 Eh   ::
         :: zero point energy           0.446853495873 Eh   ::
         :: G(RRHO) w/o ZPVE           -0.057933016646 Eh   ::
         :: G(RRHO) contrib.            0.388920479227 Eh   ::
         :::::::::::::::::::::::::::::::::::::::::::::::::::::

           -------------------------------------------------
          | TOTAL ENERGY              -98.124848378832 Eh   |
          | TOTAL ENTHALPY            -97.647580648475 Eh   |
          | TOTAL FREE ENERGY         -97.735927899606 Eh   |
          | GRADIENT NORM               0.000055394153 Eh/α |
           -------------------------------------------------

 * finished run on 2025/08/22 at 23:14:09.054
