   * xtb version 6.7.1 (edcfbbe) compiled by 'albert@albert-system' on 2024-07-22

   ID    Z sym.   atoms
    1    6 C      1-4, 6-17, 19, 21, 22, 24, 26-39
    2    7 N      5, 18, 20, 23, 25
    3    1 H      40-60

          program call               : xtb data2507/gas/TPA-APm/TPA-APm_gas_S0_finalOpt.xtbopt.xyz --gfn 2 --spinpol --tblite --uhf 2 --ohess vtight --parallel 40 --molden --ceasefiles --namespace data2507/gas/TPA-APm/TPA-APm_gas_T1_preOpt
 * total energy  :   -98.1158740 Eh     change        0.1047086E-07 Eh
 * total energy  :   -98.1217065 Eh     change       -0.5832564E-02 Eh
 * total energy  :   -98.1243673 Eh     change       -0.2660795E-02 Eh
 * total energy  :   -98.1246532 Eh     change       -0.2859044E-03 Eh
 * total energy  :   -98.1247660 Eh     change       -0.1127809E-03 Eh
 * total energy  :   -98.1247729 Eh     change       -0.6886987E-05 Eh
 * total energy  :   -98.1247768 Eh     change       -0.3900383E-05 Eh
 * total energy  :   -98.1247841 Eh     change       -0.7324277E-05 Eh
 * total energy  :   -98.1247886 Eh     change       -0.4471001E-05 Eh
 * total energy  :   -98.1247914 Eh     change       -0.2839238E-05 Eh
 * total energy  :   -98.1248488 Eh     change       -0.6316102E-06 Eh
 * total energy  :   -98.1248490 Eh     change       -0.1840539E-06 Eh
 * total energy  :   -98.1248491 Eh     change       -0.1403085E-06 Eh
 * total energy  :   -98.1248493 Eh     change       -0.1875045E-06 Eh
 * total energy  :   -98.1248495 Eh     change       -0.1822232E-06 Eh
 * total energy  :   -98.1248497 Eh     change       -0.2038307E-06 Eh
 * total energy  :   -98.1248498 Eh     change       -0.1188049E-06 Eh
 * total energy  :   -98.1248499 Eh     change       -0.1092926E-06 Eh
 * total energy  :   -98.1248499 Eh     change       -0.6059480E-08 Eh
   *** GEOMETRY OPTIMIZATION CONVERGED AFTER 53 ITERATIONS ***

 final structure:
================
60
 xtb: 6.7.1 (edcfbbe)
C           -6.45597885988105       -4.14850544543650        0.47633220375570
C           -7.06450203088414       -3.33827380537373       -0.46820177890300
C           -6.65513276872277       -2.02956587496415       -0.63545879912522
C           -5.62879022576911       -1.50962495439412        0.15203144901434
N           -5.21827706503304       -0.17890617053625       -0.00883345444778
C           -6.17770856989482        0.81007764418808       -0.26569434606635
C           -5.90497493816191        1.84563040533835       -1.15882413648049
C           -6.85508514466744        2.81692379336134       -1.40762260122939
C           -8.08960417071697        2.76802680550769       -0.78091694693129
C           -8.36733427446200        1.73765907272141        0.10236007031309
C           -7.42088640053918        0.76605968023609        0.36404884721041
C           -3.87138741729994        0.15765196418348        0.08690573253767
C           -2.87835238269180       -0.72846549249651       -0.34233607724852
C           -1.55005619929826       -0.38944947334069       -0.24388763480950
C           -1.15288063803027        0.84746271246143        0.27951561708087
C            0.26304853616240        1.15781195145030        0.35511885234750
C            0.78060290890301        2.40510695143430        0.69690135453318
N            2.08141591573421        2.63140289518469        0.74828047204487
C            2.95363743221213        1.68534973149084        0.47536038053197
N            4.25252955899073        1.88583220118812        0.52445333392205
C            5.07474880498198        0.89042836484538        0.23221927471393
C            4.57223447306392       -0.38843839137773       -0.13485329240659
N            3.27325237812704       -0.62495400922064       -0.19330937254521
C            2.42325732883262        0.34569710624808        0.09548219395038
N            1.13118483040831        0.17312877360064        0.06153344976975
C            5.69636280561784       -1.26628647874086       -0.39652234514139
C            5.85523398548174       -2.57594209542064       -0.77623495012092
C            7.16535016845068       -3.07026828513795       -0.92750109330844
C            8.28462140135906       -2.30224788673552       -0.71252752241221
C            8.15619497827397       -0.94895421974883       -0.32019152295916
C            9.18286314024054       -0.01170795049245       -0.05529565829799
C            8.86761233320197        1.27252438285921        0.31861158944932
C            7.54205820832863        1.72777268618121        0.45898208742251
C            6.52240673766864        0.84296658052745        0.20914043000859
C            6.85274236006412       -0.47942772505354       -0.17608941725504
C           -2.14942184059834        1.72797538865294        0.71117949133565
C           -3.48032849602666        1.39022312496854        0.61861033832766
C           -5.02315674230537       -2.32706653886530        1.10553086305230
C           -5.43412939734292       -3.63684691557274        1.25936783896586
H           -6.77631478178752       -5.17157396887044        0.60179110893866
H           -7.85903888428172       -3.73016659070557       -1.08597112589450
H           -7.12480430431128       -1.40155221111977       -1.37835591572107
H           -4.94713393088691        1.87858788524355       -1.65711103694019
H           -6.63263290052168        3.61275986389301       -2.10309382801733
H           -8.83045167756731        3.52723878287057       -0.98030261933132
H           -9.32574384128532        1.69395983713461        0.59837707842769
H           -7.63582706931790       -0.03207698050537        1.05948460284239
H           -3.16377115423713       -1.68171264834408       -0.76227682179990
H           -0.78591524751143       -1.07171257471391       -0.58195827247904
H            0.15232259657978        3.25049376945333        0.92631796249372
H            5.00711575322692       -3.21827388185752       -0.95644798739223
H            7.28747642766091       -4.10165919245801       -1.22641295762530
H            9.26916071612252       -2.72811238489593       -0.84191009218729
H           10.21622728287100       -0.31284860085552       -0.14905618369699
H            9.66774839998140        1.97171106170757        0.51600116194621
H            7.34532476730698        2.74647268037608        0.75545420506195
H           -1.88702861722398        2.68069861932938        1.14417888112317
H           -4.23556055134885        2.07784972869719        0.97012946429317
H           -4.23382816565400       -1.92661728533306        1.72464400372145
H           -4.95837709130094       -4.25953470141127        2.00256102294073

 projected vibrational frequencies (cm⁻¹)
eigval :       -0.00    -0.00    -0.00     0.00     0.00     0.00
eigval :        7.85    14.52    24.94    38.34    44.65    46.90
eigval :       60.85    67.09    72.89    89.24    99.76   134.06
eigval :      142.66   153.31   163.68   169.75   205.33   216.14
eigval :      234.74   255.59   274.67   291.28   298.41   316.49
eigval :      347.19   355.72   376.41   378.08   384.28   395.44
eigval :      405.55   412.79   418.54   432.60   439.32   466.17
eigval :      477.51   482.72   485.72   496.29   500.28   538.38
eigval :      549.45   572.31   575.71   582.56   585.97   591.27
eigval :      593.99   595.39   601.45   614.36   642.95   660.09
eigval :      664.04   665.53   671.15   679.28   683.15   705.18
eigval :      727.95   730.60   757.53   761.19   774.14   782.18
eigval :      797.89   799.67   812.11   815.39   862.16   874.91
eigval :      875.96   885.43   888.92   889.84   893.33   893.81
eigval :      896.61   909.86   912.88   920.85   925.30   927.07
eigval :      927.83   929.07   929.49   930.31   933.16   967.70
eigval :      986.92  1005.32  1019.42  1050.89  1079.56  1083.20
eigval :     1084.17  1098.40  1115.73  1121.70  1123.08  1123.88
eigval :     1142.50  1169.20  1177.52  1180.23  1180.34  1185.75
eigval :     1191.11  1194.52  1195.09  1203.03  1216.32  1231.51
eigval :     1238.76  1270.66  1277.31  1278.72  1281.40  1287.01
eigval :     1312.85  1313.84  1318.64  1325.00  1326.63  1330.58
eigval :     1335.14  1357.46  1365.68  1378.32  1396.68  1409.76
eigval :     1420.67  1436.18  1441.77  1442.34  1453.63  1470.02
eigval :     1474.43  1475.86  1483.48  1513.25  1513.70  1526.01
eigval :     1547.44  1577.41  1581.12  1581.39  1589.02  1593.87
eigval :     1599.26  1603.03  1614.06  3072.95  3074.49  3076.75
eigval :     3077.19  3078.11  3078.48  3082.41  3084.05  3085.79
eigval :     3086.30  3086.69  3087.72  3089.89  3090.49  3091.23
eigval :     3098.25  3099.00  3099.17  3099.55  3100.17  3106.59

   temp. (K)  partition function   enthalpy   heat capacity  entropy
                                   cal/mol     cal/K/mol   cal/K/mol   J/K/mol
 298.15  VIB  0.447E+13            16717.391    109.165    102.937
         ROT  0.588E+08              888.752      2.981     38.531
         INT  0.263E+21            17606.144    112.146    141.469
         TR   0.108E+29             1481.254      4.968     44.493
         TOT                       19087.3976   117.1145   185.9612   778.0616

       T/K    H(0)-H(T)+PV         H(T)/Eh          T*S/Eh         G(T)/Eh
   ------------------------------------------------------------------------
    298.15    0.304177E-01    0.477235E+00    0.883562E-01    0.388879E+00
   ------------------------------------------------------------------------

         :::::::::::::::::::::::::::::::::::::::::::::::::::::
         ::                  THERMODYNAMIC                  ::
         :::::::::::::::::::::::::::::::::::::::::::::::::::::
         :: total free energy         -97.735971091907 Eh   ::
         ::.................................................::
         :: total energy              -98.124849976619 Eh   ::
         :: zero point energy           0.446817337973 Eh   ::
         :: G(RRHO) w/o ZPVE           -0.057938453261 Eh   ::
         :: G(RRHO) contrib.            0.388878884712 Eh   ::
         :::::::::::::::::::::::::::::::::::::::::::::::::::::

           -------------------------------------------------
          | TOTAL ENERGY              -98.124849976619 Eh   |
          | TOTAL ENTHALPY            -97.647614934428 Eh   |
          | TOTAL FREE ENERGY         -97.735971091907 Eh   |
          | GRADIENT NORM               0.000057117044 Eh/α |
           -------------------------------------------------

 * finished run on 2025/08/22 at 23:11:17.867
