   * xtb version 6.7.1 (edcfbbe) compiled by 'albert@albert-system' on 2024-07-22

   ID    Z sym.   atoms
    1    6 C      1-4, 6-17, 19, 21, 22, 24, 26-39
    2    7 N      5, 18, 20, 23, 25
    3    1 H      40-60

          program call               : xtb data2507/gas/TPA-APm/TPA-APm.xyz --gfn 2 --ohess vtight --parallel 40 --molden --ceasefiles --namespace data2507/gas/TPA-APm/TPA-APm_gas_S0_preOpt
          :  Hamiltonian                  GFN2-xTB          :
 * total energy  :   -98.1198258 Eh     change       -0.5487351E-08 Eh
 * total energy  :   -98.1346899 Eh     change       -0.1486413E-01 Eh
 * total energy  :   -98.1401160 Eh     change       -0.5426123E-02 Eh
 * total energy  :   -98.1413433 Eh     change       -0.1227255E-02 Eh
 * total energy  :   -98.1419652 Eh     change       -0.6219244E-03 Eh
 * total energy  :   -98.1421368 Eh     change       -0.1716388E-03 Eh
 * total energy  :   -98.1422455 Eh     change       -0.1086494E-03 Eh
 * total energy  :   -98.1423228 Eh     change       -0.7727820E-04 Eh
 * total energy  :   -98.1423755 Eh     change       -0.5271630E-04 Eh
 * total energy  :   -98.1424079 Eh     change       -0.3239797E-04 Eh
 * total energy  :   -98.1424760 Eh     change       -0.1240215E-05 Eh
 * total energy  :   -98.1424773 Eh     change       -0.1243344E-05 Eh
 * total energy  :   -98.1424785 Eh     change       -0.1218919E-05 Eh
 * total energy  :   -98.1424796 Eh     change       -0.1088844E-05 Eh
 * total energy  :   -98.1424802 Eh     change       -0.6329883E-06 Eh
 * total energy  :   -98.1424806 Eh     change       -0.3438160E-06 Eh
 * total energy  :   -98.1424808 Eh     change       -0.2253769E-06 Eh
 * total energy  :   -98.1424809 Eh     change       -0.1544392E-06 Eh
 * total energy  :   -98.1424810 Eh     change       -0.6825267E-07 Eh
   *** GEOMETRY OPTIMIZATION CONVERGED AFTER 41 ITERATIONS ***

 final structure:
================
60
 xtb: 6.7.1 (edcfbbe)
C           -7.66302748397233       -2.82512690798265       -0.45982364188784
C           -6.46354054844407       -2.91715266691902       -1.14678700700421
C           -5.49615338066404       -1.94216444664214       -0.99902662855122
C           -5.71616364553642       -0.85987056108896       -0.14812938158429
N           -4.73938709546733        0.13517578266086        0.00478084358978
C           -5.14031366784568        1.47589712593473        0.10432692333944
C           -6.19533333229990        1.95278573397061       -0.67192357773894
C           -6.59759977711682        3.26994941650054       -0.56309572583351
C           -5.95337967967953        4.13001466135138        0.31103698554545
C           -4.90301297288102        3.66065561877143        1.08271777516230
C           -4.49872756745016        2.34314505914607        0.98736185118152
C           -3.39344581576812       -0.20397521307289        0.06156775428158
C           -2.98738753732910       -1.41530305916436        0.63038028294070
C           -1.65505749837004       -1.75771945947153        0.68217856956851
C           -0.67612863307219       -0.90129797837684        0.17248848137588
C            0.74496804356902       -1.22058559386889        0.20512238781981
C            1.23524545300246       -2.53879960588069        0.41394784257740
N            2.50452290822941       -2.82519611574639        0.46559286117747
C            3.37739973150968       -1.81447081551616        0.29953069742519
N            4.69363858679420       -2.10820563894404        0.37091304550411
C            5.49317423504956       -1.09774157605259        0.17468173640981
C            5.01312235013434        0.24462145099547       -0.10309480365869
N            3.74881789433019        0.54714549081868       -0.16935807575646
C            2.90099486378153       -0.49031776848872        0.04067611925312
N            1.59242898991677       -0.22528657955029        0.00560638871092
C            6.17140273528424        1.10963740800655       -0.27216513806186
C            6.36468892244281        2.44072671491990       -0.54374397333544
C            7.68650903479759        2.91669293023201       -0.63100947510969
C            8.78364569739977        2.10685407140594       -0.45615077005952
C            8.62012708415299        0.73131465110291       -0.17516707537792
C            9.62265217237041       -0.24330258732152        0.03283763151166
C            9.28000175970169       -1.54802174380807        0.29811931958729
C            7.94459007738392       -1.98594100525450        0.37750155991845
C            6.94694787200479       -1.06441560355261        0.18036323304845
C            7.30118379575648        0.27785105062553       -0.09249404840198
C           -1.08498588896817        0.31622646429977       -0.38285350177210
C           -2.41427685604025        0.65913652663896       -0.44328485553482
C           -6.92407592375563       -0.77188399601250        0.54205442496662
C           -7.88850940363690       -1.74791120761383        0.38140125682662
H           -8.41757597128132       -3.58741657543806       -0.58031134811740
H           -6.28252230779400       -3.74992875738449       -1.81019295763636
H           -4.56605571248087       -2.00867815628618       -1.54430989472052
H           -6.69317167120064        1.28495475039569       -1.35969281188258
H           -7.41496155170414        3.62855554657829       -1.17112416801295
H           -6.26843709177837        5.15923940721279        0.39105508905770
H           -4.39930019214647        4.32276083302598        1.77128742724640
H           -3.68713604232150        1.97591401386713        1.59815275026299
H           -3.73062335161822       -2.08027354973162        1.04520029402508
H           -1.37679343949005       -2.68719324031710        1.15468277497117
H            0.56364498430894       -3.38007668006047        0.51912953123099
H            5.53076364191341        3.10977641491086       -0.68739906049465
H            7.83819449015450        3.96506642686537       -0.84482630178800
H            9.77988440138493        2.51835695481596       -0.53261784260262
H           10.66267956839245        0.04538622824325       -0.01834682909629
H           10.06496004899536       -2.27433148860698        0.45333685347987
H            7.71832616679423       -3.01947668035291        0.58784514974314
H           -0.32719713488250        0.97583854012760       -0.77489808914364
H           -2.71312559112202        1.59504363236038       -0.89169076110591
H           -7.09766888822996        0.06363821806121        1.20430113992766
H           -8.81943785520816       -1.67029786533970        0.92333976260294

          :  Hamiltonian                  GFN2-xTB          :
         :: gradient norm              0.000061719088 Eh/a0 ::
         :: HOMO-LUMO gap              0.701574068445 eV    ::
         :: SCC energy               -99.910734026039 Eh    ::
         :: -> dispersion             -0.081497476170 Eh    ::
         :: repulsion energy           1.768253014495 Eh    ::

    * Orbital Energies and Occupations

         #    Occupation            Energy/Eh            Energy/eV
      -------------------------------------------------------------
         1        2.0000           -0.6793547             -18.4862
       ...           ...                  ...                  ...
        79        2.0000           -0.4210052             -11.4561
        80        2.0000           -0.4173415             -11.3564
        81        2.0000           -0.4147039             -11.2847
        82        2.0000           -0.4135221             -11.2525
        83        2.0000           -0.4129023             -11.2356
        84        2.0000           -0.4098277             -11.1520
        85        2.0000           -0.4093219             -11.1382
        86        2.0000           -0.4064893             -11.0611
        87        2.0000           -0.3983254             -10.8390
        88        2.0000           -0.3950984             -10.7512
        89        2.0000           -0.3789447             -10.3116
        90        2.0000           -0.3558271              -9.6825
        91        2.0000           -0.3323202              -9.0429 (HOMO)
        92        0.0000           -0.3065378              -8.3413 (LUMO)
        93                         -0.2992001              -8.1416
        94                         -0.2570686              -6.9952
        95                         -0.2417791              -6.5791
        96                         -0.2371166              -6.4523
        97                         -0.2356142              -6.4114
        98                         -0.2320537              -6.3145
        99                         -0.2267210              -6.1694
       100                         -0.2257386              -6.1427
       101                         -0.2205058              -6.0003
       102                         -0.1998558              -5.4384
       ...                                ...                  ...
       177                          0.7213503              19.6289
      -------------------------------------------------------------
                  HL-Gap            0.0257823 Eh            0.7016 eV

     #   Z          covCN         q      C6AA      α(0)
     1   6 C        2.919    -0.036    28.905     8.816
     2   6 C        2.920    -0.028    28.712     8.787
     3   6 C        2.922    -0.046    29.141     8.852
     4   6 C        2.925     0.064    26.557     8.451
     5   7 N        2.752    -0.068    22.556     7.054
     6   6 C        2.925     0.064    26.559     8.451
     7   6 C        2.922    -0.046    29.138     8.852
     8   6 C        2.920    -0.028    28.712     8.787
     9   6 C        2.919    -0.036    28.901     8.816
    10   6 C        2.920    -0.028    28.704     8.786
    11   6 C        2.922    -0.046    29.134     8.852
    12   6 C        2.923     0.069    26.450     8.434
    13   6 C        2.920    -0.049    29.215     8.864
    14   6 C        2.921    -0.032    28.797     8.800
    15   6 C        2.979    -0.004    28.127     8.699
    16   6 C        2.952     0.088    26.034     8.369
    17   6 C        2.906     0.052    26.835     8.494
    18   7 N        1.843    -0.217    26.565     7.639
    19   6 C        2.990     0.145    24.846     8.177
    20   7 N        1.840    -0.229    26.856     7.680
    21   6 C        3.068     0.085    26.040     8.367
    22   6 C        3.064     0.088    25.983     8.359
    23   7 N        1.841    -0.233    26.960     7.695
    24   6 C        2.974     0.149    24.757     8.162
    25   7 N        1.855    -0.235    27.002     7.702
    26   6 C        3.027    -0.002    28.055     8.688
    27   6 C        2.913    -0.017    28.429     8.743
    28   6 C        2.919    -0.027    28.680     8.782
    29   6 C        2.918    -0.028    28.701     8.785
    30   6 C        2.976     0.017    27.622     8.621
    31   6 C        2.918    -0.028    28.711     8.787
    32   6 C        2.919    -0.027    28.674     8.781
    33   6 C        2.913    -0.017    28.436     8.744
    34   6 C        3.027    -0.002    28.047     8.687
    35   6 C        3.140    -0.005    27.918     8.647
    36   6 C        2.925    -0.025    28.622     8.773
    37   6 C        2.919    -0.047    29.179     8.858
    38   6 C        2.922    -0.046    29.137     8.852
    39   6 C        2.920    -0.028    28.711     8.787
    40   1 H        0.926     0.033     2.542     2.493
    41   1 H        0.926     0.034     2.524     2.485
    42   1 H        0.926     0.034     2.530     2.487
    43   1 H        0.926     0.033     2.543     2.494
    44   1 H        0.926     0.034     2.531     2.488
    45   1 H        0.926     0.033     2.542     2.493
    46   1 H        0.926     0.035     2.514     2.479
    47   1 H        0.926     0.035     2.511     2.478
    48   1 H        0.926     0.036     2.502     2.474
    49   1 H        0.926     0.036     2.499     2.472
    50   1 H        0.925     0.046     2.365     2.405
    51   1 H        0.926     0.055     2.255     2.348
    52   1 H        0.926     0.042     2.420     2.433
    53   1 H        0.926     0.041     2.433     2.439
    54   1 H        0.926     0.041     2.435     2.440
    55   1 H        0.926     0.042     2.418     2.432
    56   1 H        0.926     0.056     2.250     2.346
    57   1 H        0.926     0.066     2.133     2.284
    58   1 H        0.926     0.039     2.463     2.454
    59   1 H        0.926     0.033     2.538     2.491
    60   1 H        0.926     0.034     2.529     2.487

molecular dipole:
                 x           y           z       tot (Debye)
 q only:       -0.257       0.713      -0.142
   full:       -0.215       0.665      -0.118       1.803

 projected vibrational frequencies (cm⁻¹)
eigval :       -0.00    -0.00    -0.00    -0.00    -0.00     0.00
eigval :       10.59    13.87    22.94    38.52    45.53    47.31
eigval :       61.27    67.22    74.44    87.39   101.79   136.66
eigval :      138.14   153.88   159.17   166.04   205.92   215.06
eigval :      234.95   255.32   274.76   296.02   301.50   315.47
eigval :      344.82   345.70   356.20   377.50   378.13   384.17
eigval :      395.95   400.37   422.11   429.90   442.56   459.23
eigval :      464.98   485.38   489.19   494.33   505.30   540.84
eigval :      564.44   573.00   575.50   584.12   585.76   590.55
eigval :      593.30   594.05   611.14   626.14   643.88   660.63
eigval :      667.35   678.66   686.72   694.59   720.38   734.72
eigval :      743.64   758.14   762.53   774.34   787.85   789.82
eigval :      815.59   816.85   819.55   859.52   865.98   875.53
eigval :      876.32   892.00   893.85   894.99   896.55   899.01
eigval :      910.00   914.82   917.22   923.34   927.71   928.45
eigval :      929.46   929.51   930.23   932.04   951.66   974.72
eigval :      988.84  1005.35  1020.32  1057.42  1079.02  1082.73
eigval :     1083.77  1094.19  1121.52  1123.46  1124.97  1129.57
eigval :     1140.50  1177.41  1180.51  1180.61  1186.38  1188.60
eigval :     1194.63  1194.83  1208.00  1214.84  1224.97  1232.34
eigval :     1243.68  1269.43  1277.39  1279.03  1282.64  1308.18
eigval :     1311.57  1317.98  1323.57  1326.05  1332.03  1335.99
eigval :     1339.91  1363.67  1375.43  1398.80  1411.66  1417.97
eigval :     1435.56  1437.29  1442.12  1452.52  1468.66  1472.26
eigval :     1474.96  1483.56  1491.89  1512.01  1549.75  1565.49
eigval :     1578.04  1581.62  1583.40  1585.63  1593.84  1595.04
eigval :     1600.56  1607.71  1614.31  3056.17  3073.46  3075.23
eigval :     3077.79  3078.25  3078.99  3079.69  3083.55  3084.99
eigval :     3086.71  3087.00  3087.44  3088.37  3090.74  3091.58
eigval :     3097.36  3098.99  3099.38  3104.53  3105.20  3112.09

   temp. (K)  partition function   enthalpy   heat capacity  entropy
                                   cal/mol     cal/K/mol   cal/K/mol   J/K/mol
 298.15  VIB  0.373E+13            16673.185    108.509    102.655
         ROT  0.583E+08              888.752      2.981     38.516
         INT  0.218E+21            17561.938    111.490    141.171
         TR   0.108E+29             1481.254      4.968     44.493
         TOT                       19043.1914   116.4582   185.6633   776.8151

       T/K    H(0)-H(T)+PV         H(T)/Eh          T*S/Eh         G(T)/Eh
   ------------------------------------------------------------------------
    298.15    0.303473E-01    0.478759E+00    0.882146E-01    0.390545E+00
   ------------------------------------------------------------------------

         :::::::::::::::::::::::::::::::::::::::::::::::::::::
         ::                  THERMODYNAMIC                  ::
         :::::::::::::::::::::::::::::::::::::::::::::::::::::
         :: total free energy         -97.751936395273 Eh   ::
         ::.................................................::
         :: total energy              -98.142481011536 Eh   ::
         :: zero point energy           0.448411972419 Eh   ::
         :: G(RRHO) w/o ZPVE           -0.057867356156 Eh   ::
         :: G(RRHO) contrib.            0.390544616263 Eh   ::
         :::::::::::::::::::::::::::::::::::::::::::::::::::::

           -------------------------------------------------
          | TOTAL ENERGY              -98.142481011536 Eh   |
          | TOTAL ENTHALPY            -97.663721781870 Eh   |
          | TOTAL FREE ENERGY         -97.751936395273 Eh   |
          | GRADIENT NORM               0.000061779350 Eh/α |
          | HOMO-LUMO GAP               0.701573380378 eV   |
           -------------------------------------------------

 * finished run on 2025/08/22 at 23:08:29.102
