   * xtb version 6.7.1 (edcfbbe) compiled by 'albert@albert-system' on 2024-07-22

   ID    Z sym.   atoms
    1    6 C      1-9, 11-27, 29-34
    2    7 N      10, 28
    3    1 H      35-58

          program call               : xtb data2507/toluene/BAPCN/BAPCN_toluene_T1_crest.xyz --gfn 2 --uhf 2 --gbsa toluene --ohess vtight --parallel 40 --molden --ceasefiles --namespace data2507/toluene/BAPCN/BAPCN_toluene_T1_finalOpt
      * Solvation model:               GBSA
        Solvent                        toluene
        Solvent mass                       9.2140E+01 g/mol
          :  Hamiltonian                  GFN2-xTB          :
 * total energy  :   -86.5535597 Eh     change       -0.6659505E-08 Eh
 * total energy  :   -86.5536296 Eh     change       -0.6988715E-04 Eh
 * total energy  :   -86.5536476 Eh     change       -0.1802217E-04 Eh
 * total energy  :   -86.5536471 Eh     change        0.5476229E-06 Eh
 * total energy  :   -86.5536512 Eh     change       -0.4053770E-05 Eh
 * total energy  :   -86.5536524 Eh     change       -0.1222802E-05 Eh
 * total energy  :   -86.5536532 Eh     change       -0.8395643E-06 Eh
 * total energy  :   -86.5536550 Eh     change       -0.1772287E-05 Eh
 * total energy  :   -86.5536558 Eh     change       -0.7876174E-06 Eh
 * total energy  :   -86.5536563 Eh     change       -0.5107657E-06 Eh
 * total energy  :   -86.5536568 Eh     change       -0.5134642E-06 Eh
 * total energy  :   -86.5536572 Eh     change       -0.4223387E-06 Eh
 * total energy  :   -86.5536576 Eh     change       -0.3768603E-06 Eh
 * total energy  :   -86.5536580 Eh     change       -0.4266252E-06 Eh
 * total energy  :   -86.5536585 Eh     change       -0.4485384E-06 Eh
 * total energy  :   -86.5536588 Eh     change       -0.3293434E-06 Eh
 * total energy  :   -86.5536590 Eh     change       -0.1550961E-06 Eh
 * total energy  :   -86.5536590 Eh     change       -0.1489185E-07 Eh
   *** GEOMETRY OPTIMIZATION CONVERGED AFTER 18 ITERATIONS ***

 final structure:
================
58
 xtb: 6.7.1 (edcfbbe)
C           -1.11070814664695        2.93912639713569       -1.19549708003375
C           -1.60522923330668        2.08192577004696        0.00146269697549
C           -1.29050372567337        2.73382337833128        1.37215759388026
C           -3.11584834294188        2.03551131180505       -0.06835177544717
C           -3.83020190179004        3.22495793742480       -0.12761793204707
C           -5.21230182373381        3.24291329059169       -0.16257523225985
C           -5.91476457453568        2.04418441190637       -0.13547493054130
C           -5.23464670802640        0.85055504686967       -0.07956965678589
C           -3.82995013248381        0.82886617179118       -0.04607058698248
N           -3.15487060917086       -0.36717934970582        0.00100714166606
C           -3.92688445487664       -1.56923144923499        0.03429096567517
C           -4.31239363053896       -2.17694553679768       -1.15387859244198
C           -5.07759746824542       -3.32970788406632       -1.11463745858797
C           -5.45633773512142       -3.87310094474024        0.10239760309621
C           -5.06922778922872       -3.26438581275840        1.28523461536064
C           -4.30365302039291       -2.11143215060118        1.25618443084858
C           -1.78472988812856       -0.45874461426600        0.00140248834720
C           -1.19790678722645       -1.73582401623392        0.01732465780954
C            0.15509666881369       -1.88862438540602        0.01548647299401
C            1.01934490114484       -0.75536907209065        0.00334522806005
C            2.38980317775852       -0.92936306670722        0.01209950551106
C            3.30653276963472        0.16294255997283        0.01879800454865
C            4.72232745513608       -0.02584788615031        0.00807973366367
C            5.61954760625671        0.99769395872070        0.41301046366650
C            6.97268178334389        0.81750869372273        0.40642519015306
C            7.53344756899955       -0.40677285946884       -0.02047298500520
C            8.91300300498556       -0.59258019634837       -0.03416332427363
N           10.05989455909511       -0.74559702911952       -0.04705059176550
C            6.65955114833183       -1.43643638503970       -0.43224361048191
C            5.30698612712774       -1.25113179672602       -0.40948076363393
C            2.71789831001633        1.44514677222103        0.02032700105261
C            1.36855110989888        1.63925525229910       -0.00310756103532
C            0.43005250956118        0.55351240277118       -0.00757320106733
C           -0.96057694957314        0.71079528720096       -0.01634521291603
H           -0.74053132912522        3.90582595640222       -0.86417042000091
H           -1.92788642688525        3.11264408396542       -1.89266581061189
H           -0.32261630528980        2.43199662700627       -1.74392591139030
H           -0.22872344886784        2.71605590729072        1.59292680586393
H           -1.64080406756820        3.76199310915198        1.39391593175957
H           -1.80413758309642        2.18261448265627        2.15890430950437
H           -3.29499108664825        4.16138076566707       -0.15242749669640
H           -5.74016108367434        4.18297658355110       -0.20903560107912
H           -6.99403020071616        2.04497638904612       -0.15956668240514
H           -5.78310919712278       -0.07753907908514       -0.06089715681889
H           -4.01173302579780       -1.74416141835718       -2.09645726269197
H           -5.37828145011706       -3.80267541753363       -2.03728536572640
H           -6.05391561611539       -4.77169074418327        0.12901235766228
H           -5.36336040507854       -3.68618614139893        2.23439614723249
H           -3.99636272717473       -1.62883314060020        2.17202149105434
H           -1.83166082918231       -2.60839955142251        0.03008949852313
H            0.59401588048705       -2.87470186327307        0.02650997820496
H            2.76787067955649       -1.93920856876188        0.05109695229599
H            5.22802237940002        1.93611301675129        0.77502904761279
H            7.63491074006722        1.60748989224533        0.73417375370429
H            7.08144917034097       -2.37345326725499       -0.77023992397931
H            4.67126843517620       -2.05050255800662       -0.75815759477649
H            3.35502036972982        2.31681855830957       -0.00402108518441
H            1.01942239623902        2.65503169868433       -0.03162344575969

          :  Hamiltonian                  GFN2-xTB          :
         :: gradient norm              0.000103636804 Eh/a0 ::
         :: HOMO-LUMO gap              0.608628075122 eV    ::
         :: SCC energy               -88.181575439637 Eh    ::
         :: -> dispersion             -0.078169327121 Eh    ::
         :: -> Gsolv                  -0.045548539284 Eh    ::
         :: repulsion energy           1.627916465705 Eh    ::

    * Orbital Energies and Occupations

         #    Occupation            Energy/Eh            Energy/eV
      -------------------------------------------------------------
         1        2.0000           -0.6880131             -18.7218
       ...           ...                  ...                  ...
        70        2.0000           -0.4216161             -11.4728
        71        2.0000           -0.4205425             -11.4435
        72        2.0000           -0.4182856             -11.3821
        73        2.0000           -0.4158688             -11.3164
        74        2.0000           -0.4141414             -11.2694
        75        2.0000           -0.4093041             -11.1377
        76        2.0000           -0.4052292             -11.0268
        77        2.0000           -0.4033475             -10.9756
        78        2.0000           -0.4022175             -10.9449
        79        2.0000           -0.3882785             -10.5656
        80        2.0000           -0.3805187             -10.3544
        81        1.0000           -0.3525998              -9.5947
        82        1.0000           -0.2755556              -7.4982 (HOMO)
        83        0.0000           -0.2531889              -6.8896 (LUMO)
        84                         -0.2447077              -6.6588
        85                         -0.2425297              -6.5996
        86                         -0.2325438              -6.3278
        87                         -0.2309022              -6.2832
        88                         -0.2167081              -5.8969
        89                         -0.2111555              -5.7458
        90                         -0.1898276              -5.1655
        91                         -0.1891128              -5.1460
        92                         -0.1633441              -4.4448
        93                         -0.1237946              -3.3686
       ...                                ...                  ...
       160                          1.1681567              31.7872
      -------------------------------------------------------------
                  HL-Gap            0.0223668 Eh            0.6086 eV

     #   Z          covCN         q      C6AA      α(0)
     1   6 C        3.756    -0.109    22.645     6.785
     2   6 C        3.906     0.025    20.091     6.371
     3   6 C        3.765    -0.104    22.524     6.764
     4   6 C        2.986    -0.003    28.085     8.693
     5   6 C        2.925    -0.035    28.868     8.811
     6   6 C        2.917    -0.035    28.874     8.812
     7   6 C        2.918    -0.029    28.731     8.790
     8   6 C        2.921    -0.050    29.251     8.869
     9   6 C        2.932     0.055    26.768     8.485
    10   7 N        2.756    -0.010    21.458     6.880
    11   6 C        2.934     0.062    26.603     8.459
    12   6 C        2.920    -0.035    28.861     8.810
    13   6 C        2.920    -0.025    28.616     8.772
    14   6 C        2.919    -0.027    28.664     8.780
    15   6 C        2.920    -0.024    28.615     8.772
    16   6 C        2.921    -0.035    28.860     8.810
    17   6 C        2.923     0.047    26.948     8.513
    18   6 C        2.913    -0.055    29.368     8.886
    19   6 C        2.919    -0.047    29.171     8.857
    20   6 C        2.978     0.008    27.832     8.654
    21   6 C        2.925    -0.059    29.460     8.901
    22   6 C        2.966     0.007    27.869     8.659
    23   6 C        2.968    -0.004    28.114     8.697
    24   6 C        2.918    -0.039    28.966     8.826
    25   6 C        2.918    -0.031    28.773     8.796
    26   6 C        2.969    -0.012    28.309     8.727
    27   6 C        1.910     0.103    28.558     8.630
    28   7 N        0.911    -0.343    28.823     7.765
    29   6 C        2.918    -0.030    28.760     8.794
    30   6 C        2.919    -0.038    28.954     8.824
    31   6 C        2.916    -0.035    28.882     8.813
    32   6 C        2.913    -0.046    29.142     8.852
    33   6 C        2.974     0.004    27.923     8.668
    34   6 C        2.967    -0.006    28.173     8.706
    35   1 H        0.925     0.049     2.328     2.386
    36   1 H        0.925     0.045     2.383     2.414
    37   1 H        0.925     0.049     2.330     2.387
    38   1 H        0.925     0.054     2.268     2.355
    39   1 H        0.925     0.051     2.308     2.376
    40   1 H        0.925     0.036     2.497     2.471
    41   1 H        0.926     0.049     2.331     2.388
    42   1 H        0.926     0.039     2.456     2.451
    43   1 H        0.926     0.040     2.454     2.450
    44   1 H        0.926     0.040     2.453     2.449
    45   1 H        0.926     0.048     2.343     2.394
    46   1 H        0.926     0.049     2.329     2.387
    47   1 H        0.926     0.048     2.348     2.396
    48   1 H        0.926     0.049     2.330     2.387
    49   1 H        0.926     0.047     2.351     2.398
    50   1 H        0.926     0.034     2.535     2.490
    51   1 H        0.926     0.029     2.605     2.524
    52   1 H        0.926     0.022     2.706     2.572
    53   1 H        0.926     0.029     2.593     2.518
    54   1 H        0.925     0.017     2.774     2.604
    55   1 H        0.925     0.017     2.780     2.607
    56   1 H        0.926     0.029     2.602     2.522
    57   1 H        0.926     0.030     2.588     2.516
    58   1 H        0.926     0.054     2.271     2.357

molecular dipole:
                 x           y           z       tot (Debye)
 q only:       -7.953       0.632       0.045
   full:       -8.274       0.594       0.061      21.085

 projected vibrational frequencies (cm⁻¹)
eigval :       -0.00     0.00     0.00     0.00     0.00     0.00
eigval :        9.05    13.29    27.94    37.26    38.38    52.97
eigval :       69.21    73.48    91.53   112.05   119.02   139.42
eigval :      148.20   158.79   172.86   181.96   195.25   207.36
eigval :      224.54   238.19   252.31   281.68   304.76   309.67
eigval :      337.97   339.57   351.22   363.59   369.15   372.04
eigval :      385.82   399.28   407.86   420.33   465.25   474.60
eigval :      482.87   496.24   503.63   513.77   523.30   525.79
eigval :      533.49   557.63   570.29   585.52   592.54   604.68
eigval :      610.50   623.36   627.01   653.48   659.27   672.99
eigval :      693.91   706.41   711.73   755.34   767.58   771.39
eigval :      773.87   785.08   796.16   804.51   815.68   822.80
eigval :      827.11   866.42   871.65   882.57   883.55   893.07
eigval :      899.09   902.92   912.63   915.52   917.28   919.63
eigval :      922.05   927.00   933.98   958.70   973.07   984.84
eigval :      991.79  1027.54  1050.62  1055.64  1075.98  1078.67
eigval :     1101.03  1111.24  1121.48  1137.32  1143.58  1152.93
eigval :     1170.67  1176.76  1180.24  1182.02  1186.00  1202.94
eigval :     1207.18  1218.36  1232.28  1250.61  1262.82  1269.63
eigval :     1269.92  1274.44  1281.50  1301.70  1305.96  1308.59
eigval :     1330.18  1340.68  1349.51  1355.03  1386.02  1400.35
eigval :     1415.94  1418.25  1425.66  1428.87  1429.94  1435.47
eigval :     1441.73  1449.17  1451.90  1460.41  1467.77  1480.20
eigval :     1488.38  1494.82  1500.68  1509.94  1511.35  1538.01
eigval :     1550.03  1571.11  1580.38  1584.26  1588.58  2270.57
eigval :     3018.77  3027.67  3035.91  3044.62  3055.44  3060.75
eigval :     3063.16  3067.74  3078.93  3082.26  3083.00  3083.62
eigval :     3084.34  3086.30  3089.71  3090.37  3091.57  3093.98
eigval :     3094.92  3101.90  3102.28  3104.45  3110.20  3150.66

   temp. (K)  partition function   enthalpy   heat capacity  entropy
                                   cal/mol     cal/K/mol   cal/K/mol   J/K/mol
 298.15  VIB  0.179E+13            16229.421    103.915     99.952
         ROT  0.331E+08              888.752      2.981     37.392
         INT  0.594E+20            17118.173    106.895    137.344
         TR   0.882E+28             1481.254      4.968     44.091
         TOT                       18599.4273   111.8636   181.4347   759.1226

       T/K    H(0)-H(T)+PV         H(T)/Eh          T*S/Eh         G(T)/Eh
   ------------------------------------------------------------------------
    298.15    0.296401E-01    0.480637E+00    0.862055E-01    0.394432E+00
   ------------------------------------------------------------------------

         :::::::::::::::::::::::::::::::::::::::::::::::::::::
         ::                  THERMODYNAMIC                  ::
         :::::::::::::::::::::::::::::::::::::::::::::::::::::
         :: total free energy         -86.159227101678 Eh   ::
         ::.................................................::
         :: total energy              -86.553658978334 Eh   ::
         :: zero point energy           0.450997267608 Eh   ::
         :: G(RRHO) w/o ZPVE           -0.056565390952 Eh   ::
         :: G(RRHO) contrib.            0.394431876656 Eh   ::
         :::::::::::::::::::::::::::::::::::::::::::::::::::::

           -------------------------------------------------
          | TOTAL ENERGY              -86.553658978334 Eh   |
          | TOTAL ENTHALPY            -86.073021636674 Eh   |
          | TOTAL FREE ENERGY         -86.159227101678 Eh   |
          | GRADIENT NORM               0.000103455078 Eh/α |
          | HOMO-LUMO GAP               0.608630506895 eV   |
           -------------------------------------------------

 * finished run on 2025/09/04 at 10:39:57.569
