   * xtb version 6.7.1 (edcfbbe) compiled by 'albert@albert-system' on 2024-07-22

   ID    Z sym.   atoms
    1    6 C      1-9, 11-27, 29-34
    2    7 N      10, 28
    3    1 H      35-58

          program call               : xtb data2507/toluene/BAPCN/BAPCN.xyz --gfn 2 --gbsa toluene --ohess vtight --parallel 40 --molden --ceasefiles --namespace data2507/toluene/BAPCN/BAPCN_toluene_S0_preOpt
      * Solvation model:               GBSA
        Solvent                        toluene
        Solvent mass                       9.2140E+01 g/mol
          :  Hamiltonian                  GFN2-xTB          :
 * total energy  :   -86.6029844 Eh     change       -0.2626891E-08 Eh
 * total energy  :   -86.6168328 Eh     change       -0.1384836E-01 Eh
 * total energy  :   -86.6217312 Eh     change       -0.4898420E-02 Eh
 * total energy  :   -86.6230044 Eh     change       -0.1273236E-02 Eh
 * total energy  :   -86.6236596 Eh     change       -0.6552037E-03 Eh
 * total energy  :   -86.6238777 Eh     change       -0.2181280E-03 Eh
 * total energy  :   -86.6240899 Eh     change       -0.2121564E-03 Eh
 * total energy  :   -86.6243095 Eh     change       -0.2195893E-03 Eh
 * total energy  :   -86.6244890 Eh     change       -0.1794758E-03 Eh
 * total energy  :   -86.6245981 Eh     change       -0.1091381E-03 Eh
 * total energy  :   -86.6248726 Eh     change       -0.2823077E-07 Eh
 * total energy  :   -86.6248729 Eh     change       -0.2631016E-06 Eh
 * total energy  :   -86.6248732 Eh     change       -0.3170927E-06 Eh
 * total energy  :   -86.6248732 Eh     change        0.1646242E-07 Eh
 * total energy  :   -86.6248735 Eh     change       -0.2838143E-06 Eh
 * total energy  :   -86.6248734 Eh     change        0.3884564E-07 Eh
 * total energy  :   -86.6248736 Eh     change       -0.2052708E-06 Eh
 * total energy  :   -86.6248737 Eh     change       -0.1126024E-06 Eh
 * total energy  :   -86.6248738 Eh     change       -0.9593526E-07 Eh
   *** GEOMETRY OPTIMIZATION CONVERGED AFTER 55 ITERATIONS ***

 final structure:
================
58
 xtb: 6.7.1 (edcfbbe)
C           -0.54825765156334        3.16674512692237        0.77210521043664
C           -1.31075030240575        1.84437327656097        0.71950044492626
C           -1.73883572080945        1.55112525219009        2.18117013459115
C           -2.57166922086195        1.96085076165805       -0.11432017091738
C           -3.08477291376763        3.15602229070140       -0.59219295375667
C           -4.30512841209097        3.20353021111895       -1.24655668288632
C           -5.03335466701001        2.04208849609772       -1.43100650677038
C           -4.52713014701321        0.83410132086963       -0.99339969571587
C           -3.29398135464417        0.78403630999694       -0.34583366740190
N           -2.74072294101243       -0.42813492515299        0.05035814625884
C           -3.56755783024367       -1.58587498503230       -0.00353141784102
C           -3.55450687590072       -2.43032293059487       -1.10910573333992
C           -4.38149669084294       -3.53889642844464       -1.13952210007050
C           -5.22818958889403       -3.80584215973420       -0.07537501613679
C           -5.24888898187733       -2.96016691923683        1.02106509017261
C           -4.42118467161765       -1.85107444141953        1.05941378332608
C           -1.36165346803934       -0.54465902983896        0.15197618175736
C           -0.79124482200765       -1.83475875281933        0.18864326376922
C            0.55806209630999       -1.99127672729952        0.23238646236733
C            1.40668191976574       -0.87216907697676        0.12117671920894
C            2.79708625081805       -1.05990913851308        0.04474272155021
C            3.66550632020745       -0.00931965443383       -0.13768307304597
C            5.11430414882725       -0.21815744376416       -0.21380561743162
C            5.89925416747652        0.50193419644767       -1.11763998921073
C            7.26175204483863        0.30501772349079       -1.18796080214485
C            7.87464383699252       -0.62351982521778       -0.34255752531194
C            9.26798481103518       -0.82754229734973       -0.40648035403899
N           10.40345679668889       -0.99454394615101       -0.45900438295976
C            7.10071680229922       -1.35065752423075        0.56596720923062
C            5.73921469929256       -1.14613502240545        0.62339825625310
C            3.10612536362147        1.27597964974711       -0.28366903867503
C            1.76165838437882        1.48829020585032       -0.17325331243599
C            0.84323729015465        0.44082128054538        0.08528027421370
C           -0.56076544901083        0.59648302978053        0.25128091121925
H           -0.29847834907710        3.53364886333150       -0.22023336900567
H            0.35188065537602        3.06091869617007        1.37089641663849
H           -1.17494426743973        3.91153348698737        1.26013716602280
H           -2.30722135836267        0.62881627517716        2.25616762952439
H           -0.85603115837359        1.46015701487230        2.81123432816998
H           -2.35643171005855        2.36498163048161        2.55638446724178
H           -2.54661431835138        4.07824414586625       -0.44630004274560
H           -4.68986540870340        4.14964154395660       -1.59749596520423
H           -5.99275003833352        2.07110399509357       -1.92667114635018
H           -5.08611977660436       -0.07450356890004       -1.15854669208681
H           -2.89721032860128       -2.21033545343567       -1.93813744288410
H           -4.36826046815469       -4.19268106027036       -1.99918004379919
H           -5.87349120177301       -4.67115407467647       -0.10307960486569
H           -5.91078423302010       -3.16327180929190        1.84980066001550
H           -4.43591538861785       -1.18395756974694        1.90884446160556
H           -1.43753493545568       -2.69772532576824        0.22405305846173
H            0.99322355121253       -2.97620996518617        0.31876265145890
H            3.17184135830245       -2.07335111978373        0.08338032218694
H            5.43134643418582        1.20829286869419       -1.78682446225747
H            7.86268931378671        0.86038887580225       -1.89367550489320
H            7.57843033182754       -2.06574339646577        1.22021293489639
H            5.14813601082864       -1.69749963796385        1.33922648666130
H            3.75832925547317        2.11581821752241       -0.47470725029619
H            1.40618380684296        2.48444846417484       -0.34981682769093

          :  Hamiltonian                  GFN2-xTB          :
         :: gradient norm              0.000125572620 Eh/a0 ::
         :: HOMO-LUMO gap              1.879337079453 eV    ::
         :: SCC energy               -88.269608138215 Eh    ::
         :: -> dispersion             -0.078415223016 Eh    ::
         :: -> Gsolv                  -0.037900896990 Eh    ::
         :: repulsion energy           1.644734312541 Eh    ::

    * Orbital Energies and Occupations

         #    Occupation            Energy/Eh            Energy/eV
      -------------------------------------------------------------
         1        2.0000           -0.6687939             -18.1988
       ...           ...                  ...                  ...
        69        2.0000           -0.4261743             -11.5968
        70        2.0000           -0.4219137             -11.4809
        71        2.0000           -0.4211800             -11.4609
        72        2.0000           -0.4186083             -11.3909
        73        2.0000           -0.4156523             -11.3105
        74        2.0000           -0.4133446             -11.2477
        75        2.0000           -0.4112668             -11.1911
        76        2.0000           -0.4092196             -11.1354
        77        2.0000           -0.4049597             -11.0195
        78        2.0000           -0.3948775             -10.7452
        79        2.0000           -0.3932093             -10.6998
        80        2.0000           -0.3767148             -10.2509
        81        2.0000           -0.3466674              -9.4333 (HOMO)
        82                         -0.2776031              -7.5540 (LUMO)
        83                         -0.2543351              -6.9208
        84                         -0.2379842              -6.4759
        85                         -0.2359282              -6.4199
        86                         -0.2341085              -6.3704
        87                         -0.2267766              -6.1709
        88                         -0.2184376              -5.9440
        89                         -0.2105834              -5.7303
        90                         -0.2073870              -5.6433
        91                         -0.1881260              -5.1192
        92                         -0.1707706              -4.6469
       ...                                ...                  ...
       160                          1.1608585              31.5886
      -------------------------------------------------------------
                  HL-Gap            0.0690644 Eh            1.8793 eV

     #   Z          covCN         q      C6AA      α(0)
     1   6 C        3.761    -0.106    22.574     6.773
     2   6 C        3.912     0.024    20.109     6.374
     3   6 C        3.768    -0.101    22.473     6.756
     4   6 C        2.985    -0.013    28.333     8.731
     5   6 C        2.923    -0.042    29.031     8.836
     6   6 C        2.918    -0.045    29.121     8.849
     7   6 C        2.919    -0.036    28.884     8.813
     8   6 C        2.921    -0.057    29.414     8.894
     9   6 C        2.940     0.058    26.707     8.476
    10   7 N        2.755    -0.075    22.697     7.076
    11   6 C        2.925     0.068    26.482     8.439
    12   6 C        2.921    -0.038    28.942     8.822
    13   6 C        2.919    -0.028    28.709     8.786
    14   6 C        2.919    -0.030    28.757     8.794
    15   6 C        2.920    -0.028    28.693     8.784
    16   6 C        2.923    -0.038    28.952     8.824
    17   6 C        2.933     0.058    26.689     8.473
    18   6 C        2.917    -0.054    29.348     8.884
    19   6 C        2.920    -0.041    29.030     8.836
    20   6 C        2.990     0.001    28.001     8.680
    21   6 C        2.931    -0.040    28.991     8.830
    22   6 C        2.972     0.001    28.010     8.681
    23   6 C        2.975     0.022    27.507     8.603
    24   6 C        2.923    -0.031    28.764     8.795
    25   6 C        2.924    -0.020    28.508     8.756
    26   6 C        2.973     0.011    27.776     8.645
    27   6 C        1.912     0.117    28.208     8.577
    28   7 N        0.911    -0.283    27.290     7.555
    29   6 C        2.923    -0.020    28.504     8.755
    30   6 C        2.924    -0.031    28.776     8.797
    31   6 C        2.921    -0.039    28.967     8.826
    32   6 C        2.917    -0.045    29.127     8.850
    33   6 C        2.977     0.007    27.857     8.658
    34   6 C        2.974    -0.026    28.646     8.779
    35   1 H        0.925     0.037     2.483     2.464
    36   1 H        0.925     0.046     2.366     2.405
    37   1 H        0.925     0.042     2.417     2.431
    38   1 H        0.925     0.033     2.541     2.493
    39   1 H        0.925     0.037     2.483     2.464
    40   1 H        0.925     0.038     2.482     2.464
    41   1 H        0.926     0.039     2.466     2.456
    42   1 H        0.926     0.026     2.641     2.542
    43   1 H        0.926     0.027     2.635     2.538
    44   1 H        0.926     0.025     2.665     2.553
    45   1 H        0.926     0.040     2.447     2.446
    46   1 H        0.926     0.041     2.435     2.440
    47   1 H        0.926     0.041     2.434     2.440
    48   1 H        0.926     0.042     2.422     2.433
    49   1 H        0.926     0.040     2.445     2.445
    50   1 H        0.926     0.031     2.565     2.505
    51   1 H        0.926     0.031     2.569     2.506
    52   1 H        0.926     0.031     2.570     2.507
    53   1 H        0.926     0.047     2.362     2.403
    54   1 H        0.926     0.039     2.456     2.451
    55   1 H        0.926     0.039     2.457     2.451
    56   1 H        0.926     0.046     2.369     2.407
    57   1 H        0.926     0.031     2.573     2.508
    58   1 H        0.926     0.049     2.332     2.388

molecular dipole:
                 x           y           z       tot (Debye)
 q only:       -2.815       0.005       0.312
   full:       -3.219      -0.057       0.273       8.212

 projected vibrational frequencies (cm⁻¹)
eigval :       -0.00     0.00     0.00     0.00     0.00     0.00
eigval :       18.18    24.40    29.16    37.47    51.14    57.92
eigval :       66.00    79.80    88.35   118.25   130.81   142.75
eigval :      165.87   175.89   186.54   194.22   221.53   233.25
eigval :      236.52   259.65   284.25   303.16   314.24   330.25
eigval :      351.33   366.02   367.27   378.50   386.64   391.75
eigval :      417.82   422.61   434.03   464.87   473.12   475.12
eigval :      489.94   507.57   518.35   521.02   526.19   533.25
eigval :      546.25   562.48   578.70   587.14   591.57   603.27
eigval :      616.70   624.99   645.14   671.32   675.68   691.10
eigval :      694.61   710.90   721.65   756.29   771.51   780.99
eigval :      787.98   798.61   819.53   830.95   833.67   863.81
eigval :      864.46   875.58   877.32   898.59   901.40   903.11
eigval :      906.32   913.37   914.20   918.15   918.76   925.32
eigval :      927.57   930.41   936.36   957.97   973.38   997.74
eigval :     1008.37  1010.81  1057.53  1078.22  1081.25  1088.86
eigval :     1110.98  1114.28  1134.77  1138.55  1147.13  1167.57
eigval :     1177.62  1182.72  1185.96  1187.24  1189.88  1205.72
eigval :     1213.70  1229.12  1236.97  1248.63  1265.60  1267.54
eigval :     1271.81  1275.00  1293.18  1304.27  1308.04  1312.48
eigval :     1315.56  1330.24  1336.07  1371.63  1382.17  1393.96
eigval :     1395.18  1406.14  1413.63  1430.54  1442.15  1449.55
eigval :     1467.92  1478.33  1485.33  1491.37  1491.64  1498.22
eigval :     1524.28  1531.74  1534.83  1544.46  1575.92  1580.73
eigval :     1581.82  1590.08  1591.84  1597.82  1603.21  2355.59
eigval :     3013.27  3020.16  3022.78  3030.52  3048.09  3054.53
eigval :     3066.15  3072.16  3074.73  3075.83  3076.25  3078.28
eigval :     3078.62  3079.97  3081.82  3084.11  3088.30  3091.69
eigval :     3093.68  3093.84  3096.62  3100.81  3112.56  3186.46

   temp. (K)  partition function   enthalpy   heat capacity  entropy
                                   cal/mol     cal/K/mol   cal/K/mol   J/K/mol
 298.15  VIB  0.130E+12            15673.907    102.442     95.066
         ROT  0.329E+08              888.752      2.981     37.375
         INT  0.428E+19            16562.659    105.422    132.441
         TR   0.882E+28             1481.254      4.968     44.091
         TOT                       18043.9134   110.3906   176.5322   738.6108

       T/K    H(0)-H(T)+PV         H(T)/Eh          T*S/Eh         G(T)/Eh
   ------------------------------------------------------------------------
    298.15    0.287548E-01    0.483447E+00    0.838762E-01    0.399571E+00
   ------------------------------------------------------------------------

         :::::::::::::::::::::::::::::::::::::::::::::::::::::
         ::                  THERMODYNAMIC                  ::
         :::::::::::::::::::::::::::::::::::::::::::::::::::::
         :: total free energy         -86.225302964776 Eh   ::
         ::.................................................::
         :: total energy              -86.624873826351 Eh   ::
         :: zero point energy           0.454692213741 Eh   ::
         :: G(RRHO) w/o ZPVE           -0.055121352166 Eh   ::
         :: G(RRHO) contrib.            0.399570861575 Eh   ::
         :::::::::::::::::::::::::::::::::::::::::::::::::::::

           -------------------------------------------------
          | TOTAL ENERGY              -86.624873826351 Eh   |
          | TOTAL ENTHALPY            -86.141426806319 Eh   |
          | TOTAL FREE ENERGY         -86.225302964776 Eh   |
          | GRADIENT NORM               0.000125483844 Eh/α |
          | HOMO-LUMO GAP               1.879337411074 eV   |
           -------------------------------------------------

 * finished run on 2025/09/04 at 10:36:50.185
