   * xtb version 6.7.1 (edcfbbe) compiled by 'albert@albert-system' on 2024-07-22

   ID    Z sym.   atoms
    1    6 C      1-9, 11-27, 29-34
    2    7 N      10, 28
    3    1 H      35-58

          program call               : xtb data2507/toluene/BAPCN/BAPCN_toluene_S0_finalOpt.xtbopt.xyz --gfn 2 --uhf 2 --gbsa toluene --ohess vtight --parallel 40 --molden --ceasefiles --namespace data2507/toluene/BAPCN/BAPCN_toluene_T1_preOpt
      * Solvation model:               GBSA
        Solvent                        toluene
        Solvent mass                       9.2140E+01 g/mol
          :  Hamiltonian                  GFN2-xTB          :
 * total energy  :   -86.5462597 Eh     change       -0.6072796E-08 Eh
 * total energy  :   -86.5511061 Eh     change       -0.4846447E-02 Eh
 * total energy  :   -86.5524297 Eh     change       -0.1323539E-02 Eh
 * total energy  :   -86.5525156 Eh     change       -0.8593858E-04 Eh
 * total energy  :   -86.5527993 Eh     change       -0.2836913E-03 Eh
 * total energy  :   -86.5529620 Eh     change       -0.1626457E-03 Eh
 * total energy  :   -86.5531711 Eh     change       -0.2091802E-03 Eh
 * total energy  :   -86.5532798 Eh     change       -0.1086601E-03 Eh
 * total energy  :   -86.5533743 Eh     change       -0.9451263E-04 Eh
 * total energy  :   -86.5534519 Eh     change       -0.7757899E-04 Eh
 * total energy  :   -86.5536516 Eh     change       -0.8132495E-06 Eh
 * total energy  :   -86.5536523 Eh     change       -0.7332885E-06 Eh
 * total energy  :   -86.5536530 Eh     change       -0.6980606E-06 Eh
 * total energy  :   -86.5536537 Eh     change       -0.7094133E-06 Eh
 * total energy  :   -86.5536545 Eh     change       -0.7737413E-06 Eh
 * total energy  :   -86.5536553 Eh     change       -0.8612985E-06 Eh
 * total energy  :   -86.5536562 Eh     change       -0.8693165E-06 Eh
 * total energy  :   -86.5536571 Eh     change       -0.8995040E-06 Eh
 * total energy  :   -86.5536571 Eh     change       -0.3978826E-08 Eh
   *** GEOMETRY OPTIMIZATION CONVERGED AFTER 44 ITERATIONS ***

 final structure:
================
58
 xtb: 6.7.1 (edcfbbe)
C           -1.29706486403540        2.67439719303184       -1.49235170021492
C           -1.60976971600435        2.07649452928489       -0.09646838712255
C           -1.11906566049549        2.98233344209830        1.06539480605842
C           -3.12031631313952        2.02857731243869       -0.02657511416450
C           -3.83802968338716        3.21737543012582       -0.01194606531475
C           -5.22030096871596        3.23257683978001        0.01754926751381
C           -5.91939297379553        2.03163160378334        0.03057977231079
C           -5.23590750330614        0.83869084557205        0.02018822211039
C           -3.83102643055384        0.81985029410891       -0.00708025524548
N           -3.15247043722305       -0.37511725211959       -0.00579281329069
C           -3.92125499793005       -1.57955306542917        0.01734374696216
C           -4.30458728883283       -2.17569660810232       -1.17702948708728
C           -5.06732096845827       -3.33067985439722       -1.15024381386266
C           -5.44542464505399       -3.88761138658836        0.06066779015985
C           -5.06019000545804       -3.29041500509134        1.25014178830159
C           -4.29752866612411       -2.13549687227328        1.23356169416890
C           -1.78208591144889       -0.46276803173911        0.00141431409310
C           -1.19182342665727       -1.73766717913611        0.04089853455622
C            0.16161783538652       -1.88643489613132        0.05148546190601
C            1.02269942084763       -0.75114458313431        0.02113954994379
C            2.39361390993125       -0.92119927638510        0.03501151144121
C            3.30726333511725        0.17338932775590        0.01472816615975
C            4.72361968456494       -0.01221086290915        0.02189413563431
C            5.61400871987894        1.02314365870796        0.41117682963667
C            6.96728245690195        0.84420132805591        0.42891667830208
C            7.53477489729168       -0.39037255741615        0.04260983934832
C            8.91429276413890       -0.57655805398755        0.05679749709728
N           10.06114781482558       -0.73007034253456        0.06791131913940
C            6.66777782661747       -1.43082804892182       -0.35633672969039
C            5.31486616995814       -1.24660119062581       -0.35730884191656
C            2.71561913092485        1.45341437334702       -0.02624642591232
C            1.36565808976718        1.64331194669366       -0.05263784229306
C            0.42997546191899        0.55555293202843       -0.01991701686944
C           -0.96112752325839        0.70893549000301       -0.02529135860366
H           -1.64736580487262        3.70100832253606       -1.55337220781333
H           -1.81272114781888        2.09302949976775       -2.25565657681841
H           -0.23604715483942        2.64799563170560       -1.71552669526937
H           -1.93412079287503        3.17036205774397        1.76134825423696
H           -0.32068267863611        2.50586667709512        1.62612040365456
H           -0.76320169260350        3.94082204819440        0.69670921645539
H           -3.30546606918759        4.15558179479281       -0.01910453988607
H           -5.75094069099457        4.17215822878390        0.02856974347117
H           -6.99874587672388        2.03023408893360        0.05044013581097
H           -5.78178525055012       -0.09102006821006        0.03301418457579
H           -4.00472220209547       -1.73303927927184       -2.11525898349683
H           -5.36650650255484       -3.79459734179972       -2.07795788303828
H           -6.04101615128241       -4.78775389314307        0.07761302079303
H           -5.35382509858957       -3.72280433262629        2.19469402437891
H           -3.99182733335976       -1.66146566565520        2.15442445127474
H           -1.82311128296086       -2.61182347716475        0.06382281069860
H            0.60328871098034       -2.87086195399433        0.08200682768951
H            2.77443809858045       -1.92873794082595        0.09852923700130
H            5.21628568817559        1.97036748603901        0.74231337444257
H            7.62431671525030        1.64293053749478        0.74570316898429
H            7.09522138026550       -2.37528670589303       -0.66533436714585
H            4.68458402561683       -2.05498779766489       -0.69489814881713
H            3.35087256261094        2.32517054770778       -0.08017179551265
H            1.01377462291841        2.65724073942178       -0.10588761599172

          :  Hamiltonian                  GFN2-xTB          :
         :: gradient norm              0.000066231443 Eh/a0 ::
         :: HOMO-LUMO gap              0.606349087748 eV    ::
         :: SCC energy               -88.181582644561 Eh    ::
         :: -> dispersion             -0.078169274846 Eh    ::
         :: -> Gsolv                  -0.045558401586 Eh    ::
         :: repulsion energy           1.627925540782 Eh    ::

    * Orbital Energies and Occupations

         #    Occupation            Energy/Eh            Energy/eV
      -------------------------------------------------------------
         1        2.0000           -0.6880176             -18.7219
       ...           ...                  ...                  ...
        70        2.0000           -0.4220362             -11.4842
        71        2.0000           -0.4202774             -11.4363
        72        2.0000           -0.4182138             -11.3802
        73        2.0000           -0.4159370             -11.3182
        74        2.0000           -0.4137215             -11.2579
        75        2.0000           -0.4096376             -11.1468
        76        2.0000           -0.4052375             -11.0271
        77        2.0000           -0.4033387             -10.9754
        78        2.0000           -0.4021671             -10.9435
        79        2.0000           -0.3882935             -10.5660
        80        2.0000           -0.3805326             -10.3548
        81        1.0000           -0.3526124              -9.5951
        82        1.0000           -0.2754950              -7.4966 (HOMO)
        83        0.0000           -0.2532120              -6.8903 (LUMO)
        84                         -0.2447096              -6.6589
        85                         -0.2425330              -6.5997
        86                         -0.2325223              -6.3273
        87                         -0.2309062              -6.2833
        88                         -0.2167276              -5.8975
        89                         -0.2111635              -5.7461
        90                         -0.1898331              -5.1656
        91                         -0.1891093              -5.1459
        92                         -0.1633238              -4.4443
        93                         -0.1238674              -3.3706
       ...                                ...                  ...
       160                          1.1680774              31.7850
      -------------------------------------------------------------
                  HL-Gap            0.0222830 Eh            0.6064 eV

     #   Z          covCN         q      C6AA      α(0)
     1   6 C        3.765    -0.104    22.521     6.764
     2   6 C        3.906     0.025    20.090     6.371
     3   6 C        3.756    -0.110    22.647     6.785
     4   6 C        2.986    -0.003    28.084     8.693
     5   6 C        2.925    -0.035    28.868     8.811
     6   6 C        2.917    -0.035    28.874     8.812
     7   6 C        2.918    -0.029    28.731     8.790
     8   6 C        2.921    -0.050    29.252     8.869
     9   6 C        2.932     0.055    26.769     8.485
    10   7 N        2.756    -0.010    21.458     6.880
    11   6 C        2.934     0.062    26.603     8.459
    12   6 C        2.920    -0.035    28.861     8.810
    13   6 C        2.920    -0.025    28.616     8.772
    14   6 C        2.919    -0.027    28.664     8.780
    15   6 C        2.920    -0.024    28.615     8.772
    16   6 C        2.920    -0.035    28.860     8.810
    17   6 C        2.923     0.047    26.948     8.513
    18   6 C        2.913    -0.055    29.368     8.886
    19   6 C        2.919    -0.047    29.172     8.857
    20   6 C        2.978     0.008    27.831     8.654
    21   6 C        2.925    -0.059    29.461     8.901
    22   6 C        2.966     0.007    27.869     8.659
    23   6 C        2.968    -0.004    28.114     8.697
    24   6 C        2.918    -0.039    28.966     8.826
    25   6 C        2.918    -0.031    28.773     8.796
    26   6 C        2.969    -0.012    28.308     8.727
    27   6 C        1.910     0.103    28.558     8.630
    28   7 N        0.911    -0.343    28.822     7.765
    29   6 C        2.918    -0.030    28.761     8.794
    30   6 C        2.918    -0.038    28.953     8.824
    31   6 C        2.916    -0.035    28.881     8.813
    32   6 C        2.913    -0.046    29.140     8.852
    33   6 C        2.974     0.004    27.923     8.668
    34   6 C        2.967    -0.006    28.173     8.706
    35   1 H        0.925     0.051     2.308     2.376
    36   1 H        0.925     0.036     2.496     2.471
    37   1 H        0.925     0.054     2.271     2.356
    38   1 H        0.925     0.045     2.385     2.415
    39   1 H        0.925     0.049     2.326     2.385
    40   1 H        0.925     0.049     2.328     2.386
    41   1 H        0.926     0.049     2.331     2.388
    42   1 H        0.926     0.039     2.456     2.451
    43   1 H        0.926     0.040     2.454     2.450
    44   1 H        0.926     0.040     2.453     2.449
    45   1 H        0.926     0.048     2.350     2.397
    46   1 H        0.926     0.049     2.330     2.387
    47   1 H        0.926     0.048     2.348     2.396
    48   1 H        0.926     0.049     2.329     2.387
    49   1 H        0.926     0.048     2.344     2.394
    50   1 H        0.926     0.034     2.535     2.490
    51   1 H        0.926     0.029     2.605     2.524
    52   1 H        0.926     0.022     2.706     2.572
    53   1 H        0.926     0.030     2.593     2.518
    54   1 H        0.925     0.017     2.773     2.604
    55   1 H        0.925     0.017     2.780     2.607
    56   1 H        0.926     0.029     2.602     2.522
    57   1 H        0.926     0.030     2.588     2.516
    58   1 H        0.926     0.054     2.274     2.358

molecular dipole:
                 x           y           z       tot (Debye)
 q only:       -7.952       0.616      -0.075
   full:       -8.274       0.577      -0.092      21.082

 projected vibrational frequencies (cm⁻¹)
eigval :       -0.00    -0.00     0.00     0.00     0.00     0.00
eigval :       10.13    18.62    29.93    38.00    43.68    51.96
eigval :       67.84    73.84    94.38   109.26   117.10   140.46
eigval :      149.28   160.36   174.78   180.26   193.72   209.10
eigval :      225.21   237.78   252.97   283.61   306.60   309.83
eigval :      336.79   338.13   352.63   365.23   369.62   373.17
eigval :      384.62   397.18   409.73   420.08   466.02   474.86
eigval :      482.59   497.24   503.68   513.63   522.98   525.26
eigval :      533.55   558.32   569.52   585.24   592.55   604.88
eigval :      610.62   622.42   627.39   654.39   659.43   672.70
eigval :      693.44   705.34   711.75   755.18   768.50   771.85
eigval :      774.55   787.11   795.78   805.06   817.02   822.84
eigval :      828.08   867.41   871.87   882.69   884.30   899.01
eigval :      899.31   906.83   912.65   916.40   917.65   919.15
eigval :      922.76   926.31   933.51   958.44   972.88   984.99
eigval :      991.81  1026.75  1050.87  1055.92  1076.73  1078.79
eigval :     1101.24  1112.91  1121.11  1137.85  1143.89  1153.16
eigval :     1171.05  1176.54  1180.97  1183.11  1186.18  1202.96
eigval :     1207.55  1218.53  1232.54  1250.65  1262.71  1269.79
eigval :     1270.90  1274.28  1281.60  1301.78  1305.93  1308.81
eigval :     1330.24  1340.64  1349.47  1355.03  1386.10  1400.86
eigval :     1416.25  1418.47  1425.67  1428.79  1430.17  1435.60
eigval :     1441.74  1449.20  1451.96  1460.66  1467.97  1480.15
eigval :     1488.57  1495.23  1500.77  1509.51  1510.95  1537.91
eigval :     1549.97  1571.05  1580.43  1584.33  1588.53  2270.53
eigval :     3018.79  3027.31  3035.49  3044.16  3058.86  3061.15
eigval :     3063.49  3068.02  3078.69  3082.31  3082.58  3083.52
eigval :     3084.03  3086.59  3089.19  3090.36  3091.55  3094.04
eigval :     3094.49  3101.60  3102.33  3104.44  3110.27  3148.56

   temp. (K)  partition function   enthalpy   heat capacity  entropy
                                   cal/mol     cal/K/mol   cal/K/mol   J/K/mol
 298.15  VIB  0.959E+12            16202.501    104.006     99.449
         ROT  0.331E+08              888.752      2.981     37.392
         INT  0.318E+20            17091.254    106.987    136.842
         TR   0.882E+28             1481.254      4.968     44.091
         TOT                       18572.5077   111.9555   180.9325   757.0214

       T/K    H(0)-H(T)+PV         H(T)/Eh          T*S/Eh         G(T)/Eh
   ------------------------------------------------------------------------
    298.15    0.295972E-01    0.480700E+00    0.859668E-01    0.394733E+00
   ------------------------------------------------------------------------

         :::::::::::::::::::::::::::::::::::::::::::::::::::::
         ::                  THERMODYNAMIC                  ::
         :::::::::::::::::::::::::::::::::::::::::::::::::::::
         :: total free energy         -86.158923936452 Eh   ::
         ::.................................................::
         :: total energy              -86.553657111339 Eh   ::
         :: zero point energy           0.451102848978 Eh   ::
         :: G(RRHO) w/o ZPVE           -0.056369674092 Eh   ::
         :: G(RRHO) contrib.            0.394733174886 Eh   ::
         :::::::::::::::::::::::::::::::::::::::::::::::::::::

           -------------------------------------------------
          | TOTAL ENERGY              -86.553657111339 Eh   |
          | TOTAL ENTHALPY            -86.072957087384 Eh   |
          | TOTAL FREE ENERGY         -86.158923936452 Eh   |
          | GRADIENT NORM               0.000066095939 Eh/α |
          | HOMO-LUMO GAP               0.606350636952 eV   |
           -------------------------------------------------

 * finished run on 2025/09/04 at 10:38:15.004
