   * xtb version 6.7.1 (edcfbbe) compiled by 'albert@albert-system' on 2024-07-22

   ID    Z sym.   atoms
    1    6 C      1-9, 11-27, 29-34
    2    7 N      10, 28
    3    1 H      35-58

          program call               : xtb data2507/toluene/BAPCN/BAPCN_toluene_S0_crest.xyz --gfn 2 --gbsa toluene --ohess vtight --parallel 40 --molden --ceasefiles --namespace data2507/toluene/BAPCN/BAPCN_toluene_S0_finalOpt
      * Solvation model:               GBSA
        Solvent                        toluene
        Solvent mass                       9.2140E+01 g/mol
          :  Hamiltonian                  GFN2-xTB          :
 * total energy  :   -86.6314594 Eh     change       -0.1337057E-08 Eh
 * total energy  :   -86.6314792 Eh     change       -0.1982176E-04 Eh
 * total energy  :   -86.6314693 Eh     change        0.9903402E-05 Eh
 * total energy  :   -86.6314837 Eh     change       -0.1440275E-04 Eh
 * total energy  :   -86.6314863 Eh     change       -0.2584524E-05 Eh
 * total energy  :   -86.6314889 Eh     change       -0.2544741E-05 Eh
 * total energy  :   -86.6314911 Eh     change       -0.2227397E-05 Eh
 * total energy  :   -86.6314945 Eh     change       -0.3468852E-05 Eh
 * total energy  :   -86.6314991 Eh     change       -0.4508318E-05 Eh
 * total energy  :   -86.6315025 Eh     change       -0.3437959E-05 Eh
 * total energy  :   -86.6315124 Eh     change       -0.2662114E-05 Eh
 * total energy  :   -86.6315143 Eh     change       -0.1907938E-05 Eh
 * total energy  :   -86.6315159 Eh     change       -0.1591730E-05 Eh
 * total energy  :   -86.6315173 Eh     change       -0.1373938E-05 Eh
 * total energy  :   -86.6315180 Eh     change       -0.7293009E-06 Eh
 * total energy  :   -86.6315185 Eh     change       -0.4192376E-06 Eh
 * total energy  :   -86.6315188 Eh     change       -0.3298976E-06 Eh
 * total energy  :   -86.6315192 Eh     change       -0.3996582E-06 Eh
 * total energy  :   -86.6315192 Eh     change       -0.5381807E-08 Eh
   *** GEOMETRY OPTIMIZATION CONVERGED AFTER 22 ITERATIONS ***

 final structure:
================
58
 xtb: 6.7.1 (edcfbbe)
C           -1.31709495317520        2.65614624979561       -1.54582108142321
C           -1.60917912819179        2.08530371231398       -0.13860251694754
C           -1.09653982024933        3.00469984716518        1.00145409221603
C           -3.12448411380040        2.03176811472407       -0.03554080888131
C           -3.84041021628856        3.22159305594006       -0.02825389604121
C           -5.22207237552872        3.24224476045721        0.02955698560711
C           -5.91596879297206        2.04585979176481        0.07876868903714
C           -5.22744318272442        0.85042989717139        0.07402635550812
C           -3.83092109057324        0.83022867487235        0.01699534028900
N           -3.14860134288285       -0.37459802947762        0.01655028371578
C           -3.91085831347021       -1.58017309254532        0.03746877985985
C           -4.27255832342471       -2.18749056755576       -1.15850691366267
C           -5.03125533960523       -3.34515054028749       -1.14064214750838
C           -5.42954297895751       -3.89691165139262        0.06600714416180
C           -5.06826173863698       -3.29118484423136        1.25865450232460
C           -4.30963168804777       -2.13368526704407        1.24832867870585
C           -1.76704021008841       -0.43410713463517        0.02616583104373
C           -1.17578732325236       -1.71843824929066        0.10821651723288
C            0.17277087129937       -1.87131783710220        0.12263263771241
C            1.01980589973840       -0.74758290353207        0.04736733768183
C            2.41456301915895       -0.91947587554190        0.05155226893417
C            3.27811476472433        0.14851599288668       -0.01590266520493
C            4.73207240672303       -0.03506987244109        0.00698046720923
C            5.55146000317699        0.85870469903192        0.70132668733195
C            6.91889824105490        0.68995148701968        0.73360173856646
C            7.50222526403814       -0.38689372954806        0.06067102368664
C            8.90048658661984       -0.56300922549461        0.08793334151390
N           10.04051778441286       -0.70370227429366        0.11062351074822
C            6.69428040104363       -1.28732624347606       -0.63892654871486
C            5.32796851330657       -1.10821524184231       -0.66053874025358
C            2.71406574914093        1.43835582105679       -0.10112032271982
C            1.36300814133313        1.62962015646085       -0.11474462808689
C            0.44262604804254        0.55258921768271       -0.03469448003882
C           -0.97337199808661        0.70412073659209       -0.03706962961126
H           -1.66012503864513        3.68509057463098       -1.61985568158517
H           -1.85557401928408        2.06699412152837       -2.28766650219514
H           -0.26238015143822        2.61892568160058       -1.79663565729211
H           -1.91398300154945        3.25512556531374        1.67505455011309
H           -0.33373425556125        2.50904827708078        1.59539851836690
H           -0.68803667092205        3.93480706879006        0.61310975285828
H           -3.30651119892408        4.15924350503164       -0.06681801206973
H           -5.75082531087585        4.18374157552152        0.03269124972120
H           -6.99542981190177        2.04002214189033        0.12193589812640
H           -5.77464005624284       -0.07876811036057        0.11323691630568
H           -3.95794092586323       -1.74747276678148       -2.09362262647777
H           -5.31277412852899       -3.81557506428895       -2.07110720033402
H           -6.02276926646206       -4.79910160023666        0.07721442492785
H           -5.37875237645963       -3.71969004010905        2.20009388104563
H           -4.02414096266915       -1.65187076309435        2.17220819961542
H           -1.81555308597683       -2.58532792389876        0.16262388838745
H            0.61068170965022       -2.85683312318468        0.18823305422145
H            2.79903121507019       -1.92593307468946        0.14063911647295
H            5.10644125080159        1.68226323660880        1.23937782194782
H            7.54655335645348        1.38107402036345        1.27762054231197
H            7.14989065036005       -2.11586607728625       -1.16191485107343
H            4.71063176528262       -1.79690249224896       -1.21763621389044
H            3.36951262792691        2.29335228468614       -0.18438557568183
H            1.00876958860172        2.64158057553035       -0.18804953861309

          :  Hamiltonian                  GFN2-xTB          :
         :: gradient norm              0.000128249252 Eh/a0 ::
         :: HOMO-LUMO gap              1.806477984382 eV    ::
         :: SCC energy               -88.277077746019 Eh    ::
         :: -> dispersion             -0.078413404857 Eh    ::
         :: -> Gsolv                  -0.037978694207 Eh    ::
         :: repulsion energy           1.645558558601 Eh    ::

    * Orbital Energies and Occupations

         #    Occupation            Energy/Eh            Energy/eV
      -------------------------------------------------------------
         1        2.0000           -0.6689128             -18.2020
       ...           ...                  ...                  ...
        69        2.0000           -0.4256529             -11.5826
        70        2.0000           -0.4221547             -11.4874
        71        2.0000           -0.4218488             -11.4791
        72        2.0000           -0.4191717             -11.4062
        73        2.0000           -0.4164207             -11.3314
        74        2.0000           -0.4127112             -11.2304
        75        2.0000           -0.4118979             -11.2083
        76        2.0000           -0.4076523             -11.0928
        77        2.0000           -0.4014233             -10.9233
        78        2.0000           -0.3955165             -10.7626
        79        2.0000           -0.3930893             -10.6965
        80        2.0000           -0.3815358             -10.3821
        81        2.0000           -0.3442172              -9.3666 (HOMO)
        82                         -0.2778304              -7.5601 (LUMO)
        83                         -0.2541098              -6.9147
        84                         -0.2380691              -6.4782
        85                         -0.2360283              -6.4227
        86                         -0.2347010              -6.3865
        87                         -0.2273619              -6.1868
        88                         -0.2181865              -5.9372
        89                         -0.2106156              -5.7311
        90                         -0.2046919              -5.5699
        91                         -0.1847508              -5.0273
        92                         -0.1700918              -4.6284
       ...                                ...                  ...
       160                          1.1608281              31.5877
      -------------------------------------------------------------
                  HL-Gap            0.0663868 Eh            1.8065 eV

     #   Z          covCN         q      C6AA      α(0)
     1   6 C        3.763    -0.103    22.509     6.763
     2   6 C        3.905     0.022    20.151     6.381
     3   6 C        3.756    -0.107    22.606     6.779
     4   6 C        2.986    -0.014    28.355     8.735
     5   6 C        2.928    -0.039    28.981     8.829
     6   6 C        2.917    -0.046    29.154     8.854
     7   6 C        2.920    -0.035    28.882     8.813
     8   6 C        2.923    -0.060    29.481     8.904
     9   6 C        2.931     0.058    26.697     8.474
    10   7 N        2.756    -0.072    22.630     7.065
    11   6 C        2.928     0.069    26.459     8.436
    12   6 C        2.921    -0.038    28.936     8.821
    13   6 C        2.920    -0.027    28.687     8.783
    14   6 C        2.919    -0.030    28.746     8.792
    15   6 C        2.920    -0.028    28.692     8.784
    16   6 C        2.921    -0.038    28.935     8.821
    17   6 C        2.922     0.060    26.662     8.468
    18   6 C        2.920    -0.054    29.345     8.883
    19   6 C        2.919    -0.040    28.985     8.829
    20   6 C        2.989     0.001    28.001     8.680
    21   6 C        2.929    -0.039    28.977     8.828
    22   6 C        2.972     0.001    28.007     8.681
    23   6 C        2.975     0.022    27.511     8.604
    24   6 C        2.923    -0.031    28.766     8.795
    25   6 C        2.924    -0.020    28.508     8.756
    26   6 C        2.973     0.011    27.777     8.645
    27   6 C        1.912     0.117    28.209     8.578
    28   7 N        0.911    -0.283    27.292     7.556
    29   6 C        2.923    -0.020    28.504     8.755
    30   6 C        2.923    -0.031    28.776     8.797
    31   6 C        2.921    -0.039    28.960     8.825
    32   6 C        2.917    -0.045    29.105     8.847
    33   6 C        2.979     0.006    27.879     8.661
    34   6 C        2.969    -0.026    28.655     8.781
    35   1 H        0.925     0.040     2.452     2.449
    36   1 H        0.925     0.028     2.615     2.529
    37   1 H        0.925     0.045     2.387     2.416
    38   1 H        0.925     0.037     2.494     2.470
    39   1 H        0.925     0.041     2.429     2.437
    40   1 H        0.925     0.040     2.452     2.449
    41   1 H        0.926     0.035     2.514     2.480
    42   1 H        0.926     0.025     2.664     2.552
    43   1 H        0.926     0.025     2.652     2.547
    44   1 H        0.926     0.025     2.664     2.552
    45   1 H        0.926     0.041     2.436     2.441
    46   1 H        0.926     0.042     2.416     2.431
    47   1 H        0.926     0.042     2.423     2.434
    48   1 H        0.926     0.042     2.417     2.431
    49   1 H        0.926     0.042     2.428     2.437
    50   1 H        0.926     0.031     2.575     2.510
    51   1 H        0.926     0.032     2.559     2.502
    52   1 H        0.926     0.031     2.565     2.505
    53   1 H        0.926     0.047     2.358     2.401
    54   1 H        0.926     0.039     2.457     2.451
    55   1 H        0.926     0.039     2.458     2.452
    56   1 H        0.926     0.046     2.371     2.408
    57   1 H        0.926     0.031     2.576     2.510
    58   1 H        0.926     0.052     2.298     2.371

molecular dipole:
                 x           y           z       tot (Debye)
 q only:       -2.708      -0.165      -0.041
   full:       -3.105      -0.196      -0.052       7.908

 projected vibrational frequencies (cm⁻¹)
eigval :       -0.00    -0.00     0.00     0.00     0.00     0.00
eigval :       19.30    27.15    30.88    35.02    53.12    56.57
eigval :       64.36    78.53   100.17   112.92   122.12   149.47
eigval :      152.79   158.49   176.63   178.81   193.37   216.11
eigval :      229.70   248.73   252.74   283.90   311.25   328.14
eigval :      347.67   348.40   359.78   368.73   369.14   387.06
eigval :      390.72   407.56   422.81   440.74   476.41   479.72
eigval :      484.06   505.17   519.14   530.14   534.51   537.65
eigval :      551.89   564.24   588.43   588.89   591.66   605.17
eigval :      616.03   628.24   645.79   667.01   674.49   692.02
eigval :      695.40   714.95   726.51   757.86   779.67   785.01
eigval :      797.65   804.51   821.74   831.46   844.19   865.95
eigval :      867.98   875.81   880.93   899.17   902.27   909.67
eigval :      915.18   915.50   917.60   924.42   924.75   927.05
eigval :      928.26   934.82   935.54   967.74   972.55   994.65
eigval :     1008.68  1031.64  1065.35  1078.46  1081.63  1089.01
eigval :     1110.79  1113.75  1136.89  1144.75  1147.29  1163.52
eigval :     1178.20  1185.46  1185.93  1186.68  1191.53  1203.61
eigval :     1212.83  1230.01  1236.23  1245.88  1259.39  1267.47
eigval :     1270.22  1274.11  1293.28  1305.93  1307.77  1312.18
eigval :     1319.66  1333.12  1336.31  1374.91  1396.26  1402.70
eigval :     1406.37  1408.73  1423.01  1430.61  1438.00  1459.31
eigval :     1470.46  1484.08  1487.22  1490.76  1492.32  1501.92
eigval :     1508.99  1516.27  1542.03  1547.52  1576.83  1581.18
eigval :     1585.89  1591.79  1593.39  1601.50  1609.71  2355.47
eigval :     3012.76  3020.72  3027.47  3035.82  3051.13  3067.53
eigval :     3068.11  3071.18  3073.62  3075.17  3076.74  3078.09
eigval :     3078.71  3079.29  3079.97  3085.12  3088.94  3090.79
eigval :     3091.97  3094.01  3096.82  3100.64  3102.61  3151.39

   temp. (K)  partition function   enthalpy   heat capacity  entropy
                                   cal/mol     cal/K/mol   cal/K/mol   J/K/mol
 298.15  VIB  0.190E+12            15876.518    102.704     96.693
         ROT  0.331E+08              888.752      2.981     37.387
         INT  0.626E+19            16765.270    105.685    134.081
         TR   0.882E+28             1481.254      4.968     44.091
         TOT                       18246.5239   110.6533   178.1717   745.4702

       T/K    H(0)-H(T)+PV         H(T)/Eh          T*S/Eh         G(T)/Eh
   ------------------------------------------------------------------------
    298.15    0.290777E-01    0.483585E+00    0.846551E-01    0.398930E+00
   ------------------------------------------------------------------------

         :::::::::::::::::::::::::::::::::::::::::::::::::::::
         ::                  THERMODYNAMIC                  ::
         :::::::::::::::::::::::::::::::::::::::::::::::::::::
         :: total free energy         -86.232589157076 Eh   ::
         ::.................................................::
         :: total energy              -86.631519194975 Eh   ::
         :: zero point energy           0.454507458545 Eh   ::
         :: G(RRHO) w/o ZPVE           -0.055577420646 Eh   ::
         :: G(RRHO) contrib.            0.398930037899 Eh   ::
         :::::::::::::::::::::::::::::::::::::::::::::::::::::

           -------------------------------------------------
          | TOTAL ENERGY              -86.631519194975 Eh   |
          | TOTAL ENTHALPY            -86.147934049702 Eh   |
          | TOTAL FREE ENERGY         -86.232589157076 Eh   |
          | GRADIENT NORM               0.000128179566 Eh/α |
          | HOMO-LUMO GAP               1.806477795204 eV   |
           -------------------------------------------------

 * finished run on 2025/09/04 at 10:38:11.238
