   * xtb version 6.7.1 (edcfbbe) compiled by 'albert@albert-system' on 2024-07-22

   ID    Z sym.   atoms
    1    6 C      1-12, 14-27, 29-43, 45
    2    7 N      13, 28, 44
    3    1 H      46-70

          program call               : xtb data2507/toluene/Cz2ICz/Cz2ICz_toluene_T1_crest.xyz --gfn 2 --uhf 2 --gbsa toluene --ohess vtight --parallel 40 --molden --ceasefiles --namespace data2507/toluene/Cz2ICz/Cz2ICz_toluene_T1_finalOpt
      * Solvation model:               GBSA
        Solvent                        toluene
        Solvent mass                       9.2140E+01 g/mol
          :  Hamiltonian                  GFN2-xTB          :
 * total energy  :  -111.5222456 Eh     change       -0.8907648E-08 Eh
 * total energy  :  -111.5222716 Eh     change       -0.2593158E-04 Eh
 * total energy  :  -111.5222810 Eh     change       -0.9469098E-05 Eh
 * total energy  :  -111.5222838 Eh     change       -0.2792716E-05 Eh
 * total energy  :  -111.5222853 Eh     change       -0.1503161E-05 Eh
 * total energy  :  -111.5222862 Eh     change       -0.9070147E-06 Eh
 * total energy  :  -111.5222870 Eh     change       -0.7331170E-06 Eh
 * total energy  :  -111.5222877 Eh     change       -0.7823625E-06 Eh
 * total energy  :  -111.5222888 Eh     change       -0.1077575E-05 Eh
 * total energy  :  -111.5222903 Eh     change       -0.1447026E-05 Eh
 * total energy  :  -111.5222950 Eh     change       -0.4538530E-06 Eh
 * total energy  :  -111.5222956 Eh     change       -0.5609442E-06 Eh
 * total energy  :  -111.5222963 Eh     change       -0.6575900E-06 Eh
 * total energy  :  -111.5222970 Eh     change       -0.7425908E-06 Eh
 * total energy  :  -111.5222972 Eh     change       -0.1907893E-06 Eh
 * total energy  :  -111.5222976 Eh     change       -0.3622310E-06 Eh
 * total energy  :  -111.5222975 Eh     change        0.2858421E-07 Eh
 * total energy  :  -111.5222977 Eh     change       -0.1293689E-06 Eh
 * total energy  :  -111.5222977 Eh     change       -0.8789227E-07 Eh
   *** GEOMETRY OPTIMIZATION CONVERGED AFTER 26 ITERATIONS ***

 final structure:
================
70
 xtb: 6.7.1 (edcfbbe)
C            8.46644591132105        1.25994513283733       -2.22919745782780
C            7.15883867774418        1.62795056439841       -2.53746245983258
C            6.08145897932335        1.12022161544852       -1.83297363142172
C            6.34280675979282        0.23666248284472       -0.79461428609726
C            7.66651481578407       -0.16981329522347       -0.49926110611925
C            8.73160846042197        0.35271973786419       -1.21904061017000
C            7.57017264107554       -1.13121307336786        0.56572151713716
C            8.51080601813460       -1.85423567244666        1.28514240531107
C            8.07158382362269       -2.69256372987922        2.29412521464032
C            6.71680487756383       -2.79705718231520        2.60035056070888
C            5.76120802326448       -2.08482226844659        1.89733629954937
C            6.19204611794880       -1.26729753603884        0.86141652950814
N            5.46152683516532       -0.43398537075058        0.03411291391152
C            4.07642244310738       -0.28817199319100        0.03401925574711
C            3.25938443515105       -1.44693088091509        0.04764289244194
C            1.88413232739859       -1.33817257115172        0.03277345068972
C            1.31067237987741       -0.07730330579683        0.02140383484130
C            2.13974262617601        1.12791358353876        0.01136054166017
C            3.51759444709627        0.98658934580581        0.01215084502786
C            1.26075152660349        2.26381261064459        0.00216400639208
C            1.24013593263460        3.67560688807426       -0.01963927982215
C           -0.00384579236593        4.30890252247519       -0.03610219330578
C           -1.24670758515050        3.67323355192786       -0.03578136061687
C           -1.26484810268807        2.26133499761572       -0.01829260512033
C           -2.14188642426508        1.12399145952855       -0.00385451681393
C           -3.51950129206012        0.98013458520218       -0.01318302472202
C           -4.07580693969201       -0.29586584802570       -0.01318389193544
N           -5.46070003602865       -0.44443826631615       -0.02665871477020
C           -6.17970686307287       -1.29463697468396       -0.84689406688222
C           -5.73474594342271       -2.13244718216261       -1.86039374952554
C           -6.68056682436170       -2.85910539366783       -2.56185064500209
C           -8.03935713119670       -2.74942108953746       -2.27589100760249
C           -8.49233320837694       -1.89161386188530       -1.28964550034601
C           -7.56169121440830       -1.15380565881198       -0.57220800313805
C           -7.67271007835925       -0.17150215158722        0.47202442281584
C           -8.74748860008710        0.36446289438798        1.16712925680534
C           -8.49600624415660        1.29166265577874        2.16253067530520
C           -7.19276430769967        1.66684264209562        2.48060285919136
C           -6.10596181105761        1.14623308968624        1.80044555528530
C           -6.35327493793695        0.24191367213897        0.77666971895207
C           -3.25683066032196       -1.45308589692755        0.00714884342734
C           -1.88189518388450       -1.34147989392567        0.03137804031516
C           -1.31074028103860       -0.07964069024606        0.01836356651240
N           -0.00034751662996        0.31841579510674        0.01758222548437
C           -0.00156599185717        1.69665276752008        0.00086506526308
H            9.28170438722241        1.68106393315867       -2.79866201887488
H            6.97993638641918        2.32064942130217       -3.34642476851624
H            5.07127546252634        1.39493932185477       -2.09516623317569
H            9.74392880630679        0.05088943195943       -0.99692916362897
H            9.56280183476747       -1.75749169423767        1.06346599217415
H            8.78783218609918       -3.26621098705863        2.86352327449153
H            6.40479067464390       -3.44326150093573        3.40740137599238
H            4.71667297305415       -2.15408279094194        2.15883931820979
H            3.72862035325142       -2.41676362594219        0.01492969737793
H            1.26930399707413       -2.22537113545605        0.01681201380770
H            4.15445096723805        1.85791337901940        0.04050429819325
H            2.14716152556880        4.26023345830690       -0.02099816139621
H           -0.00478426370823        5.39192308491548       -0.05103992175466
H           -2.15475464905767        4.25605685654040       -0.05184341801192
H           -4.15756713694502        1.84938955312744       -0.06667152715726
H           -4.68679759239586       -2.20615850721966       -2.10658118182129
H           -6.35763117871027       -3.52070751069588       -3.35196078257095
H           -8.74775051809118       -3.33462204175671       -2.84335929896042
H           -9.54721664229007       -1.79119576597917       -1.08396771787128
H           -9.75669650577328        0.05769005304608        0.93769828899907
H           -9.31885529094242        1.72345487074691        2.71275357223502
H           -7.02495340719902        2.37536400836074        3.27815830169081
H           -5.09937078865818        1.42696449445664        2.06997478846909
H           -3.72486043966931       -2.42278435145681        0.05683143452481
H           -1.26568989452089       -2.22693164333342        0.07194431662160

          :  Hamiltonian                  GFN2-xTB          :
         :: gradient norm              0.000127726587 Eh/a0 ::
         :: HOMO-LUMO gap              0.228002223186 eV    ::
         :: SCC energy              -113.612203070289 Eh    ::
         :: -> dispersion             -0.100063444696 Eh    ::
         :: -> Gsolv                  -0.045391964300 Eh    ::
         :: repulsion energy           2.089905309316 Eh    ::

    * Orbital Energies and Occupations

         #    Occupation            Energy/Eh            Energy/eV
      -------------------------------------------------------------
         1        2.0000           -0.6839874             -18.6122
       ...           ...                  ...                  ...
        93        2.0000           -0.4140561             -11.2670
        94        2.0000           -0.4127725             -11.2321
        95        2.0000           -0.4118126             -11.2060
        96        2.0000           -0.4117407             -11.2040
        97        2.0000           -0.4097809             -11.1507
        98        2.0000           -0.3866002             -10.5199
        99        2.0000           -0.3851997             -10.4818
       100        2.0000           -0.3851856             -10.4814
       101        2.0000           -0.3752581             -10.2113
       102        2.0000           -0.3726321             -10.1398
       103        1.9917           -0.3657102              -9.9515
       104        1.0083           -0.3566145              -9.7040
       105        0.9831           -0.2599001              -7.0722 (HOMO)
       106        0.0085           -0.2515217              -6.8443 (LUMO)
       107        0.0084           -0.2515059              -6.8438
       108                         -0.2354634              -6.4073
       109                         -0.2316954              -6.3048
       110                         -0.2291836              -6.2364
       111                         -0.2291608              -6.2358
       112                         -0.2168527              -5.9009
       113                         -0.1991381              -5.4188
       114                         -0.1927898              -5.2461
       115                         -0.1926327              -5.2418
       116                         -0.1925352              -5.2391
       ...                                ...                  ...
       205                          0.7735832              21.0503
      -------------------------------------------------------------
                  HL-Gap            0.0083784 Eh            0.2280 eV

     #   Z          covCN         q      C6AA      α(0)
     1   6 C        2.919    -0.036    28.887     8.814
     2   6 C        2.923    -0.034    28.843     8.807
     3   6 C        2.909    -0.044    29.096     8.845
     4   6 C        3.071     0.046    26.894     8.503
     5   6 C        3.064    -0.014    28.295     8.723
     6   6 C        2.912    -0.032    28.799     8.800
     7   6 C        3.064    -0.014    28.294     8.722
     8   6 C        2.912    -0.032    28.797     8.799
     9   6 C        2.919    -0.036    28.890     8.814
    10   6 C        2.923    -0.034    28.846     8.808
    11   6 C        2.909    -0.044    29.104     8.846
    12   6 C        3.070     0.046    26.891     8.503
    13   7 N        2.800    -0.016    21.551     6.895
    14   6 C        2.909     0.054    26.790     8.487
    15   6 C        2.920    -0.066    29.649     8.929
    16   6 C        2.904    -0.040    28.985     8.828
    17   6 C        3.067     0.031    27.252     8.560
    18   6 C        3.113    -0.020    28.357     8.723
    19   6 C        2.909    -0.048    29.184     8.858
    20   6 C        3.013    -0.029    28.694     8.787
    21   6 C        2.927    -0.064    29.603     8.923
    22   6 C        2.917    -0.040    28.984     8.828
    23   6 C        2.927    -0.064    29.603     8.923
    24   6 C        3.013    -0.029    28.694     8.787
    25   6 C        3.113    -0.020    28.358     8.723
    26   6 C        2.909    -0.048    29.184     8.858
    27   6 C        2.909     0.054    26.790     8.487
    28   7 N        2.800    -0.016    21.553     6.895
    29   6 C        3.070     0.046    26.891     8.503
    30   6 C        2.909    -0.044    29.104     8.846
    31   6 C        2.923    -0.034    28.846     8.808
    32   6 C        2.919    -0.036    28.890     8.814
    33   6 C        2.912    -0.032    28.797     8.800
    34   6 C        3.064    -0.014    28.294     8.722
    35   6 C        3.064    -0.014    28.296     8.723
    36   6 C        2.912    -0.032    28.799     8.800
    37   6 C        2.919    -0.036    28.888     8.814
    38   6 C        2.923    -0.034    28.843     8.807
    39   6 C        2.909    -0.044    29.096     8.845
    40   6 C        3.071     0.046    26.894     8.503
    41   6 C        2.920    -0.066    29.649     8.929
    42   6 C        2.904    -0.040    28.985     8.828
    43   6 C        3.067     0.031    27.252     8.560
    44   7 N        2.827    -0.002    21.298     6.854
    45   6 C        3.460     0.035    22.221     7.101
    46   1 H        0.926     0.036     2.500     2.473
    47   1 H        0.926     0.036     2.497     2.471
    48   1 H        0.926     0.038     2.473     2.459
    49   1 H        0.926     0.038     2.470     2.458
    50   1 H        0.926     0.038     2.473     2.459
    51   1 H        0.926     0.036     2.501     2.473
    52   1 H        0.926     0.037     2.492     2.468
    53   1 H        0.926     0.040     2.454     2.450
    54   1 H        0.926     0.037     2.488     2.467
    55   1 H        0.926     0.036     2.498     2.472
    56   1 H        0.926     0.039     2.456     2.451
    57   1 H        0.926     0.009     2.902     2.664
    58   1 H        0.925     0.014     2.826     2.629
    59   1 H        0.926     0.009     2.902     2.664
    60   1 H        0.926     0.039     2.457     2.451
    61   1 H        0.926     0.040     2.454     2.450
    62   1 H        0.926     0.037     2.492     2.469
    63   1 H        0.926     0.036     2.501     2.473
    64   1 H        0.926     0.038     2.473     2.459
    65   1 H        0.926     0.038     2.470     2.458
    66   1 H        0.926     0.036     2.500     2.473
    67   1 H        0.926     0.036     2.497     2.471
    68   1 H        0.926     0.038     2.473     2.459
    69   1 H        0.926     0.037     2.489     2.467
    70   1 H        0.926     0.036     2.498     2.472

molecular dipole:
                 x           y           z       tot (Debye)
 q only:        0.005      -1.337       0.008
   full:        0.004      -1.397       0.009       3.550

 projected vibrational frequencies (cm⁻¹)
eigval :       -0.00    -0.00    -0.00    -0.00    -0.00     0.00
eigval :       12.44    19.02    26.58    31.58    33.76    44.23
eigval :       70.71    81.69   101.93   103.33   112.80   127.52
eigval :      128.97   138.42   147.58   153.69   166.60   187.43
eigval :      226.48   229.86   244.89   269.33   271.92   272.06
eigval :      280.25   285.76   290.53   321.76   365.61   374.18
eigval :      382.85   387.61   389.89   398.55   405.69   418.42
eigval :      419.37   434.65   435.61   451.02   479.13   480.71
eigval :      508.17   513.57   514.95   516.83   535.34   535.87
eigval :      537.68   538.13   553.70   565.71   570.30   585.40
eigval :      586.49   593.11   618.61   620.12   623.64   629.90
eigval :      654.28   663.49   667.35   672.48   672.72   681.61
eigval :      686.65   698.01   707.03   707.61   739.57   751.34
eigval :      753.81   767.27   767.56   770.28   775.43   776.50
eigval :      788.17   788.84   789.55   837.17   855.16   857.32
eigval :      867.27   868.94   874.69   876.51   880.76   883.38
eigval :      889.84   890.10   894.85   895.42   898.98   903.75
eigval :      904.29   905.15   905.91   921.14   921.98   922.85
eigval :      923.89   949.33   974.01  1002.30  1010.12  1010.15
eigval :     1036.24  1066.52  1066.83  1067.13  1068.36  1070.22
eigval :     1084.08  1101.64  1105.44  1133.55  1143.12  1143.54
eigval :     1161.10  1164.52  1175.05  1176.54  1177.28  1180.15
eigval :     1184.38  1188.98  1216.29  1219.92  1226.33  1227.41
eigval :     1228.54  1231.80  1240.00  1240.12  1278.85  1279.54
eigval :     1281.64  1285.81  1298.31  1306.30  1318.39  1325.78
eigval :     1336.73  1337.66  1344.93  1346.17  1357.61  1362.82
eigval :     1384.81  1393.36  1401.47  1402.62  1412.07  1412.24
eigval :     1420.52  1425.82  1435.87  1446.63  1452.68  1459.71
eigval :     1460.29  1474.84  1475.74  1479.29  1481.25  1509.02
eigval :     1527.68  1533.86  1552.77  1559.58  1559.75  1576.51
eigval :     1576.87  1577.78  1579.63  1585.56  1631.34  3044.29
eigval :     3077.25  3077.31  3077.49  3077.56  3078.69  3082.97
eigval :     3083.28  3083.38  3084.07  3084.14  3084.97  3086.18
eigval :     3088.98  3089.42  3091.30  3091.42  3092.50  3092.63
eigval :     3097.31  3097.68  3098.79  3098.98  3107.89  3108.46

   temp. (K)  partition function   enthalpy   heat capacity  entropy
                                   cal/mol     cal/K/mol   cal/K/mol   J/K/mol
 298.15  VIB  0.160E+14            18859.504    127.293    112.972
         ROT  0.803E+08              888.752      2.981     39.152
         INT  0.128E+22            19748.256    130.274    152.124
         TR   0.132E+29             1481.254      4.968     44.894
         TOT                       21229.5098   135.2417   197.0179   824.3228

       T/K    H(0)-H(T)+PV         H(T)/Eh          T*S/Eh         G(T)/Eh
   ------------------------------------------------------------------------
    298.15    0.338314E-01    0.560792E+00    0.936095E-01    0.467182E+00
   ------------------------------------------------------------------------

         :::::::::::::::::::::::::::::::::::::::::::::::::::::
         ::                  THERMODYNAMIC                  ::
         :::::::::::::::::::::::::::::::::::::::::::::::::::::
         :: total free energy        -111.055115524081 Eh   ::
         ::.................................................::
         :: total energy             -111.522297759580 Eh   ::
         :: zero point energy           0.526960408044 Eh   ::
         :: G(RRHO) w/o ZPVE           -0.059778172544 Eh   ::
         :: G(RRHO) contrib.            0.467182235500 Eh   ::
         :::::::::::::::::::::::::::::::::::::::::::::::::::::

           -------------------------------------------------
          | TOTAL ENERGY             -111.522297759580 Eh   |
          | TOTAL ENTHALPY           -110.961505974179 Eh   |
          | TOTAL FREE ENERGY        -111.055115524081 Eh   |
          | GRADIENT NORM               0.000132328641 Eh/α |
          | HOMO-LUMO GAP               0.227987183145 eV   |
           -------------------------------------------------

 * finished run on 2025/09/08 at 05:39:43.993
