   * xtb version 6.7.1 (edcfbbe) compiled by 'albert@albert-system' on 2024-07-22

   ID    Z sym.   atoms
    1    6 C      1-12, 14-27, 29-43, 45
    2    7 N      13, 28, 44
    3    1 H      46-70

          program call               : xtb data2507/toluene/Cz2ICz/Cz2ICz_toluene_S0_crest.xyz --gfn 2 --gbsa toluene --ohess vtight --parallel 40 --molden --ceasefiles --namespace data2507/toluene/Cz2ICz/Cz2ICz_toluene_S0_finalOpt
      * Solvation model:               GBSA
        Solvent                        toluene
        Solvent mass                       9.2140E+01 g/mol
          :  Hamiltonian                  GFN2-xTB          :
 * total energy  :  -111.6160170 Eh     change       -0.5495622E-09 Eh
 * total energy  :  -111.6160378 Eh     change       -0.2076456E-04 Eh
 * total energy  :  -111.6160462 Eh     change       -0.8405240E-05 Eh
 * total energy  :  -111.6160498 Eh     change       -0.3578964E-05 Eh
 * total energy  :  -111.6160547 Eh     change       -0.4891246E-05 Eh
 * total energy  :  -111.6160582 Eh     change       -0.3516714E-05 Eh
 * total energy  :  -111.6160618 Eh     change       -0.3657923E-05 Eh
 * total energy  :  -111.6160654 Eh     change       -0.3509338E-05 Eh
 * total energy  :  -111.6160680 Eh     change       -0.2660592E-05 Eh
 * total energy  :  -111.6160700 Eh     change       -0.2017996E-05 Eh
 * total energy  :  -111.6160734 Eh     change       -0.4492019E-06 Eh
 * total energy  :  -111.6160737 Eh     change       -0.2973186E-06 Eh
 * total energy  :  -111.6160740 Eh     change       -0.2230426E-06 Eh
 * total energy  :  -111.6160742 Eh     change       -0.2488651E-06 Eh
 * total energy  :  -111.6160745 Eh     change       -0.3255220E-06 Eh
 * total energy  :  -111.6160750 Eh     change       -0.4227268E-06 Eh
 * total energy  :  -111.6160755 Eh     change       -0.5359354E-06 Eh
 * total energy  :  -111.6160760 Eh     change       -0.5399366E-06 Eh
 * total energy  :  -111.6160760 Eh     change       -0.7498045E-08 Eh
   *** GEOMETRY OPTIMIZATION CONVERGED AFTER 22 ITERATIONS ***

 final structure:
================
70
 xtb: 6.7.1 (edcfbbe)
C            8.09031765635141        3.45430910737540        0.54840195754023
C            6.73509188458998        3.69590129219970        0.76678907251711
C            5.78161687267084        2.72453127066709        0.52916674631226
C            6.21392677331739        1.49312222278311        0.05613537215024
C            7.58910275107716        1.23131398146698       -0.14731601593776
C            8.52876924897903        2.22448704449908        0.09918915912679
C            7.68271918600445       -0.13151931047392       -0.59093741185545
C            8.74523768784608       -0.94755470593537       -0.95873537015283
C            8.47805808089827       -2.23997142162273       -1.36471372432015
C            7.16992912345188       -2.71800704325123       -1.41944895352769
C            6.09657922174018       -1.92584135096701       -1.05928276275077
C            6.36031911277054       -0.63223650382472       -0.63027372094256
N            5.48426829220751        0.35965315191536       -0.23878017342604
C            4.08633438279766        0.23693727608665       -0.16159971201570
C            3.27688768286167        1.16873015037127       -0.81545338708676
C            1.89699839415300        1.08694236452613       -0.75959299196048
C            1.32899916405203        0.04530720359619       -0.04907466840834
C            2.14743599836485       -0.92153474393415        0.61993999428348
C            3.52516224287499       -0.81085140070828        0.56169680074811
C            1.26248492708648       -1.87188421877302        1.27338288333422
C            1.24266680910152       -3.01225494575989        2.07152196354263
C            0.00172029832956       -3.54010928859309        2.43941618214478
C           -1.23976233491378       -3.01301770268673        2.07221688308685
C           -1.26078072514532       -1.87272219914498        1.27398402058466
C           -2.14669246929216       -0.92317878185223        0.62062050010757
C           -3.52454776806943       -0.81356154152485        0.56271172661829
C           -4.08670947088160        0.23305798226135       -0.16152494734458
N           -5.48468137892333        0.35530376808060       -0.23833664823647
C           -6.21387986033150        1.49007780914603        0.05287945591879
C           -5.78113883078823        2.72278608198212        0.52215283820433
C           -6.73415256379894        3.69553419904551        0.75594594031321
C           -8.08940078104249        3.45403018534984        0.53763501973308
C           -8.52833179449548        2.22293543270561        0.09240077611915
C           -7.58909491253263        1.22844717816657       -0.15041676059850
C           -7.68327733863584       -0.13562700057925       -0.59006598793574
C           -8.74615791855152       -0.95186016612332       -0.95635769019364
C           -8.47960932530699       -2.24539641387538       -1.35916711601609
C           -7.17174483340585       -2.72433555474329       -1.41212791065763
C           -6.09805219653408       -1.93200712408810       -1.05329371374646
C           -6.36112869704053       -0.63718688580647       -0.62753702821022
C           -3.27806336047351        1.16462372871819       -0.81674962731771
C           -1.89812285690670        1.08427219200374       -0.76073859135734
C           -1.32916791140428        0.04398252427282       -0.04903893116488
N            0.00007938069182       -0.28104849523225        0.16912414904135
C            0.00062014813543       -1.40061102669551        0.94138219269011
H            8.80474640333704        4.24090440187818        0.74322180434207
H            6.42360569518439        4.66365439950086        1.13266728554620
H            4.73557341038951        2.91616047387043        0.71568109047644
H            9.58029455893978        2.03331423813933       -0.05584709039873
H            9.75794640005254       -0.57352135649260       -0.92967641787778
H            9.29069312243401       -2.89105020707014       -1.65243926077565
H            6.99120262244559       -3.73002830173774       -1.75319244981514
H            5.08566215191234       -2.30034810160984       -1.11928776139214
H            3.74449522233616        1.96034852710632       -1.38110727896188
H            1.28550515402155        1.81544972644454       -1.26817778311395
H            4.15850693037284       -1.51672989907982        1.07694426882226
H            2.14934738037703       -3.49107867402441        2.40930491853435
H            0.00217452088190       -4.42573115709810        3.05943478844797
H           -2.14593101664257       -3.49232758136780        2.41067930028987
H           -4.15715647089396       -1.51939352552095        1.07891994084050
H           -4.73510028536056        2.91451598546632        0.70857372891128
H           -6.42222392254243        4.66440573533535        1.11848368120832
H           -8.80346660953849        4.24168739592864        0.72947469397223
H           -9.57990671291403        2.03176237081611       -0.06230323753836
H           -9.75862924118346       -0.57707104619897       -0.92872271699724
H           -9.29251385359606       -2.89660189228160       -1.64585640538179
H           -6.99348270700022       -3.73724783977587       -1.74341597724863
H           -5.08737666295102       -2.30735533567690       -1.11200742547095
H           -3.74637430003089        1.95493816725147       -1.38362986998084
H           -1.28731777710939        1.81268469807587       -1.27028289929182

          :  Hamiltonian                  GFN2-xTB          :
         :: gradient norm              0.000062262373 Eh/a0 ::
         :: HOMO-LUMO gap              2.348030423002 eV    ::
         :: SCC energy              -113.723381797818 Eh    ::
         :: -> dispersion             -0.099809614012 Eh    ::
         :: -> Gsolv                  -0.044950992039 Eh    ::
         :: repulsion energy           2.107305763230 Eh    ::

    * Orbital Energies and Occupations

         #    Occupation            Energy/Eh            Energy/eV
      -------------------------------------------------------------
         1        2.0000           -0.6924686             -18.8430
       ...           ...                  ...                  ...
        92        2.0000           -0.4182839             -11.3821
        93        2.0000           -0.4172270             -11.3533
        94        2.0000           -0.4171089             -11.3501
        95        2.0000           -0.4163934             -11.3306
        96        2.0000           -0.4044851             -11.0066
        97        2.0000           -0.4044590             -11.0059
        98        2.0000           -0.3943176             -10.7299
        99        2.0000           -0.3914567             -10.6521
       100        2.0000           -0.3825011             -10.4084
       101        2.0000           -0.3777804             -10.2799
       102        2.0000           -0.3777742             -10.2798
       103        2.0000           -0.3625646              -9.8659
       104        2.0000           -0.3577057              -9.7337 (HOMO)
       105                         -0.2714172              -7.3856 (LUMO)
       106                         -0.2462975              -6.7021
       107                         -0.2448754              -6.6634
       108                         -0.2414365              -6.5698
       109                         -0.2393105              -6.5120
       110                         -0.2212012              -6.0192
       111                         -0.2211871              -6.0188
       112                         -0.2203935              -5.9972
       113                         -0.2009014              -5.4668
       114                         -0.1963999              -5.3443
       115                         -0.1853782              -5.0444
       ...                                ...                  ...
       205                          0.7597132              20.6728
      -------------------------------------------------------------
                  HL-Gap            0.0862885 Eh            2.3480 eV

     #   Z          covCN         q      C6AA      α(0)
     1   6 C        2.919    -0.043    29.072     8.842
     2   6 C        2.924    -0.035    28.880     8.813
     3   6 C        2.909    -0.052    29.300     8.876
     4   6 C        3.076     0.047    26.867     8.498
     5   6 C        3.067    -0.019    28.415     8.741
     6   6 C        2.912    -0.035    28.873     8.811
     7   6 C        3.067    -0.019    28.415     8.741
     8   6 C        2.912    -0.035    28.873     8.811
     9   6 C        2.919    -0.043    29.071     8.842
    10   6 C        2.924    -0.035    28.878     8.813
    11   6 C        2.909    -0.052    29.295     8.875
    12   6 C        3.076     0.047    26.863     8.498
    13   7 N        2.803    -0.046    22.130     6.987
    14   6 C        2.911     0.056    26.737     8.479
    15   6 C        2.925    -0.045    29.111     8.848
    16   6 C        2.908    -0.045    29.118     8.848
    17   6 C        3.085     0.047    26.856     8.495
    18   6 C        3.112    -0.009    28.099     8.684
    19   6 C        2.914    -0.045    29.112     8.848
    20   6 C        3.021    -0.016    28.375     8.738
    21   6 C        2.932    -0.031    28.767     8.796
    22   6 C        2.922    -0.040    29.003     8.832
    23   6 C        2.932    -0.031    28.767     8.796
    24   6 C        3.021    -0.016    28.374     8.738
    25   6 C        3.112    -0.009    28.099     8.684
    26   6 C        2.914    -0.045    29.113     8.848
    27   6 C        2.911     0.056    26.737     8.479
    28   7 N        2.803    -0.046    22.129     6.987
    29   6 C        3.076     0.047    26.867     8.498
    30   6 C        2.909    -0.052    29.300     8.876
    31   6 C        2.924    -0.035    28.880     8.813
    32   6 C        2.919    -0.043    29.072     8.842
    33   6 C        2.912    -0.035    28.873     8.811
    34   6 C        3.067    -0.019    28.414     8.741
    35   6 C        3.067    -0.019    28.414     8.741
    36   6 C        2.912    -0.035    28.873     8.811
    37   6 C        2.919    -0.043    29.071     8.842
    38   6 C        2.924    -0.035    28.878     8.813
    39   6 C        2.909    -0.052    29.295     8.875
    40   6 C        3.076     0.047    26.864     8.498
    41   6 C        2.925    -0.045    29.112     8.848
    42   6 C        2.908    -0.045    29.118     8.848
    43   6 C        3.085     0.047    26.856     8.495
    44   7 N        2.832    -0.026    21.747     6.926
    45   6 C        3.470     0.035    22.039     7.045
    46   1 H        0.926     0.027     2.631     2.537
    47   1 H        0.926     0.029     2.597     2.520
    48   1 H        0.926     0.029     2.597     2.520
    49   1 H        0.926     0.029     2.597     2.520
    50   1 H        0.926     0.029     2.597     2.520
    51   1 H        0.926     0.027     2.630     2.536
    52   1 H        0.926     0.029     2.596     2.519
    53   1 H        0.926     0.029     2.597     2.520
    54   1 H        0.926     0.047     2.364     2.404
    55   1 H        0.926     0.045     2.390     2.417
    56   1 H        0.926     0.047     2.353     2.399
    57   1 H        0.926     0.038     2.478     2.462
    58   1 H        0.926     0.038     2.474     2.459
    59   1 H        0.926     0.038     2.478     2.462
    60   1 H        0.926     0.047     2.353     2.399
    61   1 H        0.926     0.029     2.596     2.520
    62   1 H        0.926     0.029     2.597     2.520
    63   1 H        0.926     0.027     2.631     2.537
    64   1 H        0.926     0.029     2.597     2.520
    65   1 H        0.926     0.029     2.597     2.520
    66   1 H        0.926     0.027     2.630     2.536
    67   1 H        0.926     0.029     2.596     2.519
    68   1 H        0.926     0.029     2.596     2.520
    69   1 H        0.926     0.047     2.364     2.404
    70   1 H        0.926     0.044     2.390     2.417

molecular dipole:
                 x           y           z       tot (Debye)
 q only:       -0.001      -0.123       0.075
   full:       -0.001      -0.049       0.028       0.143

 projected vibrational frequencies (cm⁻¹)
eigval :       -0.00    -0.00    -0.00     0.00     0.00     0.00
eigval :       12.41    13.92    25.31    32.99    33.87    41.52
eigval :       70.61    82.14   100.45   101.72   110.21   128.41
eigval :      135.33   137.58   144.87   148.16   166.10   190.50
eigval :      217.12   235.40   249.57   270.10   270.28   275.02
eigval :      278.32   292.27   300.43   345.17   372.66   381.18
eigval :      391.96   398.24   403.01   403.89   416.26   422.19
eigval :      422.47   434.02   434.29   456.62   480.16   505.66
eigval :      515.64   517.93   518.78   529.90   533.16   540.78
eigval :      541.50   541.61   560.79   567.75   579.50   588.32
eigval :      589.57   609.55   622.00   630.83   631.68   645.36
eigval :      670.64   674.05   674.06   685.09   696.86   703.90
eigval :      705.65   708.43   711.73   711.75   753.17   755.78
eigval :      766.01   766.16   776.26   777.11   777.95   791.51
eigval :      820.54   824.03   847.15   866.68   866.82   869.79
eigval :      870.32   879.42   881.31   882.04   896.78   896.90
eigval :      899.08   899.38   901.72   901.91   902.31   910.82
eigval :      912.53   917.90   918.11   918.74   919.95   921.14
eigval :      921.63   965.76   994.29  1011.21  1011.74  1024.12
eigval :     1068.33  1068.43  1071.25  1071.30  1071.99  1079.23
eigval :     1105.69  1113.61  1120.34  1148.84  1149.94  1150.60
eigval :     1170.97  1173.88  1177.76  1180.34  1180.36  1184.39
eigval :     1189.95  1191.41  1223.46  1229.87  1234.41  1235.38
eigval :     1239.67  1241.81  1253.02  1261.40  1297.71  1297.86
eigval :     1301.33  1301.88  1313.74  1318.70  1333.62  1341.29
eigval :     1350.11  1355.85  1356.59  1359.43  1361.60  1368.99
eigval :     1397.18  1409.91  1415.17  1425.83  1426.93  1428.72
eigval :     1439.87  1447.99  1457.63  1472.25  1475.23  1480.15
eigval :     1487.12  1487.14  1498.47  1559.41  1565.67  1572.43
eigval :     1573.00  1585.95  1587.22  1587.29  1596.87  1596.99
eigval :     1606.25  1606.82  1612.87  1613.30  1640.00  3069.63
eigval :     3069.63  3070.20  3070.21  3071.60  3075.26  3075.27
eigval :     3075.96  3075.97  3083.02  3083.04  3084.02  3084.06
eigval :     3086.52  3089.81  3089.83  3091.85  3092.12  3092.26
eigval :     3092.69  3093.32  3097.31  3097.75  3102.93  3105.03

   temp. (K)  partition function   enthalpy   heat capacity  entropy
                                   cal/mol     cal/K/mol   cal/K/mol   J/K/mol
 298.15  VIB  0.188E+14            18615.800    125.296    112.014
         ROT  0.805E+08              888.752      2.981     39.156
         INT  0.151E+22            19504.552    128.277    151.170
         TR   0.132E+29             1481.254      4.968     44.894
         TOT                       20985.8058   133.2454   196.0646   820.3344

       T/K    H(0)-H(T)+PV         H(T)/Eh          T*S/Eh         G(T)/Eh
   ------------------------------------------------------------------------
    298.15    0.334430E-01    0.565114E+00    0.931566E-01    0.471957E+00
   ------------------------------------------------------------------------

         :::::::::::::::::::::::::::::::::::::::::::::::::::::
         ::                  THERMODYNAMIC                  ::
         :::::::::::::::::::::::::::::::::::::::::::::::::::::
         :: total free energy        -111.144118817911 Eh   ::
         ::.................................................::
         :: total energy             -111.616076033601 Eh   ::
         :: zero point energy           0.531670840216 Eh   ::
         :: G(RRHO) w/o ZPVE           -0.059713624526 Eh   ::
         :: G(RRHO) contrib.            0.471957215690 Eh   ::
         :::::::::::::::::::::::::::::::::::::::::::::::::::::

           -------------------------------------------------
          | TOTAL ENERGY             -111.616076033601 Eh   |
          | TOTAL ENTHALPY           -111.050962183061 Eh   |
          | TOTAL FREE ENERGY        -111.144118817911 Eh   |
          | GRADIENT NORM               0.000062265937 Eh/α |
          | HOMO-LUMO GAP               2.348030281221 eV   |
           -------------------------------------------------

 * finished run on 2025/09/08 at 05:35:34.612
