   * xtb version 6.7.1 (edcfbbe) compiled by 'albert@albert-system' on 2024-07-22

   ID    Z sym.   atoms
    1    6 C      1-12, 14-27, 29-43, 45
    2    7 N      13, 28, 44
    3    1 H      46-70

          program call               : xtb data2507/toluene/Cz2ICz/Cz2ICz_toluene_S0_finalOpt.xtbopt.xyz --gfn 2 --uhf 2 --gbsa toluene --ohess vtight --parallel 40 --molden --ceasefiles --namespace data2507/toluene/Cz2ICz/Cz2ICz_toluene_T1_preOpt
      * Solvation model:               GBSA
        Solvent                        toluene
        Solvent mass                       9.2140E+01 g/mol
          :  Hamiltonian                  GFN2-xTB          :
 * total energy  :  -111.5185424 Eh     change       -0.1560436E-07 Eh
 * total energy  :  -111.5209674 Eh     change       -0.2424986E-02 Eh
 * total energy  :  -111.5218427 Eh     change       -0.8753336E-03 Eh
 * total energy  :  -111.5219516 Eh     change       -0.1089038E-03 Eh
 * total energy  :  -111.5220179 Eh     change       -0.6635600E-04 Eh
 * total energy  :  -111.5220487 Eh     change       -0.3075858E-04 Eh
 * total energy  :  -111.5220775 Eh     change       -0.2879941E-04 Eh
 * total energy  :  -111.5221005 Eh     change       -0.2301570E-04 Eh
 * total energy  :  -111.5221253 Eh     change       -0.2481412E-04 Eh
 * total energy  :  -111.5221463 Eh     change       -0.2094083E-04 Eh
 * total energy  :  -111.5222538 Eh     change       -0.4686243E-06 Eh
 * total energy  :  -111.5222545 Eh     change       -0.6538362E-06 Eh
 * total energy  :  -111.5222553 Eh     change       -0.8559652E-06 Eh
 * total energy  :  -111.5222563 Eh     change       -0.9811066E-06 Eh
 * total energy  :  -111.5222573 Eh     change       -0.1002883E-05 Eh
 * total energy  :  -111.5222580 Eh     change       -0.6515396E-06 Eh
 * total energy  :  -111.5222582 Eh     change       -0.2741049E-06 Eh
 * total energy  :  -111.5222583 Eh     change       -0.1131202E-06 Eh
 * total energy  :  -111.5222584 Eh     change       -0.5618598E-07 Eh
   *** GEOMETRY OPTIMIZATION CONVERGED AFTER 34 ITERATIONS ***

 final structure:
================
70
 xtb: 6.7.1 (edcfbbe)
C            8.04470581427313        3.51215684714890        0.46396068439454
C            6.68844164011049        3.75262102792136        0.67082947563445
C            5.74086196587433        2.76617126347172        0.46211261040814
C            6.18135322031533        1.52401100393072        0.02586999250730
C            7.56123355875636        1.26276936633688       -0.15482474771648
C            8.49375620602948        2.26715289379666        0.06144283333602
C            7.66864284438801       -0.11935981676738       -0.53650856716425
C            8.74024726007090       -0.93669473573702       -0.86671158091447
C            8.48598846780005       -2.24713031474050       -1.22965515347010
C            7.18281280215177       -2.73576206406017       -1.28576758908513
C            6.09896586180224       -1.93890999098810       -0.96138900911764
C            6.34945342640942       -0.63297396426612       -0.56270733285102
N            5.46018146791621        0.37033757858387       -0.22231927548005
C            4.07542079602414        0.23945410246812       -0.14797438208038
C            3.25630409649328        1.22131048733927       -0.76091679207337
C            1.88139320907580        1.11782902019431       -0.71692967414434
C            1.31033421780751        0.04563854112483       -0.05128572428881
C            2.14133628780109       -0.97421597894183        0.58871095052184
C            3.51908465276979       -0.84981567358017        0.51659693976558
C            1.26360612097959       -1.93533827746353        1.19634334216987
C            1.24448697375985       -3.13085338980409        1.94765310522700
C            0.00111725252969       -3.66746779443931        2.28659856408329
C           -1.24260563795632       -3.13154379656064        1.94782473997644
C           -1.26249944842685       -1.93606467568290        1.19647537761026
C           -2.14084775267543       -0.97546583515445        0.58889094244292
C           -3.51868514084072       -0.85190400667522        0.51678235851404
C           -4.07565932775953        0.23707551164623       -0.14771403897384
N           -5.46047162123907        0.36733864481274       -0.22215561195937
C           -6.18195668715690        1.52090017801972        0.02562511647270
C           -5.74189387961271        2.76297950960262        0.46252960027362
C           -6.68969626805456        3.74935103363348        0.67058357487243
C           -8.04575724793470        3.50888740712568        0.46237538396377
C           -8.49440536300704        2.26394477468242        0.05921137754862
C           -7.56165415151326        1.25961455287594       -0.15634302411691
C           -7.66862944675074       -0.12251770140684       -0.53817938048820
C           -8.73989648198757       -0.93987950376656       -0.86940490298315
C           -8.48524137311281       -2.25025415107573       -1.23229643617584
C           -7.18199050835161       -2.73879292409247       -1.28734166730735
C           -6.09846966552315       -1.94192311952084       -0.96190072000150
C           -6.34937087903612       -0.63602275252828       -0.56337383349041
C           -3.25711759476911        1.21943437809246       -0.76066030685276
C           -1.88215686036974        1.11672945842734       -0.71679698622868
C           -1.31046148649366        0.04486255476011       -0.05117792971951
N            0.00003620969040       -0.29246184412558        0.15768520842140
C            0.00040278359801       -1.45928762175849        0.89147395517734
H            8.75439375312049        4.30819675313047        0.63429561487255
H            6.36874334713942        4.72827418580035        1.00573705419846
H            4.69520549948278        2.95622823822866        0.64812748594829
H            9.54707188404132        2.07587551349731       -0.07680040479448
H            9.74901216975782       -0.55311046754836       -0.84591380514062
H            9.30661322592025       -2.90042213711683       -1.48677713840451
H            7.01272014695397       -3.75676133385535       -1.59383723272410
H            5.09230539890064       -2.32153839466523       -1.03021192814895
H            3.72398383875772        2.02407834934542       -1.30743673430674
H            1.26520013073948        1.85667260266277       -1.20643816962448
H            4.15752734783610       -1.56712944521365        1.01001373394317
H            2.15214524519420       -3.62355204330385        2.26055579643849
H            0.00141176223608       -4.58226570156782        2.86649267645372
H           -2.14993989144820       -3.62477585040814        2.26082555246680
H           -4.15670234969649       -1.56963138866865        1.01014777500018
H           -4.69640267526710        2.95301206175431        0.64950100490169
H           -6.37033982252869        4.72494638567496        1.00598126200427
H           -8.75562696985650        4.30486309670272        0.63222969909589
H           -9.54759698111170        2.07264335582576       -0.07991186385732
H           -9.74868229084595       -0.55629417170204       -0.84966208429473
H           -9.30559861352421       -2.90351872721766       -1.49033391626507
H           -7.01158167137353       -3.75980484147440       -1.59519806916483
H           -5.09173819382514       -2.32454082391985       -1.02973063705600
H           -3.72531740206254        2.02196833750784       -1.30707872652173
H           -1.26640044496274        1.85596414386751       -1.20625236156416

          :  Hamiltonian                  GFN2-xTB          :
         :: gradient norm              0.000078751272 Eh/a0 ::
         :: HOMO-LUMO gap              0.228092688382 eV    ::
         :: SCC energy              -113.612182567867 Eh    ::
         :: -> dispersion             -0.100069179662 Eh    ::
         :: -> Gsolv                  -0.045440588412 Eh    ::
         :: repulsion energy           2.089924165025 Eh    ::

    * Orbital Energies and Occupations

         #    Occupation            Energy/Eh            Energy/eV
      -------------------------------------------------------------
         1        2.0000           -0.6839566             -18.6114
       ...           ...                  ...                  ...
        93        2.0000           -0.4142308             -11.2718
        94        2.0000           -0.4127337             -11.2311
        95        2.0000           -0.4119130             -11.2087
        96        2.0000           -0.4114983             -11.1974
        97        2.0000           -0.4098703             -11.1531
        98        2.0000           -0.3867451             -10.5239
        99        2.0000           -0.3851967             -10.4817
       100        2.0000           -0.3851950             -10.4817
       101        2.0000           -0.3752806             -10.2119
       102        2.0000           -0.3725636             -10.1380
       103        1.9908           -0.3655896              -9.9482
       104        1.0092           -0.3567008              -9.7063
       105        0.9831           -0.2599114              -7.0725 (HOMO)
       106        0.0085           -0.2515291              -6.8445 (LUMO)
       107        0.0084           -0.2515135              -6.8440
       108                         -0.2354618              -6.4072
       109                         -0.2317014              -6.3049
       110                         -0.2291796              -6.2363
       111                         -0.2291681              -6.2360
       112                         -0.2168774              -5.9015
       113                         -0.1991039              -5.4179
       114                         -0.1927936              -5.2462
       115                         -0.1926203              -5.2415
       116                         -0.1925411              -5.2393
       ...                                ...                  ...
       205                          0.7734096              21.0455
      -------------------------------------------------------------
                  HL-Gap            0.0083823 Eh            0.2281 eV

     #   Z          covCN         q      C6AA      α(0)
     1   6 C        2.919    -0.036    28.890     8.814
     2   6 C        2.923    -0.034    28.846     8.808
     3   6 C        2.909    -0.044    29.104     8.846
     4   6 C        3.070     0.046    26.891     8.503
     5   6 C        3.064    -0.014    28.294     8.722
     6   6 C        2.912    -0.032    28.797     8.799
     7   6 C        3.064    -0.014    28.295     8.723
     8   6 C        2.912    -0.032    28.799     8.800
     9   6 C        2.919    -0.036    28.888     8.814
    10   6 C        2.923    -0.034    28.843     8.807
    11   6 C        2.909    -0.044    29.098     8.845
    12   6 C        3.071     0.046    26.893     8.503
    13   7 N        2.800    -0.016    21.554     6.895
    14   6 C        2.909     0.054    26.789     8.487
    15   6 C        2.920    -0.066    29.649     8.929
    16   6 C        2.904    -0.040    28.986     8.828
    17   6 C        3.067     0.031    27.252     8.560
    18   6 C        3.113    -0.020    28.358     8.724
    19   6 C        2.909    -0.048    29.184     8.858
    20   6 C        3.013    -0.029    28.694     8.787
    21   6 C        2.927    -0.064    29.602     8.923
    22   6 C        2.917    -0.040    28.984     8.828
    23   6 C        2.927    -0.064    29.602     8.923
    24   6 C        3.013    -0.029    28.694     8.787
    25   6 C        3.113    -0.020    28.358     8.724
    26   6 C        2.909    -0.048    29.184     8.858
    27   6 C        2.909     0.054    26.789     8.487
    28   7 N        2.800    -0.016    21.554     6.895
    29   6 C        3.071     0.046    26.891     8.503
    30   6 C        2.909    -0.044    29.104     8.846
    31   6 C        2.923    -0.034    28.846     8.808
    32   6 C        2.919    -0.036    28.890     8.814
    33   6 C        2.912    -0.032    28.797     8.799
    34   6 C        3.064    -0.014    28.294     8.722
    35   6 C        3.064    -0.014    28.295     8.723
    36   6 C        2.912    -0.032    28.799     8.800
    37   6 C        2.919    -0.036    28.888     8.814
    38   6 C        2.923    -0.034    28.843     8.807
    39   6 C        2.909    -0.044    29.098     8.845
    40   6 C        3.071     0.046    26.893     8.503
    41   6 C        2.920    -0.066    29.649     8.929
    42   6 C        2.904    -0.040    28.986     8.828
    43   6 C        3.067     0.031    27.252     8.560
    44   7 N        2.827    -0.002    21.293     6.853
    45   6 C        3.459     0.035    22.235     7.106
    46   1 H        0.926     0.036     2.501     2.473
    47   1 H        0.926     0.037     2.491     2.468
    48   1 H        0.926     0.040     2.454     2.450
    49   1 H        0.926     0.038     2.473     2.459
    50   1 H        0.926     0.038     2.470     2.458
    51   1 H        0.926     0.036     2.500     2.473
    52   1 H        0.926     0.036     2.497     2.471
    53   1 H        0.926     0.038     2.473     2.459
    54   1 H        0.926     0.037     2.488     2.467
    55   1 H        0.926     0.036     2.498     2.472
    56   1 H        0.926     0.039     2.456     2.451
    57   1 H        0.926     0.009     2.903     2.664
    58   1 H        0.925     0.014     2.825     2.629
    59   1 H        0.926     0.009     2.903     2.664
    60   1 H        0.926     0.039     2.456     2.451
    61   1 H        0.926     0.040     2.454     2.450
    62   1 H        0.926     0.037     2.491     2.468
    63   1 H        0.926     0.036     2.501     2.473
    64   1 H        0.926     0.038     2.473     2.459
    65   1 H        0.926     0.038     2.470     2.458
    66   1 H        0.926     0.036     2.500     2.473
    67   1 H        0.926     0.036     2.497     2.471
    68   1 H        0.926     0.038     2.473     2.459
    69   1 H        0.926     0.037     2.488     2.467
    70   1 H        0.926     0.036     2.498     2.472

molecular dipole:
                 x           y           z       tot (Debye)
 q only:       -0.000       1.144      -0.700
   full:       -0.000       1.189      -0.741       3.560

 projected vibrational frequencies (cm⁻¹)
eigval :       -0.00    -0.00    -0.00     0.00     0.00     0.00
eigval :       11.26    15.32    25.58    32.49    33.94    42.41
eigval :       72.05    81.64   102.29   103.66   113.13   127.47
eigval :      131.91   136.85   146.00   154.08   167.07   188.85
eigval :      221.00   239.91   241.94   269.35   269.69   274.46
eigval :      280.23   289.38   290.55   322.65   371.07   373.00
eigval :      378.33   389.26   395.04   395.39   411.03   417.98
eigval :      418.17   434.75   435.72   450.63   479.94   480.37
eigval :      508.19   514.03   514.80   518.29   535.28   535.49
eigval :      537.76   540.07   556.96   562.56   570.62   585.74
eigval :      586.22   597.27   614.68   623.68   627.30   627.56
eigval :      657.58   665.98   667.29   672.31   672.53   683.20
eigval :      686.80   697.82   706.37   706.58   744.27   751.59
eigval :      754.19   764.54   765.35   770.37   776.26   777.22
eigval :      787.39   791.80   794.41   837.09   855.59   857.90
eigval :      865.47   867.53   873.60   878.16   880.11   883.29
eigval :      890.18   890.47   894.80   895.38   898.66   902.19
eigval :      902.25   904.67   904.77   915.00   915.15   926.46
eigval :      926.64   949.36   974.02  1003.03  1010.15  1010.21
eigval :     1035.74  1066.84  1067.02  1068.23  1069.00  1070.17
eigval :     1084.76  1102.12  1106.14  1135.35  1143.48  1143.81
eigval :     1161.97  1165.74  1176.01  1177.96  1179.21  1181.62
eigval :     1186.00  1189.32  1216.64  1221.41  1226.83  1227.38
eigval :     1228.91  1232.40  1240.95  1241.46  1279.38  1279.93
eigval :     1281.94  1286.26  1299.02  1306.24  1318.59  1326.33
eigval :     1336.89  1338.37  1345.36  1346.33  1357.97  1363.12
eigval :     1385.30  1393.60  1402.19  1402.55  1412.01  1412.31
eigval :     1420.32  1425.98  1436.11  1446.98  1452.86  1460.09
eigval :     1460.48  1474.92  1476.06  1479.77  1481.59  1509.04
eigval :     1527.76  1534.54  1552.97  1559.89  1560.00  1576.53
eigval :     1576.94  1577.85  1579.89  1585.73  1631.49  3045.51
eigval :     3077.15  3077.17  3077.59  3077.65  3079.84  3083.36
eigval :     3083.39  3083.78  3084.18  3084.31  3086.25  3087.29
eigval :     3089.58  3089.69  3091.39  3091.40  3092.53  3092.57
eigval :     3097.49  3097.50  3098.23  3098.28  3108.53  3109.10

   temp. (K)  partition function   enthalpy   heat capacity  entropy
                                   cal/mol     cal/K/mol   cal/K/mol   J/K/mol
 298.15  VIB  0.214E+14            18847.568    127.185    113.113
         ROT  0.803E+08              888.752      2.981     39.152
         INT  0.172E+22            19736.320    130.166    152.265
         TR   0.132E+29             1481.254      4.968     44.894
         TOT                       21217.5739   135.1340   197.1591   824.9136

       T/K    H(0)-H(T)+PV         H(T)/Eh          T*S/Eh         G(T)/Eh
   ------------------------------------------------------------------------
    298.15    0.338124E-01    0.560912E+00    0.936766E-01    0.467235E+00
   ------------------------------------------------------------------------

         :::::::::::::::::::::::::::::::::::::::::::::::::::::
         ::                  THERMODYNAMIC                  ::
         :::::::::::::::::::::::::::::::::::::::::::::::::::::
         :: total free energy        -111.055023012956 Eh   ::
         ::.................................................::
         :: total energy             -111.522258404127 Eh   ::
         :: zero point energy           0.527099680389 Eh   ::
         :: G(RRHO) w/o ZPVE           -0.059864289218 Eh   ::
         :: G(RRHO) contrib.            0.467235391171 Eh   ::
         :::::::::::::::::::::::::::::::::::::::::::::::::::::

           -------------------------------------------------
          | TOTAL ENERGY             -111.522258404127 Eh   |
          | TOTAL ENTHALPY           -110.961346367559 Eh   |
          | TOTAL FREE ENERGY        -111.055023012956 Eh   |
          | GRADIENT NORM               0.000078588436 Eh/α |
          | HOMO-LUMO GAP               0.228094609358 eV   |
           -------------------------------------------------

 * finished run on 2025/09/08 at 05:35:40.212
