   * xtb version 6.7.1 (edcfbbe) compiled by 'albert@albert-system' on 2024-07-22

   ID    Z sym.   atoms
    1    6 C      1-12, 14-27, 29-43, 45
    2    7 N      13, 28, 44
    3    1 H      46-70

          program call               : xtb data2507/toluene/Cz2ICz/Cz2ICz.xyz --gfn 2 --gbsa toluene --ohess vtight --parallel 40 --molden --ceasefiles --namespace data2507/toluene/Cz2ICz/Cz2ICz_toluene_S0_preOpt
      * Solvation model:               GBSA
        Solvent                        toluene
        Solvent mass                       9.2140E+01 g/mol
          :  Hamiltonian                  GFN2-xTB          :
 * total energy  :  -111.5825027 Eh     change       -0.1029179E-08 Eh
 * total energy  :  -111.6074064 Eh     change       -0.2490375E-01 Eh
 * total energy  :  -111.6136083 Eh     change       -0.6201851E-02 Eh
 * total energy  :  -111.6146210 Eh     change       -0.1012683E-02 Eh
 * total energy  :  -111.6151469 Eh     change       -0.5258813E-03 Eh
 * total energy  :  -111.6153738 Eh     change       -0.2269771E-03 Eh
 * total energy  :  -111.6155194 Eh     change       -0.1455736E-03 Eh
 * total energy  :  -111.6156069 Eh     change       -0.8753632E-04 Eh
 * total energy  :  -111.6156616 Eh     change       -0.5467473E-04 Eh
 * total energy  :  -111.6157142 Eh     change       -0.5263402E-04 Eh
 * total energy  :  -111.6160720 Eh     change       -0.2615249E-05 Eh
 * total energy  :  -111.6160754 Eh     change       -0.3455769E-05 Eh
 * total energy  :  -111.6160793 Eh     change       -0.3880077E-05 Eh
 * total energy  :  -111.6160821 Eh     change       -0.2774033E-05 Eh
 * total energy  :  -111.6160839 Eh     change       -0.1808681E-05 Eh
 * total energy  :  -111.6160844 Eh     change       -0.5060860E-06 Eh
 * total energy  :  -111.6160847 Eh     change       -0.3134999E-06 Eh
 * total energy  :  -111.6160848 Eh     change       -0.1445346E-06 Eh
 * total energy  :  -111.6160849 Eh     change       -0.8201752E-08 Eh
   *** GEOMETRY OPTIMIZATION CONVERGED AFTER 35 ITERATIONS ***

 final structure:
================
70
 xtb: 6.7.1 (edcfbbe)
C            8.08804620777937        3.42241602398829        0.61267403957610
C            6.73232951323616        3.66046905031458        0.83198564072069
C            5.77947735502984        2.69259312773596        0.57810928479005
C            6.21298857170162        1.46833649601481        0.08794535794794
C            7.58864120343674        1.20978836368124       -0.11647222238492
C            8.52762163891893        2.19946693102828        0.14615137409290
C            7.68351805801996       -0.14667389574755       -0.57889044803656
C            8.74706952308455       -0.95745282667709       -0.95519389215828
C            8.48115387731610       -2.24448370978986       -1.37873981340845
C            7.17326432392027       -2.72212357178746       -1.44253385490078
C            6.09889046091031       -1.93507836240869       -1.07429872776817
C            6.36136323274912       -0.64719985714168       -0.62765458294567
N            5.48425626308280        0.33902607069740       -0.22454824823504
C            4.08625930637590        0.21466632393981       -0.15023312741738
C            3.27722820223004        1.15355048948914       -0.79435863133783
C            1.89731940000331        1.07100611901752       -0.74031147886779
C            1.32906178516416        0.02187385565135       -0.04112098632862
C            2.14703457257178       -0.95252289094665        0.61740152016477
C            3.52481300558005       -0.84126446492898        0.56089229588225
C            1.26158219745429       -1.90974842227758        1.26010472372650
C            1.24109900402754       -3.05867437138339        2.04587585521311
C           -0.00013450281504       -3.59001696658838        2.40771455627275
C           -1.24132594916535       -3.05870331635558        2.04568768862884
C           -1.26169715869547       -1.90978787968810        1.25990062377091
C           -2.14707658114171       -0.95259671526175        0.61705160850042
C           -3.52484604540716       -0.84135855143466        0.56038397439682
C           -4.08622240538795        0.21465378201580       -0.15067907148661
N           -5.48422046652764        0.33904831543116       -0.22495607518672
C           -6.21294097625145        1.46822371655534        0.08804054064139
C           -5.77937932670838        2.69230189387072        0.57860439319060
C           -6.73222260046319        3.66002866461419        0.83307090658616
C           -8.08796118617290        3.42202091814701        0.61385781365895
C           -8.52756331524481        2.19928927934254        0.14679036799548
C           -7.58860497712798        1.20972976713124       -0.11634443622318
C           -7.68351750807532       -0.14661614370252       -0.57910285394380
C           -8.74709870229458       -0.95734858627062       -0.95542731984762
C           -8.48119891975080       -2.24426010071615       -1.37935212623124
C           -7.17330149351120       -2.72183534877436       -1.44348192141131
C           -6.09889520717601       -1.93483382542705       -1.07524441547643
C           -6.36134905667127       -0.64707490168106       -0.62824755422127
C           -3.27713653222165        1.15359863948361       -0.79463303335123
C           -1.89723030795645        1.07103805896009       -0.74046920112946
C           -1.32903480455943        0.02186398102975       -0.04129112503161
N            0.00000064128778       -0.30631490261960        0.17325837185503
C           -0.00003901065382       -1.43441353531211        0.93298501778527
H            8.80192399803201        4.20616383406636        0.82054770663463
H            6.41998184219073        4.62252139979417        1.21187040700473
H            4.73299816210561        2.88130512296764        0.76523522345191
H            9.57943375634373        2.01077775502600       -0.00995595183258
H            9.75959479713712       -0.58351794131769       -0.91893754426690
H            9.29457496461933       -2.89149527846123       -1.67333051961925
H            6.99559320398932       -3.72950058990086       -1.79057970528477
H            5.08817604495127       -2.30898651106362       -1.14126459381932
H            3.74528803305262        1.95134112061647       -1.35088576097338
H            1.28592763960484        1.80477999013158       -1.24137864659955
H            4.15802336472659       -1.55298122534087        1.06821912588505
H            2.14749577420431       -3.54135056024982        2.37890089742513
H           -0.00016967918080       -4.48213473137000        3.01835733401378
H           -2.14777369459215       -3.54141800432885        2.37851371301514
H           -4.15810993205042       -1.55310583063335        1.06759898795303
H           -4.73285685123736        2.88099547077195        0.76551840675597
H           -6.41983603779096        4.62197399490352        1.21318723010094
H           -8.80183092315875        4.20565189747478        0.82219881942877
H           -9.57942036987641        2.01056215492466       -0.00900568571297
H           -9.75962881167078       -0.58344945299071       -0.91894983577994
H           -9.29464079788338       -2.89122881780209       -1.67397653377486
H           -6.99565199727136       -3.72912329829837       -1.79179540392142
H           -5.08817487564319       -2.30868922922924       -1.14243950164980
H           -3.74514426812740        1.95145385413284       -1.35111394534355
H           -1.28579365237171        1.80484715495569       -1.24143203116534

          :  Hamiltonian                  GFN2-xTB          :
         :: gradient norm              0.000085493600 Eh/a0 ::
         :: HOMO-LUMO gap              2.348213311184 eV    ::
         :: SCC energy              -113.723416226674 Eh    ::
         :: -> dispersion             -0.099802561640 Eh    ::
         :: -> Gsolv                  -0.044968679642 Eh    ::
         :: repulsion energy           2.107331374483 Eh    ::

    * Orbital Energies and Occupations

         #    Occupation            Energy/Eh            Energy/eV
      -------------------------------------------------------------
         1        2.0000           -0.6925054             -18.8440
       ...           ...                  ...                  ...
        92        2.0000           -0.4182879             -11.3822
        93        2.0000           -0.4172277             -11.3533
        94        2.0000           -0.4171043             -11.3500
        95        2.0000           -0.4163914             -11.3306
        96        2.0000           -0.4044768             -11.0064
        97        2.0000           -0.4044516             -11.0057
        98        2.0000           -0.3943337             -10.7304
        99        2.0000           -0.3914848             -10.6528
       100        2.0000           -0.3824939             -10.4082
       101        2.0000           -0.3777643             -10.2795
       102        2.0000           -0.3777633             -10.2795
       103        2.0000           -0.3625615              -9.8658
       104        2.0000           -0.3577423              -9.7347 (HOMO)
       105                         -0.2714470              -7.3864 (LUMO)
       106                         -0.2462840              -6.7017
       107                         -0.2448620              -6.6630
       108                         -0.2414700              -6.5707
       109                         -0.2393423              -6.5128
       110                         -0.2211853              -6.0188
       111                         -0.2211767              -6.0185
       112                         -0.2204032              -5.9975
       113                         -0.2008877              -5.4664
       114                         -0.1963902              -5.3440
       115                         -0.1853679              -5.0441
       ...                                ...                  ...
       205                          0.7596767              20.6719
      -------------------------------------------------------------
                  HL-Gap            0.0862953 Eh            2.3482 eV

     #   Z          covCN         q      C6AA      α(0)
     1   6 C        2.919    -0.043    29.072     8.842
     2   6 C        2.924    -0.035    28.880     8.813
     3   6 C        2.909    -0.052    29.300     8.876
     4   6 C        3.076     0.047    26.866     8.498
     5   6 C        3.067    -0.019    28.415     8.741
     6   6 C        2.912    -0.035    28.873     8.811
     7   6 C        3.067    -0.019    28.415     8.741
     8   6 C        2.912    -0.035    28.873     8.811
     9   6 C        2.919    -0.043    29.071     8.842
    10   6 C        2.924    -0.035    28.878     8.813
    11   6 C        2.909    -0.052    29.295     8.875
    12   6 C        3.076     0.047    26.863     8.498
    13   7 N        2.803    -0.046    22.130     6.987
    14   6 C        2.911     0.056    26.737     8.479
    15   6 C        2.925    -0.045    29.110     8.848
    16   6 C        2.908    -0.045    29.118     8.848
    17   6 C        3.085     0.047    26.856     8.495
    18   6 C        3.112    -0.009    28.098     8.684
    19   6 C        2.914    -0.045    29.112     8.848
    20   6 C        3.021    -0.016    28.374     8.738
    21   6 C        2.932    -0.031    28.767     8.796
    22   6 C        2.922    -0.040    29.003     8.831
    23   6 C        2.932    -0.031    28.767     8.796
    24   6 C        3.021    -0.016    28.374     8.738
    25   6 C        3.112    -0.009    28.098     8.684
    26   6 C        2.914    -0.045    29.111     8.848
    27   6 C        2.911     0.056    26.737     8.479
    28   7 N        2.803    -0.046    22.130     6.987
    29   6 C        3.076     0.047    26.866     8.498
    30   6 C        2.909    -0.052    29.300     8.876
    31   6 C        2.924    -0.035    28.880     8.813
    32   6 C        2.919    -0.043    29.072     8.842
    33   6 C        2.912    -0.035    28.873     8.811
    34   6 C        3.067    -0.019    28.415     8.741
    35   6 C        3.067    -0.019    28.415     8.741
    36   6 C        2.912    -0.035    28.873     8.811
    37   6 C        2.919    -0.043    29.071     8.842
    38   6 C        2.924    -0.035    28.878     8.813
    39   6 C        2.909    -0.052    29.295     8.875
    40   6 C        3.076     0.047    26.863     8.498
    41   6 C        2.925    -0.045    29.110     8.848
    42   6 C        2.908    -0.045    29.118     8.848
    43   6 C        3.085     0.047    26.856     8.495
    44   7 N        2.832    -0.026    21.746     6.926
    45   6 C        3.470     0.035    22.039     7.044
    46   1 H        0.926     0.027     2.631     2.537
    47   1 H        0.926     0.029     2.597     2.520
    48   1 H        0.926     0.029     2.597     2.520
    49   1 H        0.926     0.029     2.597     2.520
    50   1 H        0.926     0.029     2.597     2.520
    51   1 H        0.926     0.027     2.630     2.536
    52   1 H        0.926     0.029     2.596     2.519
    53   1 H        0.926     0.029     2.597     2.520
    54   1 H        0.926     0.047     2.364     2.404
    55   1 H        0.926     0.045     2.389     2.417
    56   1 H        0.926     0.047     2.354     2.399
    57   1 H        0.926     0.038     2.478     2.462
    58   1 H        0.926     0.038     2.473     2.459
    59   1 H        0.926     0.038     2.478     2.462
    60   1 H        0.926     0.047     2.354     2.399
    61   1 H        0.926     0.029     2.597     2.520
    62   1 H        0.926     0.029     2.597     2.520
    63   1 H        0.926     0.027     2.631     2.537
    64   1 H        0.926     0.029     2.597     2.520
    65   1 H        0.926     0.029     2.597     2.520
    66   1 H        0.926     0.027     2.630     2.536
    67   1 H        0.926     0.029     2.596     2.519
    68   1 H        0.926     0.029     2.597     2.520
    69   1 H        0.926     0.047     2.364     2.404
    70   1 H        0.926     0.045     2.389     2.417

molecular dipole:
                 x           y           z       tot (Debye)
 q only:        0.000      -0.125       0.072
   full:        0.000      -0.051       0.026       0.145

 projected vibrational frequencies (cm⁻¹)
eigval :       -0.00    -0.00    -0.00     0.00     0.00     0.00
eigval :       12.50    14.33    24.93    32.78    33.76    41.18
eigval :       69.92    81.96   100.06   101.48   113.21   128.11
eigval :      134.98   137.83   145.00   148.10   166.13   190.45
eigval :      217.54   235.73   250.01   270.22   270.45   275.25
eigval :      278.54   292.39   299.81   344.98   372.51   381.03
eigval :      391.43   397.84   404.16   404.25   417.13   422.28
eigval :      422.46   434.03   434.19   456.67   480.22   506.08
eigval :      515.55   517.97   518.81   529.66   532.96   540.14
eigval :      541.32   541.37   561.20   567.71   579.44   588.45
eigval :      589.59   609.60   622.46   630.78   631.85   646.55
eigval :      670.59   673.60   673.66   686.04   696.95   704.15
eigval :      705.63   708.30   711.44   711.67   753.23   755.81
eigval :      766.36   766.43   776.34   777.85   778.47   790.35
eigval :      821.16   824.55   847.06   866.70   866.83   869.91
eigval :      870.40   878.98   881.34   882.14   896.87   897.07
eigval :      899.75   900.02   901.52   901.57   902.36   911.21
eigval :      913.01   917.50   917.71   918.40   920.23   922.50
eigval :      922.67   965.79   994.28  1011.22  1011.73  1024.12
eigval :     1068.21  1068.27  1071.27  1071.34  1072.02  1079.05
eigval :     1105.58  1113.68  1120.24  1148.97  1149.69  1150.69
eigval :     1171.15  1173.96  1177.75  1180.36  1180.38  1184.17
eigval :     1190.01  1191.30  1223.44  1229.88  1234.43  1235.31
eigval :     1239.64  1241.88  1253.02  1261.10  1297.78  1297.92
eigval :     1301.32  1301.87  1313.72  1318.71  1333.74  1341.33
eigval :     1350.11  1355.84  1356.60  1359.46  1361.60  1368.97
eigval :     1397.11  1409.82  1415.08  1425.81  1426.92  1428.69
eigval :     1439.87  1448.05  1457.66  1472.30  1475.25  1480.16
eigval :     1487.14  1487.15  1498.37  1559.42  1565.70  1572.41
eigval :     1572.98  1585.87  1587.23  1587.30  1596.85  1596.96
eigval :     1606.21  1606.79  1612.86  1613.29  1639.99  3069.61
eigval :     3069.61  3070.27  3070.28  3071.85  3075.19  3075.20
eigval :     3075.90  3075.92  3082.89  3082.91  3083.87  3083.91
eigval :     3086.54  3089.75  3089.76  3092.07  3092.09  3092.29
eigval :     3092.76  3093.66  3097.15  3097.61  3103.18  3105.21

   temp. (K)  partition function   enthalpy   heat capacity  entropy
                                   cal/mol     cal/K/mol   cal/K/mol   J/K/mol
 298.15  VIB  0.185E+14            18612.342    125.262    111.955
         ROT  0.805E+08              888.752      2.981     39.156
         INT  0.149E+22            19501.094    128.243    151.110
         TR   0.132E+29             1481.254      4.968     44.894
         TOT                       20982.3479   133.2109   196.0047   820.0836

       T/K    H(0)-H(T)+PV         H(T)/Eh          T*S/Eh         G(T)/Eh
   ------------------------------------------------------------------------
    298.15    0.334375E-01    0.565128E+00    0.931282E-01    0.472000E+00
   ------------------------------------------------------------------------

         :::::::::::::::::::::::::::::::::::::::::::::::::::::
         ::                  THERMODYNAMIC                  ::
         :::::::::::::::::::::::::::::::::::::::::::::::::::::
         :: total free energy        -111.144084684292 Eh   ::
         ::.................................................::
         :: total energy             -111.616084850986 Eh   ::
         :: zero point energy           0.531690817838 Eh   ::
         :: G(RRHO) w/o ZPVE           -0.059690651143 Eh   ::
         :: G(RRHO) contrib.            0.472000166694 Eh   ::
         :::::::::::::::::::::::::::::::::::::::::::::::::::::

           -------------------------------------------------
          | TOTAL ENERGY             -111.616084850986 Eh   |
          | TOTAL ENTHALPY           -111.050956533351 Eh   |
          | TOTAL FREE ENERGY        -111.144084684292 Eh   |
          | GRADIENT NORM               0.000085507736 Eh/α |
          | HOMO-LUMO GAP               2.348213719816 eV   |
           -------------------------------------------------

 * finished run on 2025/09/08 at 05:32:18.705
