   * xtb version 6.7.1 (edcfbbe) compiled by 'albert@albert-system' on 2024-07-22

   ID    Z sym.   atoms
    1    6 C      1, 3-6, 8-11, 13-24, 26-29, 31-37, 39-44, 46-57
    2    8 O      2, 12, 30, 38
    3    7 N      7, 25, 45
    4    1 H      58-98

          program call               : xtb data2507/toluene/DPNC/DPNC_toluene_T1_crest.xyz --gfn 2 --uhf 2 --gbsa toluene --ohess vtight --parallel 40 --molden --ceasefiles --namespace data2507/toluene/DPNC/DPNC_toluene_T1_finalOpt
      * Solvation model:               GBSA
        Solvent                        toluene
        Solvent mass                       9.2140E+01 g/mol
          :  Hamiltonian                  GFN2-xTB          :
 * total energy  :  -153.0585349 Eh     change       -0.2304148E-08 Eh
 * total energy  :  -153.0586604 Eh     change       -0.1254947E-03 Eh
 * total energy  :  -153.0587566 Eh     change       -0.9620279E-04 Eh
 * total energy  :  -153.0587931 Eh     change       -0.3644409E-04 Eh
 * total energy  :  -153.0588545 Eh     change       -0.6143959E-04 Eh
 * total energy  :  -153.0589204 Eh     change       -0.6584981E-04 Eh
 * total energy  :  -153.0589843 Eh     change       -0.6389676E-04 Eh
 * total energy  :  -153.0590387 Eh     change       -0.5442086E-04 Eh
 * total energy  :  -153.0591036 Eh     change       -0.6488617E-04 Eh
 * total energy  :  -153.0591231 Eh     change       -0.1954473E-04 Eh
 * total energy  :  -153.0595372 Eh     change       -0.9335106E-06 Eh
 * total energy  :  -153.0595379 Eh     change       -0.7197188E-06 Eh
 * total energy  :  -153.0595385 Eh     change       -0.5707908E-06 Eh
 * total energy  :  -153.0595391 Eh     change       -0.6111883E-06 Eh
 * total energy  :  -153.0595399 Eh     change       -0.7769540E-06 Eh
 * total energy  :  -153.0595409 Eh     change       -0.1042433E-05 Eh
 * total energy  :  -153.0595420 Eh     change       -0.1142876E-05 Eh
 * total energy  :  -153.0595430 Eh     change       -0.9161334E-06 Eh
 * total energy  :  -153.0595430 Eh     change       -0.1054110E-07 Eh
   *** GEOMETRY OPTIMIZATION CONVERGED AFTER 68 ITERATIONS ***

 final structure:
================
98
 xtb: 6.7.1 (edcfbbe)
C           -4.20538691934001        6.70920628118481       -0.53579911578312
O           -3.65511151407622        5.67336934084841       -1.32184680019479
C           -3.83388257394057        4.38303255734479       -0.92386044823380
C           -3.26988526601834        3.40668237125123       -1.75065603427850
C           -3.38161530474028        2.07135571486846       -1.43966064364544
C           -4.05762397370447        1.66652315601634       -0.28452368736156
N           -4.15200946078977        0.30938769060713        0.04564822775219
C           -5.33581304145896       -0.18422157383038        0.60164074484616
C           -5.30358592409688       -1.15301596150981        1.60272429712852
C           -6.47181893037593       -1.64710596261055        2.15257566846430
C           -7.70568555042860       -1.17402699175831        1.71534533208464
O           -8.91563452892662       -1.58721099960516        2.18489285422778
C           -8.95109180431760       -2.58258818452563        3.18522895743481
C           -7.74066530740998       -0.19641474505516        0.71638067812493
C           -6.57686877961952        0.28902802567396        0.16633836242618
C           -3.06091620149876       -0.52872869736294       -0.17399503024100
C           -3.26168902125678       -1.87422666338239       -0.53238744786247
C           -2.18940548854278       -2.71612774955737       -0.79477824774673
C           -0.90732017378204       -2.20303969790855       -0.70134268557011
C           -0.68719045791525       -0.85091264400985       -0.30117456230196
C           -1.76848741020251       -0.01744127166694       -0.04158966926914
C            0.72195648007936       -0.65599412659089       -0.28538396841468
C            1.52992208381980        0.44079003569215       -0.00989836990263
C            2.91020966081373        0.32150006023573       -0.18502135286195
N            3.73102205426515        1.42078076413257        0.05596533239372
C            3.25307562718830        2.71452970868043       -0.18271745988944
C            2.43434571993242        2.97988924646330       -1.27929755444041
C            1.92927406212755        4.24700496938990       -1.50161325758719
C            2.24516027412675        5.28817293264175       -0.63285360911470
O            1.80005727064300        6.56892395889465       -0.75058441081559
C            0.92648845924058        6.88954757400673       -1.81305440946788
C            3.08427069698991        5.03005433304843        0.45535573063634
C            3.57756104874602        3.76525144934920        0.67998428169555
C            5.02331236755678        1.24649195314725        0.56089218838301
C            6.07166790108323        2.06426775514423        0.12962503841390
C            7.34132311352381        1.89276223293334        0.63062449025487
C            7.60914537642753        0.89622363255419        1.57423407201375
O            8.90019755634979        0.81104480073583        1.99831213583674
C            9.24059828555800       -0.18241490175259        2.94170449372547
C            6.56752701452415        0.08066472559188        2.00752184285891
C            5.29143993956723        0.25915388879335        1.50724323614462
C            3.47030707302780       -0.89444616892422       -0.61866518009281
C            2.67714431456403       -2.00527559274962       -0.86605456096671
C            1.30916695373657       -1.89265698927020       -0.68716122799695
N            0.30959000679156       -2.81497359319859       -0.90794219237660
C            0.48417524486210       -4.13245884704121       -1.34821909593378
C           -0.16573033335027       -4.53325835674440       -2.52254010226742
C            0.01662494168855       -5.80505825857925       -3.02600441083408
C            0.83630648826696       -6.70913513931059       -2.36545179634034
C            1.48044523974437       -6.35586880548165       -1.16338882816897
C            2.28755326838064       -7.27251071648655       -0.46294699747400
C            2.87329216771760       -6.93322421883240        0.74299281228847
C            2.65754866509412       -5.67663189649360        1.28840859334440
C            1.88088962446627       -4.74555004529075        0.61740905086651
C            1.29972416709284       -5.04802153886631       -0.62417581681475
C           -4.62704228011514        2.64071865451204        0.53201440603731
C           -4.52110833978843        3.98374011805147        0.21864973129597
H           -3.94220826327096        7.63356035333025       -1.04740255483666
H           -3.77729281327350        6.71589699584318        0.47105741182358
H           -5.29433519148391        6.62635903569615       -0.47226721255977
H           -2.75322824792221        3.72475302238640       -2.64260786011559
H           -2.94957978760345        1.32690835814312       -2.09096152751301
H           -4.35148175256859       -1.51869241681679        1.95696203103827
H           -6.40487376721790       -2.39484770767372        2.92643242816945
H           -8.49288034492126       -3.51362618518671        2.83825551800565
H          -10.00699912890566       -2.75285598663438        3.38891819539228
H           -8.45398963922594       -2.24662465840284        4.10021615777669
H           -8.70225019517924        0.15936115353086        0.38117210209393
H           -6.61864131175189        1.03357453557971       -0.61429722550740
H           -4.26848974892008       -2.24916567276715       -0.62833646687853
H           -2.36010684532749       -3.74287371444708       -1.08000501930949
H           -1.61161050021238        1.00346980451245        0.26909717976472
H            1.09824316939654        1.36533063914362        0.33960179613438
H            2.19131522259349        2.18228015441223       -1.96516743759071
H            1.29618164751240        4.41050287811712       -2.35866122080507
H            1.40439923061376        6.73033336337678       -2.78425065805479
H            0.00124019258336        6.30855198320681       -1.75840149448309
H            0.69827196323884        7.94719589081955       -1.69209600997295
H            3.32459155455708        5.84359850346749        1.12166910471477
H            4.20925693997419        3.57700515070614        1.53486222113324
H            5.88190761803738        2.82939832694128       -0.60785189903520
H            8.15654864235713        2.51630447725882        0.29874993445554
H           10.30885507846682       -0.06454260940331        3.11584360897201
H            9.04392813679974       -1.18607028753307        2.55304546419567
H            8.70102068557606       -0.04045915550118        3.88287572462379
H            6.73393106593421       -0.69310935627008        2.73959856366868
H            4.48846180422863       -0.37141662340695        1.85847355759332
H            4.53441312440022       -0.95314969491324       -0.78501095859768
H            3.11909963832357       -2.92894355617699       -1.20730218789168
H           -0.77416233119081       -3.81446985629774       -3.05288380938426
H           -0.47180792488688       -6.09350520713730       -3.94634098954173
H            0.98101918909402       -7.70373845651075       -2.76263503454455
H            2.43563629281239       -8.25850171671505       -0.88209647310919
H            3.49098108906008       -7.65202364727387        1.26411893557693
H            3.09806524225623       -5.41623659633752        2.24111149827700
H            1.71774330096735       -3.77429121257344        1.06218309814063
H           -5.15012634167817        2.34334765526871        1.42859309131067
H           -4.96941870017763        4.70778048499129        0.87970627153654

          :  Hamiltonian                  GFN2-xTB          :
         :: gradient norm              0.000061157737 Eh/a0 ::
         :: HOMO-LUMO gap              0.106960330282 eV    ::
         :: SCC energy              -155.581299813963 Eh    ::
         :: -> dispersion             -0.131881808147 Eh    ::
         :: -> Gsolv                  -0.065692052314 Eh    ::
         :: repulsion energy           2.521756846204 Eh    ::

    * Orbital Energies and Occupations

         #    Occupation            Energy/Eh            Energy/eV
      -------------------------------------------------------------
         1        2.0000           -0.7224493             -19.6588
       ...           ...                  ...                  ...
       129        2.0000           -0.4031001             -10.9689
       130        2.0000           -0.4019712             -10.9382
       131        2.0000           -0.4006498             -10.9022
       132        2.0000           -0.3986486             -10.8478
       133        2.0000           -0.3893398             -10.5945
       134        2.0000           -0.3884052             -10.5690
       135        2.0000           -0.3838334             -10.4446
       136        2.0000           -0.3759554             -10.2303
       137        2.0000           -0.3749900             -10.2040
       138        2.0000           -0.3528815              -9.6024
       139        1.9973           -0.3472685              -9.4497
       140        1.0027           -0.3360583              -9.1446
       141        0.8878           -0.2474003              -6.7321 (HOMO)
       142        0.1122           -0.2434697              -6.6251 (LUMO)
       143        0.0000           -0.2334713              -6.3531
       144        0.0000           -0.2323598              -6.3228
       145        0.0000           -0.2304789              -6.2717
       146                         -0.2297381              -6.2515
       147                         -0.2288454              -6.2272
       148                         -0.2287154              -6.2237
       149                         -0.2275159              -6.1910
       150                         -0.2154964              -5.8640
       151                         -0.2084589              -5.6725
       152                         -0.1988719              -5.4116
       ...                                ...                  ...
       269                          0.7496774              20.3998
      -------------------------------------------------------------
                  HL-Gap            0.0039306 Eh            0.1070 eV

     #   Z          covCN         q      C6AA      α(0)
     1   6 C        3.642     0.032    20.382     6.491
     2   8 O        1.705    -0.282    18.676     5.835
     3   6 C        2.863     0.139    24.957     8.189
     4   6 C        2.919    -0.055    29.359     8.885
     5   6 C        2.921    -0.042    29.044     8.838
     6   6 C        2.925     0.054    26.779     8.486
     7   7 N        2.753    -0.044    22.083     6.979
     8   6 C        2.923     0.054    26.782     8.487
     9   6 C        2.922    -0.045    29.112     8.848
    10   6 C        2.916    -0.066    29.631     8.926
    11   6 C        2.863     0.139    24.957     8.189
    12   8 O        1.705    -0.282    18.678     5.835
    13   6 C        3.642     0.033    20.365     6.488
    14   6 C        2.919    -0.054    29.349     8.884
    15   6 C        2.921    -0.044    29.098     8.846
    16   6 C        2.922     0.057    26.711     8.475
    17   6 C        2.921    -0.067    29.680     8.934
    18   6 C        2.907    -0.049    29.209     8.862
    19   6 C        3.072     0.039    27.044     8.527
    20   6 C        3.061    -0.024    28.533     8.760
    21   6 C        2.913    -0.059    29.467     8.901
    22   6 C        3.061    -0.024    28.535     8.760
    23   6 C        2.913    -0.059    29.470     8.902
    24   6 C        2.922     0.058    26.709     8.475
    25   7 N        2.753    -0.041    22.038     6.972
    26   6 C        2.924     0.054    26.788     8.488
    27   6 C        2.922    -0.044    29.085     8.844
    28   6 C        2.916    -0.065    29.624     8.925
    29   6 C        2.863     0.141    24.934     8.185
    30   8 O        1.705    -0.280    18.651     5.831
    31   6 C        3.642     0.032    20.376     6.490
    32   6 C        2.919    -0.054    29.344     8.883
    33   6 C        2.921    -0.044    29.087     8.844
    34   6 C        2.923     0.054    26.784     8.487
    35   6 C        2.921    -0.044    29.085     8.844
    36   6 C        2.919    -0.054    29.342     8.883
    37   6 C        2.863     0.140    24.945     8.187
    38   8 O        1.705    -0.281    18.660     5.832
    39   6 C        3.642     0.033    20.368     6.488
    40   6 C        2.916    -0.065    29.624     8.925
    41   6 C        2.922    -0.044    29.092     8.845
    42   6 C        2.922    -0.066    29.642     8.928
    43   6 C        2.907    -0.046    29.139     8.851
    44   6 C        3.072     0.041    27.003     8.520
    45   7 N        2.798    -0.014    21.520     6.890
    46   6 C        2.909     0.022    27.522     8.602
    47   6 C        2.916    -0.055    29.367     8.886
    48   6 C        2.911    -0.045    29.120     8.849
    49   6 C        2.918    -0.064    29.605     8.922
    50   6 C        2.981     0.004    27.938     8.670
    51   6 C        2.920    -0.059    29.468     8.902
    52   6 C        2.913    -0.044    29.086     8.844
    53   6 C        2.914    -0.045    29.113     8.848
    54   6 C        2.917    -0.057    29.428     8.896
    55   6 C        2.979    -0.001    28.058     8.689
    56   6 C        2.922    -0.046    29.141     8.853
    57   6 C        2.916    -0.066    29.638     8.927
    58   1 H        0.925     0.069     2.093     2.262
    59   1 H        0.924     0.049     2.328     2.386
    60   1 H        0.924     0.049     2.331     2.387
    61   1 H        0.926     0.051     2.301     2.372
    62   1 H        0.926     0.047     2.355     2.400
    63   1 H        0.926     0.045     2.381     2.413
    64   1 H        0.926     0.048     2.348     2.396
    65   1 H        0.924     0.048     2.340     2.392
    66   1 H        0.925     0.068     2.103     2.268
    67   1 H        0.924     0.049     2.333     2.389
    68   1 H        0.926     0.052     2.296     2.369
    69   1 H        0.926     0.046     2.367     2.406
    70   1 H        0.926     0.028     2.609     2.526
    71   1 H        0.926     0.030     2.593     2.518
    72   1 H        0.926     0.033     2.548     2.496
    73   1 H        0.926     0.034     2.537     2.491
    74   1 H        0.926     0.046     2.366     2.406
    75   1 H        0.926     0.050     2.321     2.382
    76   1 H        0.924     0.049     2.335     2.390
    77   1 H        0.924     0.051     2.303     2.373
    78   1 H        0.925     0.069     2.098     2.265
    79   1 H        0.926     0.053     2.288     2.365
    80   1 H        0.926     0.046     2.366     2.405
    81   1 H        0.926     0.047     2.353     2.399
    82   1 H        0.926     0.053     2.286     2.364
    83   1 H        0.925     0.069     2.100     2.266
    84   1 H        0.924     0.049     2.339     2.391
    85   1 H        0.924     0.049     2.330     2.387
    86   1 H        0.926     0.048     2.344     2.394
    87   1 H        0.926     0.045     2.381     2.413
    88   1 H        0.926     0.029     2.605     2.524
    89   1 H        0.926     0.028     2.614     2.528
    90   1 H        0.926     0.018     2.771     2.603
    91   1 H        0.926     0.013     2.837     2.634
    92   1 H        0.926     0.009     2.913     2.669
    93   1 H        0.925     0.007     2.946     2.684
    94   1 H        0.925     0.008     2.922     2.673
    95   1 H        0.925     0.008     2.919     2.672
    96   1 H        0.926     0.008     2.924     2.674
    97   1 H        0.926     0.044     2.395     2.420
    98   1 H        0.926     0.049     2.330     2.387

molecular dipole:
                 x           y           z       tot (Debye)
 q only:       -1.358       4.180       1.223
   full:       -1.439       3.823       1.340      10.929

 projected vibrational frequencies (cm⁻¹)
eigval :       -0.00    -0.00     0.00     0.00     0.00     0.00
eigval :        7.53    10.96    15.06    18.88    20.61    27.05
eigval :       30.59    31.47    34.13    38.92    42.18    49.90
eigval :       57.25    59.18    70.69    77.59    84.84    95.48
eigval :       97.64   105.78   118.24   123.53   126.13   148.97
eigval :      152.47   159.89   160.09   169.43   171.54   178.31
eigval :      189.93   201.44   203.56   213.26   219.04   223.50
eigval :      231.35   236.19   238.36   244.90   252.74   270.07
eigval :      279.23   289.21   311.75   321.76   328.55   332.22
eigval :      340.99   348.75   355.67   363.07   370.98   381.24
eigval :      384.40   385.18   387.97   390.11   391.76   413.54
eigval :      432.37   434.79   443.91   447.47   448.42   456.87
eigval :      462.00   472.00   483.67   484.68   497.32   500.44
eigval :      505.63   507.20   512.23   521.40   531.19   542.92
eigval :      548.70   558.43   577.20   582.09   585.69   602.44
eigval :      607.88   609.16   610.21   611.87   622.45   627.34
eigval :      653.93   658.27   668.15   668.49   669.64   675.53
eigval :      678.76   696.16   701.87   732.78   759.54   768.56
eigval :      774.43   777.87   779.35   790.63   793.60   799.75
eigval :      804.41   805.68   808.34   809.94   813.66   821.08
eigval :      825.33   831.62   834.99   836.02   853.22   855.98
eigval :      856.45   856.92   865.88   872.95   876.54   878.18
eigval :      882.55   892.87   898.65   899.52   899.92   900.42
eigval :      901.68   913.86   915.69   916.04   916.90   926.05
eigval :      926.45   946.11   983.24  1001.77  1010.37  1015.31
eigval :     1016.56  1029.01  1038.21  1052.09  1052.43  1052.87
eigval :     1053.62  1091.59  1115.23  1115.48  1115.70  1115.92
eigval :     1116.27  1125.26  1125.70  1126.60  1126.86  1131.67
eigval :     1134.15  1148.53  1152.95  1153.53  1153.63  1154.25
eigval :     1164.59  1172.10  1175.24  1181.38  1182.00  1182.86
eigval :     1183.95  1186.15  1193.06  1215.35  1216.54  1221.13
eigval :     1221.88  1225.57  1231.01  1236.53  1242.25  1257.34
eigval :     1263.02  1264.00  1266.44  1266.68  1267.95  1276.67
eigval :     1300.48  1304.89  1312.26  1314.98  1322.29  1329.64
eigval :     1333.55  1336.38  1339.26  1342.99  1352.20  1360.00
eigval :     1379.17  1389.37  1394.71  1394.88  1395.16  1395.42
eigval :     1397.14  1412.03  1413.30  1414.71  1420.65  1421.06
eigval :     1428.84  1429.45  1437.89  1459.38  1461.37  1463.69
eigval :     1464.01  1464.27  1464.46  1465.41  1466.32  1472.11
eigval :     1475.40  1476.76  1477.04  1477.24  1488.38  1490.46
eigval :     1509.78  1524.60  1528.75  1529.98  1551.65  1552.20
eigval :     1553.40  1554.22  1565.01  1580.98  1583.77  1584.71
eigval :     1590.74  2938.60  2938.78  2939.18  2940.96  2950.31
eigval :     2950.64  2950.95  2952.64  3025.57  3025.78  3026.51
eigval :     3026.55  3048.32  3054.25  3057.47  3064.03  3066.73
eigval :     3074.00  3077.35  3086.37  3087.11  3087.71  3088.63
eigval :     3089.04  3089.16  3090.43  3090.62  3091.83  3092.12
eigval :     3095.35  3097.58  3100.38  3101.87  3104.63  3104.91
eigval :     3105.38  3105.84  3109.13  3109.72  3110.14  3111.18

   temp. (K)  partition function   enthalpy   heat capacity  entropy
                                   cal/mol     cal/K/mol   cal/K/mol   J/K/mol
 298.15  VIB  0.852E+24            29792.323    181.863    186.611
         ROT  0.167E+09              888.752      2.981     40.612
         INT  0.143E+33            30681.075    184.844    227.224
         TR   0.198E+29             1481.254      4.968     45.695
         TOT                       32162.3289   189.8119   272.9183  1141.8903

       T/K    H(0)-H(T)+PV         H(T)/Eh          T*S/Eh         G(T)/Eh
   ------------------------------------------------------------------------
    298.15    0.512539E-01    0.809231E+00    0.129672E+00    0.679558E+00
   ------------------------------------------------------------------------

         :::::::::::::::::::::::::::::::::::::::::::::::::::::
         ::                  THERMODYNAMIC                  ::
         :::::::::::::::::::::::::::::::::::::::::::::::::::::
         :: total free energy        -152.379984726526 Eh   ::
         ::.................................................::
         :: total energy             -153.059542969545 Eh   ::
         :: zero point energy           0.757976620530 Eh   ::
         :: G(RRHO) w/o ZPVE           -0.078418377510 Eh   ::
         :: G(RRHO) contrib.            0.679558243019 Eh   ::
         :::::::::::::::::::::::::::::::::::::::::::::::::::::

           -------------------------------------------------
          | TOTAL ENERGY             -153.059542969545 Eh   |
          | TOTAL ENTHALPY           -152.250312415404 Eh   |
          | TOTAL FREE ENERGY        -152.379984726526 Eh   |
          | GRADIENT NORM               0.000060960973 Eh/α |
          | HOMO-LUMO GAP               0.106956679930 eV   |
           -------------------------------------------------

 * finished run on 2025/09/12 at 21:50:54.964
