   * xtb version 6.7.1 (edcfbbe) compiled by 'albert@albert-system' on 2024-07-22

   ID    Z sym.   atoms
    1    6 C      1, 3-6, 8-11, 13-24, 26-29, 31-37, 39-44, 46-57
    2    8 O      2, 12, 30, 38
    3    7 N      7, 25, 45
    4    1 H      58-98

          program call               : xtb data2507/toluene/DPNC/DPNC_toluene_S0_crest.xyz --gfn 2 --gbsa toluene --ohess vtight --parallel 40 --molden --ceasefiles --namespace data2507/toluene/DPNC/DPNC_toluene_S0_finalOpt
      * Solvation model:               GBSA
        Solvent                        toluene
        Solvent mass                       9.2140E+01 g/mol
          :  Hamiltonian                  GFN2-xTB          :
 * total energy  :  -153.1414798 Eh     change       -0.1764988E-08 Eh
 * total energy  :  -153.1415914 Eh     change       -0.1116116E-03 Eh
 * total energy  :  -153.1416889 Eh     change       -0.9749688E-04 Eh
 * total energy  :  -153.1417381 Eh     change       -0.4918586E-04 Eh
 * total energy  :  -153.1418011 Eh     change       -0.6304132E-04 Eh
 * total energy  :  -153.1419044 Eh     change       -0.1032510E-03 Eh
 * total energy  :  -153.1419760 Eh     change       -0.7163858E-04 Eh
 * total energy  :  -153.1420105 Eh     change       -0.3448184E-04 Eh
 * total energy  :  -153.1420774 Eh     change       -0.6692029E-04 Eh
 * total energy  :  -153.1420975 Eh     change       -0.2010948E-04 Eh
 * total energy  :  -153.1424583 Eh     change       -0.6568282E-06 Eh
 * total energy  :  -153.1424589 Eh     change       -0.6281221E-06 Eh
 * total energy  :  -153.1424595 Eh     change       -0.5576990E-06 Eh
 * total energy  :  -153.1424600 Eh     change       -0.4852584E-06 Eh
 * total energy  :  -153.1424604 Eh     change       -0.4305066E-06 Eh
 * total energy  :  -153.1424608 Eh     change       -0.4101467E-06 Eh
 * total energy  :  -153.1424613 Eh     change       -0.4639271E-06 Eh
 * total energy  :  -153.1424619 Eh     change       -0.5771355E-06 Eh
 * total energy  :  -153.1424619 Eh     change       -0.2245258E-08 Eh
   *** GEOMETRY OPTIMIZATION CONVERGED AFTER 68 ITERATIONS ***

 final structure:
================
98
 xtb: 6.7.1 (edcfbbe)
C           -4.24959597221826        6.66142942294148       -0.59615108588701
O           -3.72666679760051        5.61912332070663       -1.38950167207911
C           -3.88744460368803        4.32894597848191       -0.96150887305506
C           -3.33644624761514        3.34254627086989       -1.78151368543415
C           -3.43488312194447        2.01167562491603       -1.44486023908512
C           -4.07828489858640        1.62097677433773       -0.26774604598800
N           -4.15268342174110        0.26816965277851        0.08907378237508
C           -5.30509407665705       -0.23509118441946        0.70003785584856
C           -5.22363747233957       -1.20636226077793        1.69424648168311
C           -6.36278627840676       -1.71547410203393        2.29229323008736
C           -7.61706507473608       -1.25081293774087        1.91514337603076
O           -8.80721292530201       -1.67810195880607        2.43971902305580
C           -8.78217854924216       -2.67188330184959        3.43988198478245
C           -7.70412383296825       -0.27167433139174        0.92389737188065
C           -6.56961413625970        0.22370836767314        0.32192664945276
C           -3.04667128463001       -0.56273614946689       -0.14597339434318
C           -3.23571169628913       -1.89436676543942       -0.54791910706673
C           -2.17132801576404       -2.72896329296301       -0.82070602137514
C           -0.88723475834733       -2.21097234824609       -0.71914310856533
C           -0.68245374034473       -0.87665007761974       -0.29943412476129
C           -1.75980856147368       -0.05908545581617        0.00084793452550
C            0.73605554238803       -0.66081551338331       -0.30524987491638
C            1.52301400761068        0.44426116895860       -0.02238372145767
C            2.89751162765929        0.35470352474923       -0.20646312403125
N            3.71463624985732        1.46957692145488        0.03203025463086
C            3.22964181149911        2.75492360676581       -0.24301504794294
C            2.43548650474937        2.99312685066031       -1.36176711250577
C            1.91844099908571        4.24999697150143       -1.61890215702540
C            2.20326001323325        5.30996531594921       -0.76586408085323
O            1.74470744107353        6.59003149086757       -0.91950414698772
C            0.89563328335899        6.87404930755558       -2.00967275328718
C            3.01814485287403        5.08207370921827        0.34423983352633
C            3.51704583067876        3.82556637012104        0.60643896078436
C            4.98462905837886        1.30673874797702        0.59576938334310
C            6.04751842811305        2.12358170021510        0.20206834304193
C            7.29686392943862        1.96436138015804        0.75776643714982
C            7.53177141708961        0.97626277519679        1.71558868557999
O            8.81175396414747        0.90032398113297        2.19476277020841
C            9.10912125767645       -0.07936516320262        3.16448798359542
C            6.47987810154840        0.15725187477573        2.10844148595085
C            5.22229815596553        0.32874478726641        1.55769271998361
C            3.46546111547891       -0.84784336823085       -0.65720618280582
C            2.69823919464584       -1.96585013988659       -0.90996896926106
C            1.32490524198846       -1.87485545631023       -0.72501965503843
N            0.33433071084584       -2.81190067677691       -0.94837002569712
C            0.52642111361444       -4.11863359634654       -1.43034570260391
C           -0.06384872485058       -4.49742535177803       -2.61253314353057
C            0.12656820270936       -5.78662880904262       -3.12538119792861
C            0.91744846892274       -6.68300509874719       -2.46249951221102
C            1.52791463525203       -6.33675660514908       -1.23859486241893
C            2.33270541517476       -7.25346036146434       -0.52842473778837
C            2.88612938857192       -6.91678002546965        0.67483636506609
C            2.64591937406497       -5.65084909168936        1.23060821189716
C            1.88114515706468       -4.73438472171900        0.56379760917507
C            1.31939082102071       -5.04109057510487       -0.69393979443918
C           -4.63020738287758        2.60782423835684        0.54378795761538
C           -4.54415364117546        3.94618657920678        0.20198782439373
H           -4.00346677527689        7.58112116694295       -1.12470752895556
H           -3.78848799680063        6.67774296111882        0.39636008447820
H           -5.33627933576466        6.58039118478461       -0.49471508505669
H           -2.83843261945175        3.64763981776905       -2.68893201052654
H           -3.00696169343757        1.26054313309690       -2.09173973169997
H           -4.25505499206202       -1.57026899098832        2.00389158246555
H           -6.25430103010923       -2.46831011288722        3.05687884255130
H           -8.33257220982695       -3.59911848649790        3.07081921661793
H           -9.82477339859780       -2.85277558039730        3.69680747195268
H           -8.24266507930090       -2.33126206790540        4.32924293037249
H           -8.68225707883334        0.07983419822841        0.63390627891536
H           -6.65435852151106        0.97324841836076       -0.45078098519840
H           -4.24423078245147       -2.26710358240387       -0.64930747019400
H           -2.33907223790997       -3.75228086094429       -1.12127223432581
H           -1.60349989587254        0.95805340431630        0.32631474106735
H            1.07365343738104        1.36496181262762        0.31695045029536
H            2.20969670633231        2.18036135901688       -2.03621687136564
H            1.29890948256236        4.38770208611350       -2.49076467607547
H            1.39865500009199        6.69625238108497       -2.96534396199115
H           -0.02536382279733        6.28448133679398       -1.96432131386363
H            0.65281612910026        7.93183668915354       -1.92102987449702
H            3.23615825327888        5.91059674092347        1.00033299256737
H            4.13233696655135        3.66347890556268        1.47890345562043
H            5.88371926403819        2.88690925033382       -0.54395011443365
H            8.12013157425002        2.59356212327055        0.45659512348276
H           10.16747371518669        0.04460192640788        3.38867684612982
H            8.93491494927924       -1.08897510420354        2.77932381789415
H            8.52431842068530        0.07092695120393        4.07739822794848
H            6.62062859923918       -0.61372436838477        2.84931738455211
H            4.41117846160383       -0.30762387363647        1.87959971011440
H            4.53300829752943       -0.88897876537297       -0.81459189681692
H            3.15670246953351       -2.87934181536403       -1.25752251530059
H           -0.66798864064766       -3.78549293359715       -3.15580945156958
H           -0.34660956115152       -6.05695682863293       -4.05785194799981
H            1.08144506151952       -7.67311900153438       -2.86212862461259
H            2.49894588426697       -8.23209368725946       -0.95576354384106
H            3.50143710887909       -7.62461456106141        1.21098511348128
H            3.06817989430555       -5.40439130375516        2.19392979073903
H            1.69479557918987       -3.76545448563590        1.00228817835343
H           -5.13268473437193        2.32497924372321        1.45714344969260
H           -4.98392935685057        4.67864035644109        0.86015730023805

          :  Hamiltonian                  GFN2-xTB          :
         :: gradient norm              0.000035062452 Eh/a0 ::
         :: HOMO-LUMO gap              1.811609208587 eV    ::
         :: SCC energy              -155.680386090784 Eh    ::
         :: -> dispersion             -0.131532542840 Eh    ::
         :: -> Gsolv                  -0.062850425411 Eh    ::
         :: repulsion energy           2.537924215476 Eh    ::

    * Orbital Energies and Occupations

         #    Occupation            Energy/Eh            Energy/eV
      -------------------------------------------------------------
         1        2.0000           -0.7156279             -19.4732
       ...           ...                  ...                  ...
       128        2.0000           -0.4064110             -11.0590
       129        2.0000           -0.4059683             -11.0470
       130        2.0000           -0.4053904             -11.0312
       131        2.0000           -0.4050333             -11.0215
       132        2.0000           -0.4037341             -10.9862
       133        2.0000           -0.3964671             -10.7884
       134        2.0000           -0.3853028             -10.4846
       135        2.0000           -0.3825293             -10.4092
       136        2.0000           -0.3813614             -10.3774
       137        2.0000           -0.3787720             -10.3069
       138        2.0000           -0.3681814             -10.0187
       139        2.0000           -0.3397782              -9.2458
       140        2.0000           -0.3318933              -9.0313 (HOMO)
       141                         -0.2653179              -7.2197 (LUMO)
       142                         -0.2449539              -6.6655
       143                         -0.2337388              -6.3604
       144                         -0.2261349              -6.1534
       145                         -0.2253219              -6.1313
       146                         -0.2243130              -6.1039
       147                         -0.2225218              -6.0551
       148                         -0.2209823              -6.0132
       149                         -0.2202809              -5.9941
       150                         -0.2195063              -5.9731
       151                         -0.2106312              -5.7316
       ...                                ...                  ...
       269                          0.7464009              20.3106
      -------------------------------------------------------------
                  HL-Gap            0.0665754 Eh            1.8116 eV

     #   Z          covCN         q      C6AA      α(0)
     1   6 C        3.642     0.036    20.307     6.479
     2   8 O        1.705    -0.295    18.897     5.869
     3   6 C        2.863     0.132    25.114     8.214
     4   6 C        2.919    -0.056    29.398     8.891
     5   6 C        2.922    -0.048    29.181     8.859
     6   6 C        2.922     0.056    26.745     8.481
     7   7 N        2.751    -0.080    22.786     7.090
     8   6 C        2.920     0.056    26.750     8.481
     9   6 C        2.923    -0.052    29.281     8.874
    10   6 C        2.916    -0.068    29.686     8.935
    11   6 C        2.863     0.131    25.122     8.216
    12   8 O        1.705    -0.295    18.906     5.871
    13   6 C        3.642     0.037    20.297     6.477
    14   6 C        2.919    -0.056    29.396     8.891
    15   6 C        2.922    -0.049    29.224     8.865
    16   6 C        2.923     0.054    26.787     8.488
    17   6 C        2.925    -0.052    29.286     8.875
    18   6 C        2.909    -0.051    29.275     8.872
    19   6 C        3.077     0.041    27.011     8.521
    20   6 C        3.068    -0.018    28.393     8.737
    21   6 C        2.916    -0.054    29.335     8.882
    22   6 C        3.067    -0.019    28.404     8.739
    23   6 C        2.916    -0.054    29.353     8.884
    24   6 C        2.922     0.054    26.779     8.486
    25   7 N        2.751    -0.079    22.781     7.089
    26   6 C        2.921     0.056    26.753     8.482
    27   6 C        2.924    -0.050    29.246     8.869
    28   6 C        2.916    -0.067    29.672     8.932
    29   6 C        2.863     0.132    25.105     8.213
    30   8 O        1.705    -0.294    18.894     5.869
    31   6 C        3.642     0.037    20.294     6.477
    32   6 C        2.919    -0.056    29.403     8.892
    33   6 C        2.922    -0.049    29.215     8.864
    34   6 C        2.920     0.056    26.751     8.482
    35   6 C        2.922    -0.049    29.211     8.863
    36   6 C        2.919    -0.056    29.393     8.891
    37   6 C        2.863     0.132    25.116     8.215
    38   8 O        1.705    -0.295    18.902     5.870
    39   6 C        3.642     0.037    20.299     6.478
    40   6 C        2.916    -0.068    29.687     8.935
    41   6 C        2.923    -0.051    29.270     8.872
    42   6 C        2.926    -0.052    29.282     8.874
    43   6 C        2.909    -0.050    29.234     8.866
    44   6 C        3.077     0.042    26.984     8.517
    45   7 N        2.802    -0.045    22.116     6.985
    46   6 C        2.908     0.056    26.739     8.479
    47   6 C        2.920    -0.044    29.103     8.847
    48   6 C        2.914    -0.031    28.771     8.796
    49   6 C        2.918    -0.040    28.988     8.829
    50   6 C        2.986     0.013    27.721     8.637
    51   6 C        2.919    -0.035    28.872     8.811
    52   6 C        2.915    -0.029    28.730     8.789
    53   6 C        2.916    -0.030    28.748     8.792
    54   6 C        2.916    -0.032    28.803     8.801
    55   6 C        2.986     0.002    27.972     8.676
    56   6 C        2.923    -0.051    29.266     8.872
    57   6 C        2.916    -0.068    29.682     8.934
    58   1 H        0.925     0.065     2.136     2.286
    59   1 H        0.924     0.045     2.388     2.417
    60   1 H        0.924     0.045     2.384     2.415
    61   1 H        0.926     0.044     2.398     2.422
    62   1 H        0.926     0.039     2.459     2.452
    63   1 H        0.926     0.037     2.490     2.468
    64   1 H        0.926     0.041     2.439     2.442
    65   1 H        0.924     0.045     2.388     2.417
    66   1 H        0.925     0.065     2.146     2.291
    67   1 H        0.924     0.044     2.390     2.418
    68   1 H        0.926     0.044     2.399     2.422
    69   1 H        0.926     0.038     2.478     2.462
    70   1 H        0.926     0.033     2.545     2.495
    71   1 H        0.926     0.032     2.552     2.498
    72   1 H        0.926     0.031     2.576     2.510
    73   1 H        0.926     0.031     2.572     2.508
    74   1 H        0.926     0.037     2.485     2.465
    75   1 H        0.926     0.041     2.434     2.440
    76   1 H        0.924     0.044     2.395     2.420
    77   1 H        0.924     0.046     2.370     2.408
    78   1 H        0.925     0.065     2.146     2.291
    79   1 H        0.926     0.044     2.397     2.421
    80   1 H        0.926     0.038     2.475     2.460
    81   1 H        0.926     0.038     2.473     2.459
    82   1 H        0.926     0.044     2.397     2.421
    83   1 H        0.925     0.065     2.145     2.290
    84   1 H        0.924     0.045     2.386     2.415
    85   1 H        0.924     0.045     2.388     2.417
    86   1 H        0.926     0.041     2.433     2.439
    87   1 H        0.926     0.037     2.488     2.467
    88   1 H        0.926     0.033     2.547     2.496
    89   1 H        0.926     0.031     2.572     2.508
    90   1 H        0.926     0.039     2.456     2.451
    91   1 H        0.926     0.039     2.462     2.454
    92   1 H        0.926     0.039     2.456     2.451
    93   1 H        0.926     0.037     2.486     2.465
    94   1 H        0.926     0.035     2.513     2.479
    95   1 H        0.926     0.034     2.532     2.488
    96   1 H        0.926     0.035     2.520     2.482
    97   1 H        0.926     0.036     2.498     2.472
    98   1 H        0.926     0.041     2.434     2.440

molecular dipole:
                 x           y           z       tot (Debye)
 q only:       -0.167      -1.305       0.361
   full:       -0.288      -1.455       0.503       3.981

 projected vibrational frequencies (cm⁻¹)
eigval :       -0.00    -0.00    -0.00    -0.00     0.00     0.00
eigval :        9.41     9.62    15.23    17.20    19.14    24.94
eigval :       30.01    32.77    35.44    39.01    41.77    47.62
eigval :       54.78    58.64    73.44    75.98    84.59    92.94
eigval :       93.75   103.61   117.34   121.95   122.62   145.80
eigval :      148.63   155.34   158.15   164.32   168.25   176.91
eigval :      190.73   201.13   206.60   214.31   219.01   230.39
eigval :      232.54   236.17   240.41   247.48   255.46   268.83
eigval :      281.36   291.46   314.20   322.97   330.17   334.56
eigval :      346.77   351.65   361.76   366.88   379.99   385.05
eigval :      387.88   388.48   389.89   392.50   401.61   419.64
eigval :      422.57   428.10   434.31   443.61   445.91   452.99
eigval :      460.15   467.42   483.24   490.70   496.58   501.53
eigval :      502.23   510.56   515.63   525.58   535.12   541.64
eigval :      555.63   567.72   572.27   582.90   603.04   608.65
eigval :      609.07   611.94   615.66   616.43   625.94   636.17
eigval :      656.97   663.52   664.41   667.06   672.00   674.16
eigval :      698.87   705.26   720.37   759.49   761.82   775.84
eigval :      775.96   777.68   797.74   800.55   801.48   806.09
eigval :      808.33   814.07   815.09   822.96   825.01   836.24
eigval :      856.69   857.55   859.83   860.07   863.63   875.05
eigval :      877.14   883.55   890.76   894.07   897.04   897.51
eigval :      898.72   901.43   907.22   912.05   914.98   915.67
eigval :      916.85   918.31   918.81   923.40   927.88   928.00
eigval :      929.02   953.40   985.80  1004.47  1014.49  1017.76
eigval :     1019.38  1035.90  1048.17  1055.51  1055.73  1056.20
eigval :     1056.31  1082.65  1115.15  1118.19  1118.45  1118.58
eigval :     1119.08  1127.18  1127.49  1128.49  1129.24  1140.28
eigval :     1151.07  1155.44  1155.84  1155.86  1156.44  1165.39
eigval :     1169.71  1178.41  1179.59  1185.13  1185.73  1187.75
eigval :     1188.61  1189.55  1203.29  1213.26  1214.47  1216.30
eigval :     1219.94  1222.59  1241.42  1244.65  1250.11  1264.83
eigval :     1266.98  1268.78  1269.83  1271.46  1284.57  1309.03
eigval :     1314.95  1318.60  1321.96  1330.81  1333.77  1335.60
eigval :     1343.85  1345.93  1347.14  1354.16  1366.55  1389.37
eigval :     1393.72  1395.87  1396.25  1396.62  1396.82  1411.26
eigval :     1413.80  1417.16  1421.13  1421.82  1424.90  1433.14
eigval :     1455.11  1463.56  1464.52  1465.24  1466.13  1466.18
eigval :     1471.07  1471.31  1476.68  1477.20  1480.64  1480.92
eigval :     1481.80  1482.19  1486.57  1505.68  1556.82  1561.20
eigval :     1562.28  1564.80  1568.34  1568.82  1574.11  1594.62
eigval :     1601.38  1607.12  1607.54  1608.12  1608.28  1608.43
eigval :     1617.60  2930.59  2931.66  2932.34  2932.69  2944.15
eigval :     2945.30  2945.60  2946.02  3022.72  3023.35  3023.53
eigval :     3023.67  3069.59  3074.56  3075.79  3079.40  3079.88
eigval :     3082.65  3082.81  3082.97  3083.64  3083.81  3084.51
eigval :     3085.26  3086.18  3086.81  3086.88  3090.18  3091.55
eigval :     3091.78  3092.83  3094.17  3095.67  3099.57  3099.82
eigval :     3100.04  3100.18  3104.35  3104.49  3104.84  3105.94

   temp. (K)  partition function   enthalpy   heat capacity  entropy
                                   cal/mol     cal/K/mol   cal/K/mol   J/K/mol
 298.15  VIB  0.103E+25            29653.861    180.172    186.237
         ROT  0.168E+09              888.752      2.981     40.613
         INT  0.172E+33            30542.613    183.153    226.850
         TR   0.198E+29             1481.254      4.968     45.695
         TOT                       32023.8669   188.1209   272.5448  1140.3275

       T/K    H(0)-H(T)+PV         H(T)/Eh          T*S/Eh         G(T)/Eh
   ------------------------------------------------------------------------
    298.15    0.510333E-01    0.813408E+00    0.129495E+00    0.683913E+00
   ------------------------------------------------------------------------

         :::::::::::::::::::::::::::::::::::::::::::::::::::::
         ::                  THERMODYNAMIC                  ::
         :::::::::::::::::::::::::::::::::::::::::::::::::::::
         :: total free energy        -152.458549014525 Eh   ::
         ::.................................................::
         :: total energy             -153.142461875419 Eh   ::
         :: zero point energy           0.762374418118 Eh   ::
         :: G(RRHO) w/o ZPVE           -0.078461557224 Eh   ::
         :: G(RRHO) contrib.            0.683912860894 Eh   ::
         :::::::::::::::::::::::::::::::::::::::::::::::::::::

           -------------------------------------------------
          | TOTAL ENERGY             -153.142461875419 Eh   |
          | TOTAL ENTHALPY           -152.329054176911 Eh   |
          | TOTAL FREE ENERGY        -152.458549014525 Eh   |
          | GRADIENT NORM               0.000035066207 Eh/α |
          | HOMO-LUMO GAP               1.811609359210 eV   |
           -------------------------------------------------

 * finished run on 2025/09/12 at 21:28:19.159
