   * xtb version 6.7.1 (edcfbbe) compiled by 'albert@albert-system' on 2024-07-22

   ID    Z sym.   atoms
    1    6 C      1, 3-6, 8-11, 13-24, 26-29, 31-37, 39-44, 46-57
    2    8 O      2, 12, 30, 38
    3    7 N      7, 25, 45
    4    1 H      58-98

          program call               : xtb data2507/toluene/DPNC/DPNC_toluene_S0_finalOpt.xtbopt.xyz --gfn 2 --uhf 2 --gbsa toluene --ohess vtight --parallel 40 --molden --ceasefiles --namespace data2507/toluene/DPNC/DPNC_toluene_T1_preOpt
      * Solvation model:               GBSA
        Solvent                        toluene
        Solvent mass                       9.2140E+01 g/mol
          :  Hamiltonian                  GFN2-xTB          :
 * total energy  :  -153.0566742 Eh     change       -0.7834984E-08 Eh
 * total energy  :  -153.0588663 Eh     change       -0.2192146E-02 Eh
 * total energy  :  -153.0593846 Eh     change       -0.5182622E-03 Eh
 * total energy  :  -153.0594485 Eh     change       -0.6394424E-04 Eh
 * total energy  :  -153.0594784 Eh     change       -0.2983777E-04 Eh
 * total energy  :  -153.0594886 Eh     change       -0.1022284E-04 Eh
 * total energy  :  -153.0594968 Eh     change       -0.8246109E-05 Eh
 * total energy  :  -153.0595052 Eh     change       -0.8407508E-05 Eh
 * total energy  :  -153.0595113 Eh     change       -0.6044578E-05 Eh
 * total energy  :  -153.0595170 Eh     change       -0.5756699E-05 Eh
 * total energy  :  -153.0595415 Eh     change       -0.2903265E-06 Eh
 * total energy  :  -153.0595418 Eh     change       -0.2884002E-06 Eh
 * total energy  :  -153.0595420 Eh     change       -0.2833639E-06 Eh
 * total energy  :  -153.0595423 Eh     change       -0.2752177E-06 Eh
 * total energy  :  -153.0595426 Eh     change       -0.2752177E-06 Eh
 * total energy  :  -153.0595429 Eh     change       -0.2684405E-06 Eh
 * total energy  :  -153.0595431 Eh     change       -0.2437428E-06 Eh
 * total energy  :  -153.0595433 Eh     change       -0.1867899E-06 Eh
 * total energy  :  -153.0595433 Eh     change       -0.7800054E-09 Eh
   *** GEOMETRY OPTIMIZATION CONVERGED AFTER 44 ITERATIONS ***

 final structure:
================
98
 xtb: 6.7.1 (edcfbbe)
C           -4.29544632403689        6.66332314238539       -0.55109182085694
O           -3.74659130959784        5.62880540153712       -1.33983377692912
C           -3.90418156388225        4.33911918326750       -0.93105595815740
C           -3.34210044809580        3.36399519639149       -1.76061463093790
C           -3.43284662343620        2.02961663928274       -1.43919078682080
C           -4.08490321758511        1.62423697691725       -0.27041441807785
N           -4.15461036507338        0.26842350761748        0.06974680364826
C           -5.31477602295247       -0.23814230040643        0.66230770438190
C           -5.23937908629056       -1.20063786448373        1.66729646938349
C           -6.38346842455341       -1.70549339451168        2.25657304009765
C           -7.63626100634632       -1.25026574076862        1.85574616112815
O           -8.82544448402901       -1.67413453517906        2.36692734690459
C           -8.81691769082917       -2.66369298008994        3.37361983633514
C           -7.71470641472792       -0.28067906014943        0.85145096762935
C           -6.57487346658329        0.21570351997180        0.26227769652057
C           -3.05540465385195       -0.55544801293106       -0.16608025785198
C           -3.24425360445960       -1.90348193626198       -0.52104597555568
C           -2.16492390389110       -2.73279614022204       -0.79505546641990
C           -0.88799012629085       -2.20488842327593       -0.71396659733358
C           -0.67985183468115       -0.84947574941572       -0.31849009305979
C           -1.76819824261905       -0.02781325484726       -0.05054039201825
C            0.72707046413431       -0.63997526607844       -0.30994321764142
C            1.52491440149508        0.46534480129834       -0.03881465169987
C            2.90630464723069        0.35585633852715       -0.20847275176799
N            3.71816748405504        1.46250918016268        0.03451749131042
C            3.23769790862137        2.74853274537686       -0.23529189666795
C            2.43392003380920        2.98624007568484       -1.34933085166597
C            1.92259601841959        4.24455487331869       -1.60425400008746
C            2.21681887179164        5.30497987719480       -0.75132420762811
O            1.76325082995541        6.57947598705056       -0.90094216477392
C            0.90312868433653        6.87180713473003       -1.98233502743904
C            3.04106685697950        5.07474504315755        0.35433491133292
C            3.54054399292504        3.81855205757524        0.61151755623305
C            4.99533788950300        1.29797724677806        0.57818559779208
C            6.05325657778249        2.11814434225143        0.17555501037881
C            7.30691862032972        1.95602183327355        0.71833729441006
C            7.54906810601762        0.96685503653361        1.67650446488708
O            8.82565987333946        0.89218782674046        2.14423173922995
C            9.13871626280234       -0.08984190607904        3.10881229833671
C            6.49837883859873        0.14755557161322        2.07983586474912
C            5.23835645786551        0.31654979091434        1.53759928304939
C            3.47829515136544       -0.85613973049591       -0.63652015950758
C            2.69469847580443       -1.97341973094334       -0.88610580212764
C            1.32554217439043       -1.87196758436624       -0.70958169071925
N            0.33419763155370       -2.80437533452268       -0.92627636699182
C            0.52012845354167       -4.11903399513511       -1.37047391914896
C           -0.13133534644228       -4.52328020083243       -2.54275273249992
C            0.06389087762970       -5.79073904962510       -3.05230567372151
C            0.89860731508262       -6.68711769467959       -2.40014069071338
C            1.54469778029841       -6.33073257495439       -1.20006572493154
C            2.36755135712807       -7.23979320844340       -0.50809848781641
C            2.95548414455672       -6.89805378374354        0.69606527770274
C            2.72581153493927       -5.64701671294861        1.24855837034194
C            1.93313492934159       -4.72337959431749        0.58608043048272
C            1.34999525521473       -5.02770617227797       -0.65413147661403
C           -4.65304941800785        2.59715132709728        0.54871019193508
C           -4.56869144135404        3.93913235987133        0.22459331704343
H           -4.05204467343674        7.58726669777085       -1.07312894525254
H           -3.85009297300868        6.68165413404833        0.44811758093508
H           -5.38209928639623        6.56830108725023       -0.46814094304566
H           -2.84331353936738        3.68238157913145       -2.66257057210824
H           -3.00241653159659        1.28612306959491       -2.09263545025233
H           -4.27239947385172       -1.55251554570706        1.99408750391783
H           -6.28290927995734       -2.44722377069600        3.03254905405292
H           -8.35944840129708       -3.59155540874755        3.01729156626188
H           -9.86361599520583       -2.84472810341484        3.61245009691443
H           -8.29436184057550       -2.31661349738742        4.27008547436168
H           -8.69067678063113        0.06062397705205        0.54393903737893
H           -6.65077570259699        0.95421378577035       -0.52147983973268
H           -4.24771023114821       -2.29048369408285       -0.60369771422221
H           -2.32649318579029       -3.76173531453887       -1.07774052539600
H           -1.62042068766372        0.99564763520213        0.25622195118727
H            1.08531287925142        1.38830766099104        0.30513294158755
H            2.20741791279514        2.17349467147048       -2.02297592849749
H            1.30168307011562        4.38607087798809       -2.47402090126121
H            1.39657524746784        6.69697990631799       -2.94303790577287
H           -0.01854953166393        6.28482009616068       -1.92949691829268
H            0.66513228008591        7.92983982163277       -1.88604086716012
H            3.26469221181659        5.90281392203979        1.00846465891119
H            4.15949320075566        3.65247260034465        1.48015137714182
H            5.88381042624417        2.87796547940386       -0.57228146106279
H            8.12925722529026        2.58187004400838        0.40915735260618
H           10.19935961099130        0.03686291192387        3.31940444621563
H            8.96230082085416       -1.09854457159477        2.72353186597498
H            8.56521345068449        0.05768555503548        4.02883250425076
H            6.64488589742814       -0.62128174422032        2.82132613735027
H            4.42782017710284       -0.31653074308489        1.86617258376292
H            4.54393636327867       -0.90631637959366       -0.79612959530439
H            3.14511355220754       -2.89377363217011       -1.22515952352688
H           -0.75132922947312       -3.80991865588120       -3.06698865563900
H           -0.42600130890951       -6.08150354694801       -3.97112766198112
H            1.05375886453838       -7.67813236916148       -2.80232202613948
H            2.52637764068072       -8.22183300413224       -0.93252249687847
H            3.58586584905061       -7.61070828201733        1.21038130913463
H            3.16805654766541       -5.38513407558713        2.20003627326723
H            1.75909952190469       -3.75648252312175        1.03619754858063
H           -5.15743917233171        2.29985768491438        1.45595326770376
H           -5.01503210340961        4.66220385299795        0.88805124123823

          :  Hamiltonian                  GFN2-xTB          :
         :: gradient norm              0.000023051223 Eh/a0 ::
         :: HOMO-LUMO gap              0.106360963401 eV    ::
         :: SCC energy              -155.581297140796 Eh    ::
         :: -> dispersion             -0.131775699319 Eh    ::
         :: -> Gsolv                  -0.065715730331 Eh    ::
         :: repulsion energy           2.521753851349 Eh    ::

    * Orbital Energies and Occupations

         #    Occupation            Energy/Eh            Energy/eV
      -------------------------------------------------------------
         1        2.0000           -0.7223627             -19.6565
       ...           ...                  ...                  ...
       129        2.0000           -0.4032358             -10.9726
       130        2.0000           -0.4020386             -10.9400
       131        2.0000           -0.4007375             -10.9046
       132        2.0000           -0.3988043             -10.8520
       133        2.0000           -0.3893104             -10.5937
       134        2.0000           -0.3883596             -10.5678
       135        2.0000           -0.3838941             -10.4463
       136        2.0000           -0.3759963             -10.2314
       137        2.0000           -0.3748893             -10.2013
       138        2.0000           -0.3528977              -9.6028
       139        1.9970           -0.3472576              -9.4494
       140        1.0030           -0.3362252              -9.1492
       141        0.8867           -0.2474679              -6.7339 (HOMO)
       142        0.1133           -0.2435590              -6.6276 (LUMO)
       143        0.0000           -0.2334169              -6.3516
       144        0.0000           -0.2322730              -6.3205
       145        0.0000           -0.2304745              -6.2715
       146                         -0.2297082              -6.2507
       147                         -0.2288117              -6.2263
       148                         -0.2286759              -6.2226
       149                         -0.2275247              -6.1913
       150                         -0.2153108              -5.8589
       151                         -0.2085230              -5.6742
       152                         -0.1988292              -5.4104
       ...                                ...                  ...
       269                          0.7496942              20.4002
      -------------------------------------------------------------
                  HL-Gap            0.0039089 Eh            0.1064 eV

     #   Z          covCN         q      C6AA      α(0)
     1   6 C        3.642     0.032    20.381     6.491
     2   8 O        1.705    -0.282    18.674     5.834
     3   6 C        2.863     0.139    24.957     8.189
     4   6 C        2.919    -0.055    29.358     8.885
     5   6 C        2.921    -0.042    29.045     8.838
     6   6 C        2.925     0.054    26.778     8.486
     7   7 N        2.753    -0.044    22.082     6.979
     8   6 C        2.922     0.054    26.780     8.486
     9   6 C        2.922    -0.045    29.113     8.848
    10   6 C        2.916    -0.065    29.630     8.926
    11   6 C        2.863     0.139    24.957     8.189
    12   8 O        1.705    -0.282    18.677     5.835
    13   6 C        3.642     0.033    20.365     6.488
    14   6 C        2.919    -0.054    29.349     8.884
    15   6 C        2.921    -0.044    29.099     8.846
    16   6 C        2.922     0.057    26.714     8.476
    17   6 C        2.921    -0.067    29.676     8.933
    18   6 C        2.907    -0.049    29.211     8.862
    19   6 C        3.072     0.039    27.042     8.526
    20   6 C        3.061    -0.024    28.534     8.760
    21   6 C        2.913    -0.059    29.464     8.901
    22   6 C        3.061    -0.024    28.536     8.760
    23   6 C        2.913    -0.059    29.463     8.901
    24   6 C        2.923     0.057    26.715     8.476
    25   7 N        2.753    -0.041    22.041     6.973
    26   6 C        2.924     0.054    26.785     8.487
    27   6 C        2.923    -0.044    29.088     8.844
    28   6 C        2.916    -0.065    29.623     8.925
    29   6 C        2.863     0.140    24.935     8.185
    30   8 O        1.705    -0.280    18.651     5.831
    31   6 C        3.642     0.032    20.375     6.490
    32   6 C        2.919    -0.054    29.344     8.883
    33   6 C        2.921    -0.044    29.092     8.845
    34   6 C        2.923     0.054    26.781     8.487
    35   6 C        2.921    -0.044    29.089     8.845
    36   6 C        2.919    -0.054    29.342     8.883
    37   6 C        2.863     0.140    24.947     8.187
    38   8 O        1.705    -0.281    18.660     5.832
    39   6 C        3.642     0.033    20.367     6.488
    40   6 C        2.916    -0.065    29.623     8.925
    41   6 C        2.922    -0.044    29.095     8.846
    42   6 C        2.922    -0.066    29.634     8.927
    43   6 C        2.907    -0.046    29.141     8.852
    44   6 C        3.071     0.041    27.002     8.520
    45   7 N        2.798    -0.014    21.524     6.890
    46   6 C        2.909     0.022    27.520     8.602
    47   6 C        2.916    -0.055    29.366     8.886
    48   6 C        2.911    -0.045    29.119     8.848
    49   6 C        2.918    -0.064    29.603     8.922
    50   6 C        2.981     0.004    27.938     8.670
    51   6 C        2.920    -0.059    29.467     8.902
    52   6 C        2.913    -0.044    29.085     8.843
    53   6 C        2.914    -0.045    29.113     8.848
    54   6 C        2.917    -0.057    29.426     8.895
    55   6 C        2.979    -0.001    28.058     8.689
    56   6 C        2.922    -0.046    29.144     8.853
    57   6 C        2.916    -0.066    29.637     8.927
    58   1 H        0.925     0.069     2.094     2.263
    59   1 H        0.924     0.049     2.329     2.386
    60   1 H        0.924     0.049     2.331     2.387
    61   1 H        0.926     0.051     2.302     2.373
    62   1 H        0.926     0.047     2.356     2.400
    63   1 H        0.926     0.045     2.382     2.414
    64   1 H        0.926     0.048     2.348     2.396
    65   1 H        0.924     0.048     2.340     2.392
    66   1 H        0.925     0.068     2.103     2.268
    67   1 H        0.924     0.049     2.333     2.389
    68   1 H        0.926     0.052     2.295     2.369
    69   1 H        0.926     0.046     2.365     2.405
    70   1 H        0.926     0.028     2.609     2.526
    71   1 H        0.926     0.030     2.593     2.518
    72   1 H        0.926     0.033     2.549     2.497
    73   1 H        0.926     0.033     2.539     2.492
    74   1 H        0.926     0.046     2.370     2.407
    75   1 H        0.926     0.050     2.323     2.383
    76   1 H        0.924     0.049     2.335     2.389
    77   1 H        0.924     0.051     2.305     2.374
    78   1 H        0.925     0.069     2.098     2.265
    79   1 H        0.926     0.053     2.288     2.365
    80   1 H        0.926     0.046     2.364     2.404
    81   1 H        0.926     0.047     2.352     2.398
    82   1 H        0.926     0.053     2.286     2.365
    83   1 H        0.925     0.069     2.100     2.266
    84   1 H        0.924     0.048     2.339     2.392
    85   1 H        0.924     0.049     2.330     2.387
    86   1 H        0.926     0.048     2.345     2.395
    87   1 H        0.926     0.045     2.384     2.415
    88   1 H        0.926     0.029     2.606     2.525
    89   1 H        0.926     0.028     2.612     2.527
    90   1 H        0.926     0.018     2.770     2.603
    91   1 H        0.926     0.013     2.836     2.633
    92   1 H        0.926     0.009     2.912     2.669
    93   1 H        0.925     0.007     2.945     2.684
    94   1 H        0.925     0.008     2.922     2.673
    95   1 H        0.925     0.008     2.918     2.671
    96   1 H        0.926     0.008     2.923     2.673
    97   1 H        0.926     0.044     2.395     2.420
    98   1 H        0.926     0.049     2.330     2.387

molecular dipole:
                 x           y           z       tot (Debye)
 q only:       -1.401       4.146       1.254
   full:       -1.475       3.789       1.372      10.908

 projected vibrational frequencies (cm⁻¹)
eigval :       -0.00    -0.00    -0.00     0.00     0.00     0.00
eigval :        9.24    10.17    15.81    18.14    21.45    26.64
eigval :       30.43    32.65    37.13    40.00    42.14    49.58
eigval :       57.34    58.53    72.57    77.44    84.82    95.13
eigval :       98.05   106.34   118.40   123.51   125.78   148.64
eigval :      152.74   158.49   159.84   169.59   172.15   178.05
eigval :      190.23   200.48   204.42   212.98   217.13   225.94
eigval :      228.18   235.11   239.22   244.82   252.42   270.08
eigval :      279.48   289.60   311.80   321.97   328.44   332.51
eigval :      341.38   348.69   355.70   363.25   371.21   381.67
eigval :      385.04   385.35   388.83   390.31   391.86   412.61
eigval :      432.44   435.16   444.00   447.80   448.61   456.47
eigval :      461.42   471.83   483.81   484.99   497.24   500.61
eigval :      505.72   507.34   511.52   521.30   531.15   543.09
eigval :      548.79   558.54   577.38   582.20   586.03   603.21
eigval :      607.74   609.12   610.29   611.92   622.66   627.48
eigval :      653.87   658.33   668.13   668.52   669.92   675.55
eigval :      678.65   696.67   701.92   732.73   759.73   768.22
eigval :      774.51   777.75   779.20   790.45   792.63   800.29
eigval :      804.70   805.29   806.89   809.73   811.68   817.67
eigval :      825.09   831.05   834.91   835.84   854.17   854.77
eigval :      856.31   857.45   866.19   872.67   876.06   877.34
eigval :      882.52   892.75   899.21   899.48   899.97   900.43
eigval :      901.05   914.28   915.05   917.13   917.80   926.15
eigval :      926.59   946.07   983.09  1001.74  1010.63  1015.24
eigval :     1016.46  1028.84  1038.26  1052.09  1052.47  1052.98
eigval :     1053.20  1091.49  1114.55  1115.43  1115.62  1116.07
eigval :     1116.49  1125.43  1126.04  1126.59  1127.37  1130.92
eigval :     1133.76  1148.70  1152.77  1153.68  1153.72  1154.46
eigval :     1164.45  1172.15  1174.75  1181.53  1181.70  1182.71
eigval :     1183.91  1185.88  1192.60  1215.05  1216.51  1220.97
eigval :     1221.89  1225.44  1231.05  1235.98  1241.65  1257.18
eigval :     1262.79  1264.09  1266.31  1266.54  1267.37  1276.90
eigval :     1300.29  1304.46  1312.99  1315.13  1322.42  1329.70
eigval :     1333.50  1336.42  1339.23  1343.12  1351.82  1359.99
eigval :     1379.21  1389.06  1394.31  1394.83  1395.44  1395.68
eigval :     1397.10  1412.07  1413.43  1414.74  1420.70  1421.29
eigval :     1428.77  1429.45  1437.85  1459.28  1462.01  1463.27
eigval :     1464.14  1464.38  1464.59  1465.26  1466.42  1472.16
eigval :     1475.38  1475.75  1476.62  1477.35  1488.11  1490.32
eigval :     1509.44  1524.34  1528.46  1529.91  1551.64  1552.14
eigval :     1553.55  1554.33  1565.12  1581.22  1583.81  1584.75
eigval :     1590.99  2937.90  2938.53  2939.06  2940.35  2949.79
eigval :     2950.34  2951.03  2952.03  3025.53  3026.07  3026.38
eigval :     3026.67  3048.64  3054.34  3057.40  3064.06  3066.49
eigval :     3073.78  3077.37  3085.78  3087.09  3088.33  3088.80
eigval :     3089.48  3089.55  3090.62  3091.00  3092.02  3092.41
eigval :     3094.82  3097.15  3100.67  3101.91  3105.05  3105.24
eigval :     3105.51  3105.97  3109.56  3109.72  3109.88  3111.65

   temp. (K)  partition function   enthalpy   heat capacity  entropy
                                   cal/mol     cal/K/mol   cal/K/mol   J/K/mol
 298.15  VIB  0.637E+24            29784.908    181.965    186.425
         ROT  0.167E+09              888.752      2.981     40.612
         INT  0.107E+33            30673.661    184.946    227.037
         TR   0.198E+29             1481.254      4.968     45.695
         TOT                       32154.9145   189.9141   272.7323  1141.1120

       T/K    H(0)-H(T)+PV         H(T)/Eh          T*S/Eh         G(T)/Eh
   ------------------------------------------------------------------------
    298.15    0.512421E-01    0.809207E+00    0.129584E+00    0.679623E+00
   ------------------------------------------------------------------------

         :::::::::::::::::::::::::::::::::::::::::::::::::::::
         ::                  THERMODYNAMIC                  ::
         :::::::::::::::::::::::::::::::::::::::::::::::::::::
         :: total free energy        -152.379920492894 Eh   ::
         ::.................................................::
         :: total energy             -153.059543288683 Eh   ::
         :: zero point energy           0.757964605515 Eh   ::
         :: G(RRHO) w/o ZPVE           -0.078341809727 Eh   ::
         :: G(RRHO) contrib.            0.679622795788 Eh   ::
         :::::::::::::::::::::::::::::::::::::::::::::::::::::

           -------------------------------------------------
          | TOTAL ENERGY             -153.059543288683 Eh   |
          | TOTAL ENTHALPY           -152.250336565200 Eh   |
          | TOTAL FREE ENERGY        -152.379920492894 Eh   |
          | GRADIENT NORM               0.000027539594 Eh/α |
          | HOMO-LUMO GAP               0.106366064357 eV   |
           -------------------------------------------------

 * finished run on 2025/09/12 at 21:28:31.827
