   * xtb version 6.7.1 (edcfbbe) compiled by 'albert@albert-system' on 2024-07-22

   ID    Z sym.   atoms
    1    6 C      1, 3-6, 8-11, 13-24, 26-29, 31-37, 39-44, 46-57
    2    8 O      2, 12, 30, 38
    3    7 N      7, 25, 45
    4    1 H      58-98

          program call               : xtb data2507/toluene/DPNC/DPNC.xyz --gfn 2 --gbsa toluene --ohess vtight --parallel 40 --molden --ceasefiles --namespace data2507/toluene/DPNC/DPNC_toluene_S0_preOpt
      * Solvation model:               GBSA
        Solvent                        toluene
        Solvent mass                       9.2140E+01 g/mol
          :  Hamiltonian                  GFN2-xTB          :
 * total energy  :  -153.1128314 Eh     change       -0.2193559E-08 Eh
 * total energy  :  -153.1305586 Eh     change       -0.1772721E-01 Eh
 * total energy  :  -153.1374552 Eh     change       -0.6896621E-02 Eh
 * total energy  :  -153.1396381 Eh     change       -0.2182891E-02 Eh
 * total energy  :  -153.1407802 Eh     change       -0.1142115E-02 Eh
 * total energy  :  -153.1411353 Eh     change       -0.3551219E-03 Eh
 * total energy  :  -153.1412776 Eh     change       -0.1422507E-03 Eh
 * total energy  :  -153.1413824 Eh     change       -0.1048203E-03 Eh
 * total energy  :  -153.1414653 Eh     change       -0.8285398E-04 Eh
 * total energy  :  -153.1415390 Eh     change       -0.7376484E-04 Eh
 * total energy  :  -153.1417344 Eh     change       -0.1361399E-05 Eh
 * total energy  :  -153.1417354 Eh     change       -0.9235410E-06 Eh
 * total energy  :  -153.1417361 Eh     change       -0.7604831E-06 Eh
 * total energy  :  -153.1417368 Eh     change       -0.7158299E-06 Eh
 * total energy  :  -153.1417376 Eh     change       -0.7511237E-06 Eh
 * total energy  :  -153.1417384 Eh     change       -0.8067305E-06 Eh
 * total energy  :  -153.1417391 Eh     change       -0.6625384E-06 Eh
 * total energy  :  -153.1417396 Eh     change       -0.5134209E-06 Eh
 * total energy  :  -153.1417396 Eh     change       -0.7211383E-08 Eh
   *** GEOMETRY OPTIMIZATION CONVERGED AFTER 44 ITERATIONS ***

 final structure:
================
98
 xtb: 6.7.1 (edcfbbe)
C          -10.22215208554433        0.91232066862861        1.07036303328195
O           -9.00676185892080        1.13406873814412        1.75008329452269
C           -7.83683323463585        0.81332559115109        1.11532255089646
C           -6.66589774285069        1.04950473888012        1.83739429304312
C           -5.43406648787650        0.75457185858490        1.29789057558589
C           -5.33008392107585        0.22466020017489        0.00924601703559
N           -4.07947950763537       -0.06650961960574       -0.54478953086330
C           -3.91527914519078       -1.18314952525184       -1.37194967052644
C           -3.06160471898143       -1.13225627375375       -2.47671568249453
C           -2.89791932196891       -2.23246940645811       -3.28779033165742
C           -3.58820032531956       -3.41816979623542       -3.03057809113827
O           -3.35748786004177       -4.44670174071610       -3.90419438483849
C           -4.02172580943948       -5.67197142077399       -3.68994525783049
C           -4.44214845131082       -3.47452301892999       -1.93545086089158
C           -4.59500528603145       -2.37067357039912       -1.11527112087985
C           -2.98022314784895        0.76235328570377       -0.26809811907477
C           -3.15543248044693        2.15423623651997       -0.21955602426636
C           -2.10669067987412        3.00780678911692        0.04952193094785
C           -0.85211869161074        2.45476559226495        0.26629006929207
C           -0.65466131260326        1.05610057613279        0.19899506797426
C           -1.72295981457027        0.20955965498128       -0.05676658215794
C            0.74320871893082        0.83211363392190        0.44114114440899
C            1.52396104255128       -0.31225396056300        0.51110334721888
C            2.87773366250585       -0.18337408638379        0.79623657225571
N            3.69482776633071       -1.32217920788287        0.88647042139658
C            4.99059996621093       -1.29026044629647        0.36037483928903
C            6.04117551090248       -1.95323076065427        0.99974532242195
C            7.31402872303875       -1.91810331683919        0.47652885634914
C            7.58544461145971       -1.20954894152174       -0.69529656975119
O            8.88562648449582       -1.23618857364319       -1.12293897919715
C            9.21960814989542       -0.53514869364652       -2.30006638379997
C            6.54682623759428       -0.54045575307335       -1.33173779801519
C            5.26621584459328       -0.58864046675093       -0.81028279977655
C            3.20683791164517       -2.48336099127944        1.49501828933092
C            2.35903133295444       -2.40665587280985        2.60295686557441
C            1.87836856218766       -3.55095440438385        3.19856467749369
C            2.23607236186335       -4.81142311712336        2.71703610536154
O            1.70815304831928       -5.88094389359780        3.38945384668341
C            2.03342540676595       -7.17974661045344        2.94707761413430
C            3.08159793753339       -4.89519863581775        1.61722509885476
C            3.55202375619920       -3.74297859934820        1.01260884902716
C            3.43500549841084        1.08750321794389        1.00847360426404
C            2.67622464695250        2.23542502046928        0.92652246778906
C            1.32544108939672        2.10680060096779        0.63147342637345
N            0.35291117578704        3.07844344544975        0.51285933018186
C            0.53083758546543        4.46095320948651        0.70577801557557
C           -0.15654975237900        5.09446013549282        1.71310062219264
C            0.00943078591504        6.46693798342733        1.93758139923107
C            0.86917584397029        7.19341116150255        1.16195097852508
C            1.58027717395410        6.58169250849613        0.10806367094101
C            2.45554112007710        7.31775160285254       -0.71928247059811
C            3.10815641417531        6.71851063915329       -1.75973055355936
C            2.90634112437994        5.35569763880519       -2.02693820205218
C            2.07454236410829        4.61022918970371       -1.23844136567095
C            1.40380985308387        5.19433726034237       -0.14289447775321
C           -6.50097430374222       -0.00106026002663       -0.70967173534568
C           -7.74103702908754        0.28149491183518       -0.16528505839124
H          -10.35907677882088       -0.14710742129849        0.83165378555756
H          -10.28147756650244        1.50551679716487        0.15240343200188
H          -11.00357299019192        1.23184177925630        1.75818225209048
H           -6.75022910552789        1.45874024041703        2.83233376593839
H           -4.53804126014888        0.93343369735890        1.87318187559548
H           -2.52604932652495       -0.22015652988556       -2.69359806147920
H           -2.23996922985245       -2.19609773262171       -4.14232482546015
H           -3.69013591069938       -6.32757035821308       -4.49374952800625
H           -5.10843000320004       -5.55259233436426       -3.74362493893769
H           -3.74829515866239       -6.11185079632186       -2.72568899459674
H           -4.98908133270405       -4.37393235063782       -1.70085167277901
H           -5.25410652490259       -2.43180451932199       -0.26174423009546
H           -4.13996059170140        2.55860157163251       -0.40259559745882
H           -2.25792481702471        4.07639258041501        0.07583972286394
H           -1.58179085554292       -0.85979860494126       -0.09944223084110
H            1.08818726316831       -1.28750567912089        0.35545312741581
H            5.85007473829549       -2.49638896907178        1.91320250233676
H            8.12778663125002       -2.42918903329298        0.96754969552879
H           10.28761409074422       -0.69412505467666       -2.44086956744695
H            8.67673406866593       -0.92628480817183       -3.16627458124072
H            9.02203206327264        0.53643972244398       -2.19659302962987
H            6.71619932455983        0.01608646981876       -2.23981688077105
H            4.46650168044995       -0.07184142910553       -1.31996187662211
H            2.07930930612195       -1.43984372534959        2.99386764854238
H            1.22401564324816       -3.49510037297546        4.05485278640934
H            1.51073649608952       -7.85652888494722        3.62129817564663
H            3.11033239334760       -7.36551435227359        3.00880320989708
H            1.69025102621080       -7.35093372704782        1.92188833558022
H            3.37738194445783       -5.85020251516258        1.21275842316947
H            4.20039391005978       -3.82331849408368        0.15248492560494
H            4.48620196386235        1.15804159678735        1.24559524191458
H            3.12125026958804        3.20401377600937        1.09700328079796
H           -0.82231481831285        4.52164344421770        2.34229264639721
H           -0.53993514464740        6.93904402459658        2.73862464008992
H            1.01147993493196        8.24950889594020        1.33905440985894
H            2.59460501864186        8.36992908348675       -0.51562886329849
H            3.77509750136781        7.29015031512958       -2.38865166807522
H            3.41177789396366        4.89770405479209       -2.86465145812735
H            1.91797160008323        3.56403848672822       -1.45462074992515
H           -6.44025673226604       -0.40382312412494       -1.71009988000290
H           -8.62245535780379        0.08947415494074       -0.75631639537057

          :  Hamiltonian                  GFN2-xTB          :
         :: gradient norm              0.000059585713 Eh/a0 ::
         :: HOMO-LUMO gap              1.818728967158 eV    ::
         :: SCC energy              -155.679520239766 Eh    ::
         :: -> dispersion             -0.130438167838 Eh    ::
         :: -> Gsolv                  -0.063327926652 Eh    ::
         :: repulsion energy           2.537780652142 Eh    ::

    * Orbital Energies and Occupations

         #    Occupation            Energy/Eh            Energy/eV
      -------------------------------------------------------------
         1        2.0000           -0.7146109             -19.4456
       ...           ...                  ...                  ...
       128        2.0000           -0.4064899             -11.0612
       129        2.0000           -0.4061672             -11.0524
       130        2.0000           -0.4057161             -11.0401
       131        2.0000           -0.4045453             -11.0082
       132        2.0000           -0.4041309             -10.9970
       133        2.0000           -0.3962175             -10.7816
       134        2.0000           -0.3849741             -10.4757
       135        2.0000           -0.3821003             -10.3975
       136        2.0000           -0.3815128             -10.3815
       137        2.0000           -0.3787400             -10.3060
       138        2.0000           -0.3680682             -10.0156
       139        2.0000           -0.3390176              -9.2251
       140        2.0000           -0.3321419              -9.0380 (HOMO)
       141                         -0.2653049              -7.2193 (LUMO)
       142                         -0.2448892              -6.6638
       143                         -0.2336304              -6.3574
       144                         -0.2258548              -6.1458
       145                         -0.2246593              -6.1133
       146                         -0.2244772              -6.1083
       147                         -0.2215071              -6.0275
       148                         -0.2214206              -6.0252
       149                         -0.2198355              -5.9820
       150                         -0.2192199              -5.9653
       151                         -0.2098791              -5.7111
       ...                                ...                  ...
       269                          0.7448109              20.2673
      -------------------------------------------------------------
                  HL-Gap            0.0668370 Eh            1.8187 eV

     #   Z          covCN         q      C6AA      α(0)
     1   6 C        3.642     0.037    20.297     6.477
     2   8 O        1.705    -0.295    18.904     5.870
     3   6 C        2.863     0.131    25.123     8.216
     4   6 C        2.919    -0.056    29.395     8.891
     5   6 C        2.922    -0.049    29.209     8.863
     6   6 C        2.920     0.056    26.748     8.481
     7   7 N        2.751    -0.080    22.794     7.091
     8   6 C        2.921     0.056    26.745     8.481
     9   6 C        2.922    -0.048    29.201     8.862
    10   6 C        2.919    -0.056    29.394     8.891
    11   6 C        2.863     0.131    25.120     8.215
    12   8 O        1.705    -0.295    18.904     5.870
    13   6 C        3.642     0.037    20.297     6.477
    14   6 C        2.916    -0.068    29.687     8.935
    15   6 C        2.924    -0.052    29.282     8.874
    16   6 C        2.923     0.054    26.787     8.488
    17   6 C        2.926    -0.051    29.260     8.871
    18   6 C        2.908    -0.051    29.269     8.871
    19   6 C        3.080     0.041    26.994     8.518
    20   6 C        3.066    -0.018    28.395     8.738
    21   6 C        2.915    -0.053    29.314     8.878
    22   6 C        3.066    -0.019    28.403     8.739
    23   6 C        2.915    -0.053    29.316     8.879
    24   6 C        2.923     0.054    26.786     8.487
    25   7 N        2.751    -0.080    22.795     7.091
    26   6 C        2.921     0.056    26.748     8.481
    27   6 C        2.922    -0.049    29.218     8.864
    28   6 C        2.919    -0.056    29.397     8.891
    29   6 C        2.863     0.131    25.120     8.215
    30   8 O        1.705    -0.295    18.905     5.870
    31   6 C        3.642     0.037    20.298     6.478
    32   6 C        2.916    -0.068    29.684     8.934
    33   6 C        2.924    -0.051    29.271     8.872
    34   6 C        2.920     0.056    26.746     8.481
    35   6 C        2.922    -0.049    29.206     8.862
    36   6 C        2.919    -0.056    29.394     8.891
    37   6 C        2.863     0.131    25.123     8.216
    38   8 O        1.705    -0.295    18.908     5.871
    39   6 C        3.642     0.037    20.296     6.477
    40   6 C        2.916    -0.068    29.686     8.935
    41   6 C        2.924    -0.052    29.289     8.875
    42   6 C        2.926    -0.051    29.259     8.871
    43   6 C        2.908    -0.050    29.237     8.866
    44   6 C        3.079     0.042    26.967     8.514
    45   7 N        2.801    -0.045    22.107     6.983
    46   6 C        2.909     0.056    26.742     8.479
    47   6 C        2.920    -0.044    29.080     8.843
    48   6 C        2.914    -0.031    28.766     8.795
    49   6 C        2.918    -0.039    28.975     8.827
    50   6 C        2.986     0.013    27.716     8.636
    51   6 C        2.919    -0.035    28.867     8.811
    52   6 C        2.915    -0.029    28.726     8.789
    53   6 C        2.916    -0.030    28.741     8.791
    54   6 C        2.916    -0.032    28.800     8.800
    55   6 C        2.986     0.002    27.965     8.675
    56   6 C        2.924    -0.052    29.290     8.875
    57   6 C        2.916    -0.068    29.686     8.935
    58   1 H        0.924     0.044     2.391     2.418
    59   1 H        0.924     0.044     2.390     2.418
    60   1 H        0.925     0.065     2.146     2.291
    61   1 H        0.926     0.044     2.396     2.420
    62   1 H        0.926     0.039     2.468     2.457
    63   1 H        0.926     0.039     2.468     2.457
    64   1 H        0.926     0.044     2.396     2.421
    65   1 H        0.925     0.065     2.145     2.290
    66   1 H        0.924     0.045     2.388     2.417
    67   1 H        0.924     0.044     2.392     2.419
    68   1 H        0.926     0.041     2.441     2.443
    69   1 H        0.926     0.036     2.501     2.473
    70   1 H        0.926     0.033     2.544     2.494
    71   1 H        0.926     0.032     2.551     2.498
    72   1 H        0.926     0.031     2.566     2.505
    73   1 H        0.926     0.032     2.564     2.504
    74   1 H        0.926     0.038     2.477     2.461
    75   1 H        0.926     0.044     2.399     2.422
    76   1 H        0.925     0.065     2.146     2.291
    77   1 H        0.924     0.045     2.389     2.417
    78   1 H        0.924     0.045     2.386     2.416
    79   1 H        0.926     0.041     2.434     2.440
    80   1 H        0.926     0.037     2.495     2.470
    81   1 H        0.926     0.038     2.470     2.458
    82   1 H        0.926     0.044     2.399     2.422
    83   1 H        0.925     0.065     2.146     2.291
    84   1 H        0.924     0.045     2.389     2.417
    85   1 H        0.924     0.044     2.393     2.419
    86   1 H        0.926     0.040     2.442     2.444
    87   1 H        0.926     0.036     2.502     2.474
    88   1 H        0.926     0.033     2.548     2.496
    89   1 H        0.926     0.032     2.564     2.504
    90   1 H        0.926     0.040     2.452     2.449
    91   1 H        0.926     0.040     2.453     2.449
    92   1 H        0.926     0.040     2.447     2.446
    93   1 H        0.926     0.038     2.480     2.463
    94   1 H        0.926     0.036     2.508     2.477
    95   1 H        0.926     0.034     2.527     2.486
    96   1 H        0.926     0.035     2.520     2.482
    97   1 H        0.926     0.036     2.505     2.475
    98   1 H        0.926     0.041     2.441     2.443

molecular dipole:
                 x           y           z       tot (Debye)
 q only:       -0.228       0.451      -0.762
   full:       -0.364       0.315      -0.959       2.728

 projected vibrational frequencies (cm⁻¹)
eigval :       -0.00    -0.00    -0.00     0.00     0.00     0.00
eigval :        9.28    10.71    14.83    17.33    20.53    26.34
eigval :       29.40    31.61    35.71    42.19    44.91    48.70
eigval :       52.84    60.43    61.40    74.73    84.80    88.45
eigval :       99.83   102.87   115.07   120.49   126.85   142.35
eigval :      149.50   154.18   155.79   160.80   165.47   170.45
eigval :      197.57   203.30   209.24   215.73   223.03   225.23
eigval :      229.64   235.26   243.87   247.54   251.86   261.53
eigval :      281.90   289.43   319.77   322.49   327.37   334.96
eigval :      348.65   354.88   360.58   365.91   379.36   384.46
eigval :      385.66   390.63   391.38   395.24   400.31   416.95
eigval :      422.22   428.34   434.64   438.52   449.91   455.38
eigval :      462.17   468.82   481.33   491.37   497.47   500.86
eigval :      501.15   513.94   514.93   524.85   540.45   541.48
eigval :      551.16   568.40   576.60   583.94   604.47   605.88
eigval :      608.01   611.90   612.38   619.34   625.56   635.38
eigval :      659.38   664.06   665.27   667.46   673.16   674.71
eigval :      700.19   706.82   721.96   761.25   763.31   773.82
eigval :      775.69   776.81   799.27   801.19   801.72   806.09
eigval :      808.65   816.35   817.35   820.90   823.59   836.10
eigval :      856.77   856.91   859.51   861.38   870.26   873.72
eigval :      876.65   883.87   890.47   896.02   897.50   898.32
eigval :      900.08   900.24   906.49   909.16   914.87   915.19
eigval :      917.60   917.87   920.17   925.67   927.99   928.25
eigval :      930.24   953.62   985.16  1005.26  1015.27  1017.55
eigval :     1018.88  1034.41  1047.54  1055.73  1055.87  1056.23
eigval :     1056.34  1082.24  1112.10  1117.21  1117.45  1117.99
eigval :     1120.02  1127.85  1128.37  1128.75  1129.47  1139.77
eigval :     1150.64  1155.53  1155.71  1155.96  1156.12  1164.48
eigval :     1169.26  1177.76  1178.78  1185.79  1186.35  1186.88
eigval :     1189.97  1190.42  1201.06  1212.76  1214.80  1216.64
eigval :     1219.20  1222.60  1239.99  1244.18  1250.87  1264.25
eigval :     1267.80  1269.04  1270.54  1271.90  1286.16  1308.32
eigval :     1315.26  1320.31  1322.87  1330.89  1334.86  1337.40
eigval :     1342.29  1346.03  1347.14  1353.44  1365.68  1389.88
eigval :     1393.94  1394.82  1395.18  1395.55  1396.14  1411.52
eigval :     1414.00  1417.55  1421.03  1422.16  1425.15  1432.94
eigval :     1455.90  1463.36  1463.79  1464.58  1465.89  1466.50
eigval :     1470.89  1471.66  1475.90  1476.65  1480.11  1480.96
eigval :     1481.35  1482.07  1485.83  1505.98  1556.73  1561.32
eigval :     1562.54  1565.04  1568.17  1568.33  1574.54  1594.70
eigval :     1599.89  1607.67  1607.87  1608.23  1608.26  1608.55
eigval :     1615.47  2929.94  2930.21  2930.41  2930.42  2943.34
eigval :     2943.81  2943.86  2944.02  3022.53  3022.68  3022.73
eigval :     3023.68  3069.24  3074.43  3075.69  3080.44  3080.58
eigval :     3081.66  3081.88  3082.90  3083.68  3085.13  3085.45
eigval :     3086.44  3086.62  3087.65  3087.97  3089.34  3090.97
eigval :     3091.91  3092.82  3094.36  3097.33  3099.38  3099.81
eigval :     3099.97  3100.25  3104.20  3104.39  3104.91  3105.36

   temp. (K)  partition function   enthalpy   heat capacity  entropy
                                   cal/mol     cal/K/mol   cal/K/mol   J/K/mol
 298.15  VIB  0.943E+24            29664.046    180.148    186.385
         ROT  0.172E+09              888.752      2.981     40.670
         INT  0.163E+33            30552.799    183.129    227.055
         TR   0.198E+29             1481.254      4.968     45.695
         TOT                       32034.0527   188.0970   272.7501  1141.1864

       T/K    H(0)-H(T)+PV         H(T)/Eh          T*S/Eh         G(T)/Eh
   ------------------------------------------------------------------------
    298.15    0.510495E-01    0.813408E+00    0.129592E+00    0.683815E+00
   ------------------------------------------------------------------------

         :::::::::::::::::::::::::::::::::::::::::::::::::::::
         ::                  THERMODYNAMIC                  ::
         :::::::::::::::::::::::::::::::::::::::::::::::::::::
         :: total free energy        -152.457924113116 Eh   ::
         ::.................................................::
         :: total energy             -153.141739588958 Eh   ::
         :: zero point energy           0.762358336556 Eh   ::
         :: G(RRHO) w/o ZPVE           -0.078542860714 Eh   ::
         :: G(RRHO) contrib.            0.683815475842 Eh   ::
         :::::::::::::::::::::::::::::::::::::::::::::::::::::

           -------------------------------------------------
          | TOTAL ENERGY             -153.141739588958 Eh   |
          | TOTAL ENTHALPY           -152.328331739953 Eh   |
          | TOTAL FREE ENERGY        -152.457924113116 Eh   |
          | GRADIENT NORM               0.000059583884 Eh/α |
          | HOMO-LUMO GAP               1.818728687718 eV   |
           -------------------------------------------------

 * finished run on 2025/09/12 at 21:06:37.285
