   * xtb version 6.7.1 (edcfbbe) compiled by 'albert@albert-system' on 2024-07-22

   ID    Z sym.   atoms
    1    6 C      1-9, 11-15, 17-23, 25-31, 33-40
    2    7 N      10, 16, 24, 32
    3    1 H      41-68

          program call               : xtb data2507/gas/DMAC-TRZ/DMAC-TRZ_gas_S0_finalOpt.xtbopt.xyz --gfn 2 --spinpol --tblite --uhf 2 --ohess vtight --parallel 40 --molden --ceasefiles --namespace data2507/gas/DMAC-TRZ/DMAC-TRZ_gas_T1_preOpt
 * total energy  :  -103.0219189 Eh     change       -0.8145662E-09 Eh
 * total energy  :  -103.0247221 Eh     change       -0.2803263E-02 Eh
 * total energy  :  -103.0263731 Eh     change       -0.1650904E-02 Eh
 * total energy  :  -103.0265088 Eh     change       -0.1357456E-03 Eh
 * total energy  :  -103.0266176 Eh     change       -0.1087742E-03 Eh
 * total energy  :  -103.0266312 Eh     change       -0.1360839E-04 Eh
 * total energy  :  -103.0266449 Eh     change       -0.1371140E-04 Eh
 * total energy  :  -103.0266497 Eh     change       -0.4764680E-05 Eh
 * total energy  :  -103.0266567 Eh     change       -0.6995449E-05 Eh
 * total energy  :  -103.0266631 Eh     change       -0.6411157E-05 Eh
 * total energy  :  -103.0267081 Eh     change       -0.1039147E-05 Eh
 * total energy  :  -103.0267092 Eh     change       -0.1048587E-05 Eh
 * total energy  :  -103.0267101 Eh     change       -0.9440162E-06 Eh
 * total energy  :  -103.0267109 Eh     change       -0.8113859E-06 Eh
 * total energy  :  -103.0267116 Eh     change       -0.6443405E-06 Eh
 * total energy  :  -103.0267121 Eh     change       -0.5544444E-06 Eh
 * total energy  :  -103.0267121 Eh     change        0.3907100E-07 Eh
 * total energy  :  -103.0267121 Eh     change        0.1077939E-07 Eh
 * total energy  :  -103.0267121 Eh     change       -0.4611871E-07 Eh
   *** GEOMETRY OPTIMIZATION CONVERGED AFTER 46 ITERATIONS ***

 final structure:
================
68
 xtb: 6.7.1 (edcfbbe)
C           -7.30161465452941        1.13291435595227        0.55047771861367
C           -6.41965464444898       -0.00643144939103        0.00548832112044
C           -7.30019580806899       -1.14751212892660       -0.53815138559344
C           -5.57049303679766       -0.54267822953124        1.13909928000348
C           -6.18384015324194       -1.07682521009105        2.26368786080463
C           -5.45545841015772       -1.56134560481796        3.33451990747153
C           -4.07122040635313       -1.50575487390626        3.29807988944725
C           -3.43494257945907       -0.98292778673646        2.19516533784282
C           -4.16879903367470       -0.50757630835341        1.09942649890022
N           -3.50074380896225       -0.00327313865603        0.00338951999829
C           -2.07605627699480       -0.00177410643467        0.00235999445759
C           -1.37709426545491        1.17406980609455        0.28527136438268
C           -0.00561201652691        1.17845007014044        0.28207488245888
C            0.71850376952276        0.00109063842508        0.00047732608336
C            2.13734417877327        0.00250284873009       -0.00041120707440
N            2.81574793929019        1.15363283634430        0.23928983008114
C            4.11973992033610        1.13554924002308        0.22530330913213
C            4.85570785215216        2.36933008554045        0.46074551669091
C            4.17403155077410        3.56405862958735        0.69901231988720
C            4.87669661454399        4.73116233533856        0.91656882109681
C            6.26411174097470        4.72447985714641        0.89957132008079
C            6.94728085364116        3.54128663067349        0.66364617212843
C            6.25129131797286        2.36931565850430        0.44535696653503
N            4.82459221457487        0.00504316503571       -0.00197533876496
C            4.12164211860876       -1.12676433940625       -0.22845872921071
C            4.85967069727679       -2.35916501170989       -0.46477307021415
C            4.17996451562066       -3.55512920477988       -0.70243844912430
C            4.88456585894761       -4.72091299694088       -0.92082329853650
C            6.27198004111676       -4.71165674535754       -0.90525217658283
C            6.95319758243892       -3.52722246167113       -0.66992622092691
C            6.25525917695631       -2.35655992401210       -0.45082165687342
N            2.81768099115761       -1.14735267217248       -0.24094185674951
C           -0.00357909477244       -1.17774229249577       -0.28018610462673
C           -1.37506727708240       -1.17617542645869       -0.28152956457348
C           -4.17146344455853        0.49950059642040       -1.09172099314438
C           -3.44020864845322        0.97639587267427       -2.18852864749247
C           -4.07920087015970        1.49773680592305       -3.29057732008018
C           -5.46360866425281        1.55027918958126       -3.32505509441782
C           -6.18940259454084        1.06425165147514       -2.25314822875999
C           -5.57328583264264        0.53152642423165       -1.12939966625688
H           -7.93847614316097        1.53744836530717       -0.23099012448360
H           -7.93630299310300        0.77874355489069        1.35775934089453
H           -6.67457612696448        1.93585347733897        0.93334441724230
H           -7.93682667905990       -0.79459783766433       -1.34445046726767
H           -7.93506122101184       -1.55330475234847        0.24428502752970
H           -6.67216148964884       -1.94921007293430       -0.92198483759196
H           -7.26132874039366       -1.11759517907612        2.31262662524258
H           -5.96452095245585       -1.97257979300944        4.19260675015889
H           -3.48768867688661       -1.86870386243443        4.13038364613230
H           -2.35799402949314       -0.93325572701174        2.16992717723204
H           -1.93261875631212        2.07462273762002        0.50555255714499
H            0.54565706824677        2.07958241442294        0.49981551721674
H            3.09505691705735        3.55332672920371        0.70815512086424
H            4.34520190544144        5.65376343133766        1.10028723163385
H            6.81112097324088        5.64027533196867        1.06966033183408
H            8.02764262161311        3.53646005854303        0.65021711905161
H            6.76928438954069        1.44099226868973        0.25976270765132
H            3.10096108108459       -3.54639866925261       -0.71046966899231
H            4.35459091912519       -5.64448131663661       -1.10407690046329
H            6.82051163749651       -5.62642400641981       -1.07598429832827
H            8.03356262214120       -3.52039475682482       -0.65760621686672
H            6.77172443049593       -1.42729192509370       -0.26568149510088
H            0.54924362015560       -2.07774066191518       -0.49867247712812
H           -1.92904282795299       -2.07786559550158       -0.50105737262369
H           -2.36311895321885        0.92909598991403       -2.16480922498725
H           -3.49765374324258        1.86188893104529       -4.12374250582928
H           -5.97479324768976        1.96031272078923       -4.18245385319025
H           -7.26704589083410        1.10267620462894       -2.30054625268536

 projected vibrational frequencies (cm⁻¹)
eigval :       -0.00    -0.00    -0.00     0.00     0.00     0.00
eigval :        7.80    16.01    17.56    25.89    26.78    34.22
eigval :       45.39    50.57    54.84    66.41    94.64    95.85
eigval :      101.98   106.86   127.45   129.71   147.11   166.97
eigval :      191.77   194.27   202.81   216.98   224.85   232.48
eigval :      246.43   256.63   289.18   301.37   327.51   332.70
eigval :      340.11   352.91   366.44   366.54   367.19   378.09
eigval :      379.53   400.16   406.12   406.86   410.76   419.14
eigval :      450.86   473.21   507.50   511.15   533.84   543.93
eigval :      545.25   548.41   563.26   576.91   581.11   586.84
eigval :      588.39   591.01   601.85   604.07   642.91   650.71
eigval :      661.82   665.36   671.04   671.24   678.92   686.73
eigval :      699.86   728.39   761.04   762.33   775.25   776.85
eigval :      796.74   800.49   805.05   825.65   843.28   869.39
eigval :      869.96   870.33   871.75   894.55   898.24   900.13
eigval :      908.34   911.90   913.48   915.05   915.62   922.68
eigval :      922.95   925.30   926.34   928.40   928.65   937.59
eigval :      957.21   957.80   983.62   990.00   999.22  1013.53
eigval :     1061.78  1073.70  1075.93  1075.94  1085.00  1107.57
eigval :     1108.57  1108.64  1114.13  1119.06  1138.10  1138.62
eigval :     1153.30  1153.99  1165.79  1172.28  1180.22  1180.72
eigval :     1184.32  1184.33  1185.33  1189.90  1202.34  1241.89
eigval :     1243.08  1251.67  1258.02  1259.66  1268.39  1274.41
eigval :     1284.48  1294.85  1308.15  1316.51  1326.24  1331.25
eigval :     1331.35  1332.30  1335.47  1388.75  1401.81  1408.63
eigval :     1420.12  1421.34  1423.48  1425.33  1431.82  1439.66
eigval :     1439.73  1459.68  1463.93  1475.08  1481.11  1487.95
eigval :     1488.66  1489.19  1496.58  1498.62  1502.30  1558.14
eigval :     1563.52  1571.52  1572.28  1573.05  1581.50  1585.44
eigval :     1592.52  1595.37  3029.30  3031.14  3043.10  3045.59
eigval :     3052.06  3055.61  3071.94  3072.07  3073.08  3074.48
eigval :     3076.57  3076.75  3083.56  3083.76  3087.62  3088.06
eigval :     3089.38  3089.51  3098.38  3099.15  3099.41  3099.75
eigval :     3099.76  3101.03  3101.30  3102.98  3110.62  3110.74

   temp. (K)  partition function   enthalpy   heat capacity  entropy
                                   cal/mol     cal/K/mol   cal/K/mol   J/K/mol
 298.15  VIB  0.370E+16            19535.049    121.968    121.783
         ROT  0.314E+08              888.752      2.981     37.285
         INT  0.116E+24            20423.801    124.949    159.068
         TR   0.114E+29             1481.254      4.968     44.593
         TOT                       21905.0554   129.9172   203.6612   852.1185

       T/K    H(0)-H(T)+PV         H(T)/Eh          T*S/Eh         G(T)/Eh
   ------------------------------------------------------------------------
    298.15    0.349079E-01    0.561327E+00    0.967660E-01    0.464561E+00
   ------------------------------------------------------------------------

         :::::::::::::::::::::::::::::::::::::::::::::::::::::
         ::                  THERMODYNAMIC                  ::
         :::::::::::::::::::::::::::::::::::::::::::::::::::::
         :: total free energy        -102.562151144652 Eh   ::
         ::.................................................::
         :: total energy             -103.026712167108 Eh   ::
         :: zero point energy           0.526419101668 Eh   ::
         :: G(RRHO) w/o ZPVE           -0.061858079212 Eh   ::
         :: G(RRHO) contrib.            0.464561022456 Eh   ::
         :::::::::::::::::::::::::::::::::::::::::::::::::::::

           -------------------------------------------------
          | TOTAL ENERGY             -103.026712167108 Eh   |
          | TOTAL ENTHALPY           -102.465385137684 Eh   |
          | TOTAL FREE ENERGY        -102.562151144652 Eh   |
          | GRADIENT NORM               0.000057917571 Eh/α |
           -------------------------------------------------

 * finished run on 2025/07/16 at 16:24:14.621
