   * xtb version 6.7.1 (edcfbbe) compiled by 'albert@albert-system' on 2024-07-22

   ID    Z sym.   atoms
    1    6 C      1-9, 11-15, 17-23, 25-31, 33-40
    2    7 N      10, 16, 24, 32
    3    1 H      41-68

          program call               : xtb data2507/gas/DMAC-TRZ/DMAC-TRZ_gas_T1_crest.xyz --gfn 2 --spinpol --tblite --uhf 2 --ohess vtight --parallel 40 --molden --ceasefiles --namespace data2507/gas/DMAC-TRZ/DMAC-TRZ_gas_T1_finalOpt
 * total energy  :  -103.0267322 Eh     change       -0.5996498E-08 Eh
 * total energy  :  -103.0267821 Eh     change       -0.4992077E-04 Eh
 * total energy  :  -103.0267989 Eh     change       -0.1672393E-04 Eh
 * total energy  :  -103.0268001 Eh     change       -0.1203968E-05 Eh
 * total energy  :  -103.0268009 Eh     change       -0.8393068E-06 Eh
 * total energy  :  -103.0268008 Eh     change        0.1191034E-06 Eh
 * total energy  :  -103.0268013 Eh     change       -0.5718585E-06 Eh
 * total energy  :  -103.0268020 Eh     change       -0.6366128E-06 Eh
 * total energy  :  -103.0268028 Eh     change       -0.7840395E-06 Eh
 * total energy  :  -103.0268037 Eh     change       -0.9504037E-06 Eh
 * total energy  :  -103.0268045 Eh     change       -0.8201479E-06 Eh
 * total energy  :  -103.0268047 Eh     change       -0.1935954E-06 Eh
 * total energy  :  -103.0268051 Eh     change       -0.3526997E-06 Eh
 * total energy  :  -103.0268053 Eh     change       -0.2521746E-06 Eh
 * total energy  :  -103.0268055 Eh     change       -0.1818140E-06 Eh
 * total energy  :  -103.0268055 Eh     change        0.1005697E-07 Eh
 * total energy  :  -103.0268057 Eh     change       -0.2450578E-06 Eh
 * total energy  :  -103.0268060 Eh     change       -0.2341418E-06 Eh
 * total energy  :  -103.0268060 Eh     change       -0.7049252E-08 Eh
   *** GEOMETRY OPTIMIZATION CONVERGED AFTER 22 ITERATIONS ***

 final structure:
================
68
 xtb: 6.7.1 (edcfbbe)
C           -7.30982347007260        1.25125954041772       -0.14452921956568
C           -6.41962551052118        0.00214931159418       -0.00286350166667
C           -7.29208038910690       -1.25940474348423        0.13969623229028
C           -5.57237679453295        0.14780599658271        1.24421558936353
C           -6.18622458977924        0.28699103396774        2.48109754483420
C           -5.45778642252125        0.41745342674120        3.64927906620277
C           -4.07298142914248        0.40675383465557        3.59473555514283
C           -3.43605126673539        0.26990366015929        2.38222714944530
C           -4.17059338145668        0.14239413371577        1.19524575739818
N           -3.50185444093319        0.01054759124177       -0.00273006296635
C           -2.07606914181760        0.00751607333273       -0.00197185851369
C           -1.37383017453070        1.21260100426269       -0.06946680807491
C           -0.00213142461453        1.21121353682885       -0.06833099547000
C            0.71735635426014       -0.00004485603274       -0.00018952927847
C            2.13626357057494       -0.00407113286934        0.00072671027777
N            2.81931654968676        1.16745023415001       -0.06209032158464
C            4.12321076223798        1.14202065510739       -0.05903254221140
C            4.86437432997725        2.39331792469667       -0.12374656080249
C            4.18794120115808        3.61292844547931       -0.18536649333821
C            4.89585465556518        4.79545409220780       -0.24633243324721
C            6.28329970486655        4.77956684657571       -0.24680722729076
C            6.96126090798360        3.57169389889365       -0.18575237297525
C            6.26000742207942        2.38424570026860       -0.12446375617672
N            4.82359137338181       -0.01220066237721        0.00186334855118
C            4.11627883594992       -1.16231190786471        0.06218240969843
C            4.84967416093691       -2.41810040941826        0.12697650116732
C            4.16574162693547       -3.63350722206059        0.18935064157161
C            4.86636021839011       -4.82038700145824        0.24979097636197
C            6.25388354624910       -4.81311807865713        0.24896504987141
C            6.93927289455632       -3.60946781917387        0.18732182605067
C            6.24535420412932       -2.41769567928629        0.12661039868113
N            2.81226514213837       -1.17952889093561        0.06421155773738
C           -0.00875707255558       -1.20738748384919        0.06694306862684
C           -1.38041028549377       -1.20132765618494        0.06631763223326
C           -4.16974433783512       -0.12032299962747       -1.20127965063628
C           -3.43433478054390       -0.23961736804462       -2.38858292679557
C           -4.07033007037741       -0.37509078449081       -3.60173315024287
C           -5.45504625166612       -0.39362490615391       -3.65648551170974
C           -6.18434958801817       -0.27172065434754       -2.48792181361620
C           -5.57146375722063       -0.13269643893043       -1.25053778840271
H           -7.94711894016579        1.37340240416928        0.72659791551231
H           -6.68868741458795        2.13942638880139       -0.24351907910515
H           -7.94459136941761        1.17678469194202       -1.02284744036955
H           -7.92579395106937       -1.39230920340905       -0.73251058555561
H           -7.92919168562427       -1.19216089005280        1.01695566473178
H           -6.65844590742863       -2.13839111487757        0.24154257895376
H           -7.26385722667207        0.29400429191223        2.54211711871245
H           -5.96735215025905        0.52472480521864        4.59449564311472
H           -3.48988196769204        0.50450591780875        4.49773423227998
H           -2.35848843162546        0.25906473490111        2.33806524756448
H           -1.92642717981535        2.13988510870830       -0.12222564732191
H            0.55262224353803        2.13473273981536       -0.12043769173782
H            3.10888323161732        3.60890421616082       -0.18410000997002
H            4.36845979322511        5.73726927452819       -0.29385093899189
H            6.83440495465803        5.70736867855600       -0.29467270174719
H            8.04164728881086        3.55963395904446       -0.18612476786919
H            6.77385279613689        1.43650300359172       -0.07652332904392
H            3.08672639578797       -3.62281634752043        0.18904347624195
H            4.33317859358997       -5.75891030571753        0.29788915376841
H            6.79925913723722       -5.74432448621500        0.29632230588193
H            8.01971410946768       -3.60412042762899        0.18673744754370
H            6.76502389354288       -1.47316043910806        0.07816343618095
H            0.54092820181105       -2.13389658933252        0.11965647051561
H           -1.93807752878219       -2.12561366124139        0.11826369879108
H           -2.35684837433569       -0.22331547012005       -2.34414550517044
H           -3.48658795403396       -0.46590268356566       -4.50504027505966
H           -5.96389006185478       -0.50051877404853       -4.60213456037054
H           -7.26191739344049       -0.28585093925253       -2.54901792532051

 projected vibrational frequencies (cm⁻¹)
eigval :       -0.00    -0.00    -0.00     0.00     0.00     0.00
eigval :        5.32    15.97    17.91    25.93    28.74    34.06
eigval :       45.39    46.50    54.55    66.18    94.01    95.00
eigval :      101.52   106.60   126.84   129.98   147.26   166.55
eigval :      192.19   194.43   201.74   217.52   225.34   231.26
eigval :      246.52   257.17   288.69   300.97   327.14   333.06
eigval :      339.30   352.82   366.48   366.98   367.24   377.70
eigval :      379.15   401.10   405.54   406.77   411.01   419.48
eigval :      450.33   473.56   507.55   510.47   533.80   543.72
eigval :      545.15   548.22   563.50   576.52   581.16   586.45
eigval :      588.33   591.12   601.97   603.91   643.10   650.71
eigval :      661.85   664.49   669.46   671.32   679.45   686.65
eigval :      699.81   728.20   761.07   762.38   775.16   776.83
eigval :      796.14   800.11   804.85   825.59   842.74   869.40
eigval :      869.71   870.20   871.55   893.37   898.26   899.95
eigval :      907.67   911.48   913.72   914.95   915.65   922.75
eigval :      922.95   925.37   926.34   928.47   928.71   937.81
eigval :      957.64   957.84   983.39   991.15   998.80  1013.58
eigval :     1061.83  1073.79  1075.71  1075.95  1085.21  1107.12
eigval :     1108.60  1108.86  1113.74  1118.50  1137.22  1138.49
eigval :     1153.30  1154.29  1165.75  1171.57  1180.11  1180.61
eigval :     1183.88  1184.09  1184.96  1189.78  1202.49  1241.06
eigval :     1243.00  1251.25  1257.98  1259.52  1268.34  1274.45
eigval :     1284.74  1294.41  1308.77  1319.23  1323.65  1331.28
eigval :     1331.93  1332.31  1335.67  1388.37  1401.74  1408.51
eigval :     1419.39  1421.31  1423.22  1425.04  1432.12  1439.46
eigval :     1439.68  1459.58  1463.52  1475.36  1481.35  1488.03
eigval :     1488.69  1489.34  1497.47  1498.60  1502.31  1558.18
eigval :     1564.42  1571.40  1572.15  1572.83  1581.44  1585.46
eigval :     1592.23  1595.35  3029.19  3031.00  3042.95  3045.38
eigval :     3051.21  3054.77  3071.70  3071.83  3073.62  3075.02
eigval :     3076.33  3076.50  3083.34  3083.51  3087.29  3087.63
eigval :     3089.00  3089.10  3098.14  3098.79  3099.10  3099.28
eigval :     3099.76  3100.49  3101.02  3102.78  3109.36  3109.62

   temp. (K)  partition function   enthalpy   heat capacity  entropy
                                   cal/mol     cal/K/mol   cal/K/mol   J/K/mol
 298.15  VIB  0.554E+16            19548.078    121.915    122.195
         ROT  0.314E+08              888.752      2.981     37.285
         INT  0.174E+24            20436.831    124.895    159.480
         TR   0.114E+29             1481.254      4.968     44.593
         TOT                       21918.0845   129.8636   204.0731   853.8419

       T/K    H(0)-H(T)+PV         H(T)/Eh          T*S/Eh         G(T)/Eh
   ------------------------------------------------------------------------
    298.15    0.349287E-01    0.561281E+00    0.969617E-01    0.464319E+00
   ------------------------------------------------------------------------

         :::::::::::::::::::::::::::::::::::::::::::::::::::::
         ::                  THERMODYNAMIC                  ::
         :::::::::::::::::::::::::::::::::::::::::::::::::::::
         :: total free energy        -102.562486602796 Eh   ::
         ::.................................................::
         :: total energy             -103.026805940959 Eh   ::
         :: zero point energy           0.526352367077 Eh   ::
         :: G(RRHO) w/o ZPVE           -0.062033028914 Eh   ::
         :: G(RRHO) contrib.            0.464319338163 Eh   ::
         :::::::::::::::::::::::::::::::::::::::::::::::::::::

           -------------------------------------------------
          | TOTAL ENERGY             -103.026805940959 Eh   |
          | TOTAL ENTHALPY           -102.465524882883 Eh   |
          | TOTAL FREE ENERGY        -102.562486602796 Eh   |
          | GRADIENT NORM               0.000088265563 Eh/α |
           -------------------------------------------------

 * finished run on 2025/07/16 at 16:28:27.542
