   * xtb version 6.7.1 (edcfbbe) compiled by 'albert@albert-system' on 2024-07-22

   ID    Z sym.   atoms
    1    6 C      1-9, 11-15, 17-23, 25-31, 33-40
    2    7 N      10, 16, 24, 32
    3    1 H      41-68

          program call               : xtb data2507/gas/DMAC-TRZ/DMAC-TRZ.xyz --gfn 2 --ohess vtight --parallel 40 --molden --ceasefiles --namespace data2507/gas/DMAC-TRZ/DMAC-TRZ_gas_S0_preOpt
          :  Hamiltonian                  GFN2-xTB          :
 * total energy  :  -103.0795207 Eh     change       -0.2101586E-08 Eh
 * total energy  :  -103.0923222 Eh     change       -0.1280149E-01 Eh
 * total energy  :  -103.0964410 Eh     change       -0.4118729E-02 Eh
 * total energy  :  -103.0975655 Eh     change       -0.1124497E-02 Eh
 * total energy  :  -103.0981828 Eh     change       -0.6173485E-03 Eh
 * total energy  :  -103.0983470 Eh     change       -0.1641599E-03 Eh
 * total energy  :  -103.0984037 Eh     change       -0.5675718E-04 Eh
 * total energy  :  -103.0984282 Eh     change       -0.2451703E-04 Eh
 * total energy  :  -103.0984332 Eh     change       -0.5004647E-05 Eh
 * total energy  :  -103.0984378 Eh     change       -0.4585965E-05 Eh
 * total energy  :  -103.0984467 Eh     change       -0.1565209E-05 Eh
 * total energy  :  -103.0984478 Eh     change       -0.1127887E-05 Eh
 * total energy  :  -103.0984487 Eh     change       -0.8965023E-06 Eh
 * total energy  :  -103.0984495 Eh     change       -0.7358437E-06 Eh
 * total energy  :  -103.0984501 Eh     change       -0.5785305E-06 Eh
 * total energy  :  -103.0984505 Eh     change       -0.4375038E-06 Eh
 * total energy  :  -103.0984508 Eh     change       -0.3164819E-06 Eh
 * total energy  :  -103.0984511 Eh     change       -0.2397949E-06 Eh
 * total energy  :  -103.0984511 Eh     change       -0.2396320E-08 Eh
   *** GEOMETRY OPTIMIZATION CONVERGED AFTER 22 ITERATIONS ***

 final structure:
================
68
 xtb: 6.7.1 (edcfbbe)
C           -6.89607821328477        1.26295992561710        0.00073662472922
C           -6.01564351582445       -0.00003382971719       -0.00011197079594
C           -6.89595599271591       -1.26311634385432       -0.00103959036674
C           -5.16652940285762       -0.00087374674243        1.25725619190771
C           -5.78353787755936       -0.00173738789904        2.50052121226235
C           -5.06060672175616       -0.00242531426060        3.67921870124487
C           -3.67857467287808       -0.00220207191961        3.62552884786789
C           -3.03903111522009       -0.00134650364591        2.40392439568243
C           -3.76861272172138       -0.00073573149922        1.21159094043854
N           -3.09759591270384        0.00010280205340        0.00002017423201
C           -1.67575018053165        0.00009373031897        0.00007484280037
C           -0.98086878897808        1.20522372443351       -0.00025957928346
C            0.39908439748175        1.20495650271309       -0.00022697573907
C            1.09944131105550        0.00004755153711        0.00008777316489
C            2.56335180638695        0.00001964372722        0.00008395904115
N            3.18593009595910        1.17443872631075       -0.00006970340475
C            4.51572638513134        1.12838343935465        0.00019073780434
C            5.24835795083622        2.39445882775531        0.00068019646630
C            4.55773008166973        3.60484270185209       -0.00288035220484
C            5.25371647724518        4.79790833574102       -0.00233777488443
C            6.64000767279796        4.79446386619539        0.00183085487330
C            7.33175900925931        3.59305307498494        0.00543139474812
C            6.64193704818712        2.39648607363347        0.00482974660991
N            5.21901766028233       -0.00003455192868        0.00004241438347
C            4.51568070774002       -1.12842403095209       -0.00009920072194
C            5.24825999995176       -2.39452983653664       -0.00058562248767
C            4.55758090893553       -3.60488499197327        0.00281690138572
C            5.25351692190820       -4.79797997434001        0.00225690607476
C            6.63980869072224       -4.79459364152271       -0.00175995153889
C            7.33161099979444       -3.59321170088965       -0.00519499444409
C            6.64183947271288       -2.39661554943513       -0.00458219381214
N            3.18588270323825       -1.17442473684858        0.00020240715865
C            0.39904353645303       -1.20483725801197        0.00040684042923
C           -0.98090850468215       -1.20505870503549        0.00043288815818
C           -3.76850388943570        0.00087434210549       -1.21161273149883
C           -3.03881679158710        0.00158769829644       -2.40388173557179
C           -3.67825096975461        0.00240477519598       -3.62554339275226
C           -5.06027802976678        0.00248019766380       -3.67935721276986
C           -5.78331402485544        0.00171379127889       -2.50072420631108
C           -5.16641658921865        0.00090698579389       -1.25740378665601
H           -7.53202404598462        1.29364049692286       -0.87968299952947
H           -7.53211939410751        1.29239148511196        0.88112773743699
H           -6.26760404382194        2.15166164647583        0.00140019542986
H           -7.53191234979707       -1.29261655221459       -0.88149047839495
H           -7.53198506937200       -1.29385932967677        0.87931861339480
H           -6.26739975484628       -2.15175918555243       -0.00164016900567
H           -6.86165579149379       -0.00188319615509        2.55797038031503
H           -5.57317251391537       -0.00310271634021        4.62912553115286
H           -3.09463366602712       -0.00267854065815        4.53391366397229
H           -1.96016669047846       -0.00112249802469        2.36769944238206
H           -1.53358672870466        2.13309720791915       -0.00053525720763
H            0.95447220392369        2.12929379826512       -0.00039387878867
H            3.47929858875719        3.58830509094887       -0.00615283477834
H            4.71700865531912        5.73534400028894       -0.00520371603115
H            7.18189774958539        5.72899878827080        0.00228781229472
H            8.41194641484933        3.59283127265463        0.00878062487889
H            7.16296814816492        1.45212216598161        0.00771984025954
H            3.47914967014872       -3.58830214771349        0.00594298728862
H            4.71676909324712       -5.73539316953411        0.00499435779581
H            7.18165952485028       -5.72915136662269       -0.00219486285964
H            8.41179885908818       -3.59303534779275       -0.00840422060293
H            7.16291100830165       -1.45227355912998       -0.00735469938616
H            0.95439850624384       -2.12919343912044        0.00059759117338
H           -1.53365828124148       -2.13291298724461        0.00069828649687
H           -1.95995582103751        0.00149798732545       -2.36756381369317
H           -3.09422776221632        0.00293851374874       -4.53387532670076
H           -5.57275865498073        0.00310991862493       -4.62930992037787
H           -6.86142677687250        0.00171185369094       -2.55826986313492

          :  Hamiltonian                  GFN2-xTB          :
         :: gradient norm              0.000035263245 Eh/a0 ::
         :: HOMO-LUMO gap              1.463497773327 eV    ::
         :: SCC energy              -104.958909343343 Eh    ::
         :: -> dispersion             -0.089386644653 Eh    ::
         :: repulsion energy           1.860458286736 Eh    ::

    * Orbital Energies and Occupations

         #    Occupation            Energy/Eh            Energy/eV
      -------------------------------------------------------------
         1        2.0000           -0.6843625             -18.6225
       ...           ...                  ...                  ...
        84        2.0000           -0.4129121             -11.2359
        85        2.0000           -0.4120201             -11.2116
        86        2.0000           -0.4119408             -11.2095
        87        2.0000           -0.4084744             -11.1152
        88        2.0000           -0.4072699             -11.0824
        89        2.0000           -0.4034655             -10.9789
        90        2.0000           -0.4034630             -10.9788
        91        2.0000           -0.3991740             -10.8621
        92        2.0000           -0.3939074             -10.7188
        93        2.0000           -0.3886732             -10.5763
        94        2.0000           -0.3718112             -10.1175
        95        2.0000           -0.3713210             -10.1042
        96        2.0000           -0.3423416              -9.3156 (HOMO)
        97                         -0.2885591              -7.8521 (LUMO)
        98                         -0.2866685              -7.8006
        99                         -0.2468988              -6.7185
       100                         -0.2370401              -6.4502
       101                         -0.2290813              -6.2336
       102                         -0.2290662              -6.2332
       103                         -0.2198721              -5.9830
       104                         -0.2149354              -5.8487
       105                         -0.2138725              -5.8198
       106                         -0.2015163              -5.4835
       107                         -0.1966855              -5.3521
       ...                                ...                  ...
       188                          0.6934407              18.8695
      -------------------------------------------------------------
                  HL-Gap            0.0537826 Eh            1.4635 eV

     #   Z          covCN         q      C6AA      α(0)
     1   6 C        3.761    -0.103    22.508     6.763
     2   6 C        3.909     0.021    20.157     6.382
     3   6 C        3.761    -0.103    22.508     6.763
     4   6 C        2.979    -0.015    28.369     8.737
     5   6 C        2.928    -0.036    28.902     8.816
     6   6 C        2.917    -0.045    29.123     8.849
     7   6 C        2.920    -0.033    28.820     8.804
     8   6 C        2.924    -0.059    29.472     8.903
     9   6 C        2.929     0.058    26.693     8.473
    10   7 N        2.755    -0.072    22.640     7.067
    11   6 C        2.929     0.076    26.293     8.409
    12   6 C        2.920    -0.036    28.905     8.817
    13   6 C        2.923    -0.023    28.591     8.769
    14   6 C        2.984    -0.001    28.044     8.687
    15   6 C        2.983     0.202    23.705     7.987
    16   7 N        1.844    -0.295    28.490     7.910
    17   6 C        2.982     0.203    23.704     7.986
    18   6 C        2.984    -0.000    28.024     8.684
    19   6 C        2.924    -0.023    28.585     8.768
    20   6 C        2.918    -0.027    28.683     8.782
    21   6 C        2.920    -0.023    28.582     8.767
    22   6 C        2.918    -0.027    28.682     8.782
    23   6 C        2.924    -0.023    28.585     8.768
    24   7 N        1.844    -0.293    28.454     7.905
    25   6 C        2.982     0.203    23.704     7.986
    26   6 C        2.984    -0.000    28.024     8.684
    27   6 C        2.924    -0.023    28.585     8.768
    28   6 C        2.918    -0.027    28.683     8.782
    29   6 C        2.920    -0.023    28.582     8.767
    30   6 C        2.918    -0.027    28.682     8.782
    31   6 C        2.924    -0.023    28.585     8.768
    32   7 N        1.844    -0.295    28.490     7.910
    33   6 C        2.923    -0.023    28.591     8.769
    34   6 C        2.920    -0.036    28.905     8.817
    35   6 C        2.929     0.058    26.693     8.473
    36   6 C        2.924    -0.059    29.472     8.903
    37   6 C        2.920    -0.033    28.820     8.804
    38   6 C        2.917    -0.045    29.123     8.849
    39   6 C        2.928    -0.036    28.902     8.816
    40   6 C        2.979    -0.015    28.369     8.737
    41   1 H        0.925     0.039     2.466     2.456
    42   1 H        0.925     0.039     2.466     2.456
    43   1 H        0.925     0.031     2.574     2.509
    44   1 H        0.925     0.039     2.466     2.456
    45   1 H        0.925     0.039     2.466     2.456
    46   1 H        0.925     0.031     2.574     2.509
    47   1 H        0.926     0.029     2.600     2.521
    48   1 H        0.926     0.025     2.656     2.549
    49   1 H        0.926     0.026     2.638     2.540
    50   1 H        0.926     0.022     2.698     2.569
    51   1 H        0.926     0.047     2.358     2.401
    52   1 H        0.926     0.062     2.175     2.306
    53   1 H        0.926     0.055     2.260     2.351
    54   1 H        0.926     0.037     2.486     2.465
    55   1 H        0.926     0.037     2.488     2.466
    56   1 H        0.926     0.037     2.486     2.466
    57   1 H        0.926     0.055     2.254     2.348
    58   1 H        0.926     0.055     2.260     2.351
    59   1 H        0.926     0.037     2.486     2.465
    60   1 H        0.926     0.037     2.488     2.466
    61   1 H        0.926     0.037     2.486     2.466
    62   1 H        0.926     0.055     2.254     2.348
    63   1 H        0.926     0.062     2.175     2.306
    64   1 H        0.926     0.047     2.358     2.401
    65   1 H        0.926     0.022     2.698     2.569
    66   1 H        0.926     0.026     2.638     2.540
    67   1 H        0.926     0.025     2.656     2.549
    68   1 H        0.926     0.029     2.600     2.521

molecular dipole:
                 x           y           z       tot (Debye)
 q only:        0.424      -0.000       0.000
   full:        0.486      -0.000       0.000       1.235

 projected vibrational frequencies (cm⁻¹)
eigval :       -0.00    -0.00    -0.00    -0.00     0.00     0.00
eigval :      -14.75     6.79    16.16    17.15    18.80    23.34
eigval :       34.96    47.99    57.21    62.27    90.82    92.36
eigval :       97.54   102.18   128.96   129.36   154.23   166.06
eigval :      181.45   190.77   203.43   210.50   219.71   231.07
eigval :      258.56   271.90   294.67   301.21   328.49   330.50
eigval :      344.03   363.75   364.69   367.01   372.35   378.13
eigval :      383.75   401.65   409.60   421.99   441.26   443.12
eigval :      449.42   488.56   491.77   515.43   547.44   552.28
eigval :      553.45   576.99   587.52   587.97   591.01   606.99
eigval :      616.72   621.46   626.55   634.03   648.61   663.73
eigval :      673.85   677.61   681.78   692.98   710.12   738.34
eigval :      752.44   775.58   776.39   777.77   794.90   819.22
eigval :      829.85   846.06   847.55   864.85   865.23   870.55
eigval :      875.49   877.12   909.26   910.70   912.64   913.48
eigval :      916.26   920.83   920.86   921.33   924.85   927.69
eigval :      929.79   930.53   933.68   933.93   939.09   957.00
eigval :      975.38   990.71  1014.28  1014.95  1047.88  1074.97
eigval :     1075.60  1077.43  1085.89  1089.39  1107.36  1111.96
eigval :     1112.75  1117.84  1119.02  1140.88  1160.63  1161.16
eigval :     1166.67  1171.12  1180.26  1181.07  1183.28  1187.18
eigval :     1187.46  1193.91  1203.66  1206.79  1212.25  1245.39
eigval :     1249.56  1251.34  1268.62  1268.87  1270.03  1294.81
eigval :     1316.12  1317.56  1326.15  1328.62  1329.67  1335.88
eigval :     1346.71  1371.21  1372.63  1376.92  1402.42  1404.68
eigval :     1420.64  1432.95  1434.15  1437.30  1444.98  1468.11
eigval :     1473.10  1482.18  1482.64  1490.29  1491.09  1498.95
eigval :     1500.81  1505.68  1513.90  1517.01  1568.03  1575.73
eigval :     1584.11  1585.65  1589.62  1593.15  1593.35  1595.17
eigval :     1595.73  1603.46  3026.39  3028.56  3038.75  3041.45
eigval :     3047.66  3051.53  3074.73  3074.79  3077.07  3077.22
eigval :     3080.99  3081.12  3081.64  3081.73  3088.21  3089.12
eigval :     3090.07  3090.48  3091.87  3092.32  3098.05  3098.89
eigval :     3107.63  3108.16  3108.26  3109.67  3111.35  3111.90

   temp. (K)  partition function   enthalpy   heat capacity  entropy
                                   cal/mol     cal/K/mol   cal/K/mol   J/K/mol
 298.15  VIB  0.174E+17            19283.666    118.830    121.519
         ROT  0.312E+08              888.752      2.981     37.275
         INT  0.542E+24            20172.418    121.811    158.794
         TR   0.114E+29             1481.254      4.968     44.593
         TOT                       21653.6723   126.7788   203.3865   850.9693

       T/K    H(0)-H(T)+PV         H(T)/Eh          T*S/Eh         G(T)/Eh
   ------------------------------------------------------------------------
    298.15    0.345073E-01    0.565891E+00    0.966355E-01    0.469255E+00
   ------------------------------------------------------------------------

         :::::::::::::::::::::::::::::::::::::::::::::::::::::
         ::                  THERMODYNAMIC                  ::
         :::::::::::::::::::::::::::::::::::::::::::::::::::::
         :: total free energy        -102.629195753204 Eh   ::
         ::.................................................::
         :: total energy             -103.098451056607 Eh   ::
         :: zero point energy           0.531383491761 Eh   ::
         :: G(RRHO) w/o ZPVE           -0.062128188358 Eh   ::
         :: G(RRHO) contrib.            0.469255303403 Eh   ::
         :::::::::::::::::::::::::::::::::::::::::::::::::::::

           -------------------------------------------------
          | TOTAL ENERGY             -103.098451056607 Eh   |
          | TOTAL ENTHALPY           -102.532560241482 Eh   |
          | TOTAL FREE ENERGY        -102.629195753204 Eh   |
          | GRADIENT NORM               0.000035261435 Eh/α |
          | HOMO-LUMO GAP               1.463498049467 eV   |
           -------------------------------------------------

 * finished run on 2025/07/16 at 16:21:24.294
