   * xtb version 6.7.1 (edcfbbe) compiled by 'albert@albert-system' on 2024-07-22

   ID    Z sym.   atoms
    1    6 C      1-9, 11-15, 17-23, 25-31, 33-40
    2    7 N      10, 16, 24, 32
    3    1 H      41-68

          program call               : xtb data2507/gas/DMAC-TRZ/DMAC-TRZ_gas_S0_crest.xyz --gfn 2 --ohess vtight --parallel 40 --molden --ceasefiles --namespace data2507/gas/DMAC-TRZ/DMAC-TRZ_gas_S0_finalOpt
          :  Hamiltonian                  GFN2-xTB          :
 * total energy  :  -103.0985602 Eh     change       -0.1380712E-08 Eh
 * total energy  :  -103.0985618 Eh     change       -0.1582301E-05 Eh
 * total energy  :  -103.0985627 Eh     change       -0.9459780E-06 Eh
 * total energy  :  -103.0985642 Eh     change       -0.1504701E-05 Eh
 * total energy  :  -103.0985652 Eh     change       -0.9747357E-06 Eh
 * total energy  :  -103.0985665 Eh     change       -0.1297345E-05 Eh
 * total energy  :  -103.0985675 Eh     change       -0.1018260E-05 Eh
 * total energy  :  -103.0985681 Eh     change       -0.5735801E-06 Eh
 * total energy  :  -103.0985686 Eh     change       -0.4398949E-06 Eh
 * total energy  :  -103.0985691 Eh     change       -0.5174487E-06 Eh
 * total energy  :  -103.0985728 Eh     change       -0.3164311E-06 Eh
 * total energy  :  -103.0985732 Eh     change       -0.4055887E-06 Eh
 * total energy  :  -103.0985739 Eh     change       -0.6648030E-06 Eh
 * total energy  :  -103.0985748 Eh     change       -0.9364496E-06 Eh
 * total energy  :  -103.0985750 Eh     change       -0.1778347E-06 Eh
 * total energy  :  -103.0985752 Eh     change       -0.2015302E-06 Eh
 * total energy  :  -103.0985750 Eh     change        0.1883709E-06 Eh
 * total energy  :  -103.0985753 Eh     change       -0.2456988E-06 Eh
 * total energy  :  -103.0985753 Eh     change       -0.4905482E-07 Eh
   *** GEOMETRY OPTIMIZATION CONVERGED AFTER 26 ITERATIONS ***

 final structure:
================
68
 xtb: 6.7.1 (edcfbbe)
C           -7.28679231271864        1.11914630225060        0.57948944052067
C           -6.40710309903374       -0.00623484651780        0.00486304936398
C           -7.28756830312549       -1.13125715973097       -0.56924676938692
C           -5.55769925522973       -0.57447388476125        1.12557071266276
C           -6.17787301187993       -1.13213743693938        2.23537905843154
C           -5.45886145433786       -1.64036504174299        3.30100036186709
C           -4.07745686778005       -1.57934950142519        3.27361127232691
C           -3.43552868780815       -1.03167309521750        2.18318845784825
C           -4.15981417443954       -0.54135959949595        1.09239693177964
N           -3.48599919321807       -0.00352867056787        0.00569622710489
C           -2.06754472685540       -0.00199305290774        0.00593834669996
C           -1.37162392500490        1.18346948054530        0.22602257171569
C            0.00776193425975        1.18492512629317        0.22493864979142
C            0.71040998970597        0.00138760573337        0.00449064492834
C            2.17319345518555        0.00302923624505        0.00263457393705
N            2.79547611185779        1.16114771045856        0.20068602631182
C            4.12502722604555        1.11639959923802        0.19360864263751
C            4.85575589809031        2.36471913219972        0.41247639884095
C            4.16275083834919        3.56048785997615        0.59103255916313
C            4.85588401776978        4.73725078895962        0.79725666161928
C            6.24182794273808        4.73181984133434        0.82779960043747
C            6.93592973769985        3.54484852734997        0.65116645384633
C            6.24890471439535        2.36467637653334        0.44387465629158
N            4.82961227183088        0.00549918210244       -0.00097680982930
C            4.12659231078372       -1.10661542307076       -0.19426949949940
C            4.85889012952408       -2.35336191231873       -0.41679740531885
C            4.16733346008172       -3.54916008490271       -0.60067531892163
C            4.86191370317075       -4.72427472867827       -0.81137539271630
C            6.24786935649657       -4.71719001270636       -0.84088663535244
C            6.94053898803791       -3.53021154581391       -0.65874794187480
C            6.25205743712922       -2.35164886561662       -0.44719214983059
N            2.79714477286546       -1.15381803519375       -0.19761874231334
C            0.01035140965089       -1.18393184598592       -0.21477622469063
C           -1.36899156245492       -1.18586382214378       -0.21443561890802
C           -4.16021620295251        0.53155904395329       -1.08212560424031
C           -3.43622563032008        1.02190680788946       -2.17310529202969
C           -4.07854562758833        1.56701412841337       -3.26457783124221
C           -5.46004266417316        1.62555753151998       -3.29277430613170
C           -6.17870853544897        1.11733812611188       -2.22692263858454
C           -5.55813283402691        0.56193123753066       -1.11620363680459
H           -7.92001373299560        1.54906218783657       -0.19166687548098
H           -7.92555884040369        0.74549568735775        1.37496231470442
H           -6.65767846257533        1.90848145489819        0.98686036851039
H           -7.92672305844638       -0.75741592571977       -1.36430175526943
H           -7.92057930141497       -1.56093204090460        0.20219695531408
H           -6.65901671091266       -1.92084314711449       -0.97699189445267
H           -7.25595106297726       -1.17177972726852        2.27630039996973
H           -5.97344617444794       -2.06985009500165        4.14699469418191
H           -3.49541115514636       -1.95437669013150        4.10226104261177
H           -2.35785673451829       -0.97617387894065        2.17686357749619
H           -1.92435393767507        2.09598009175954        0.39484454155496
H            0.56158580287129        2.09393899192470        0.39763330406053
H            3.08463205567178        3.54562001280868        0.56379854298958
H            4.31721198124268        5.66340624701601        0.93494267768036
H            6.78154917155717        5.65354830576334        0.98949615224777
H            8.01585056140529        3.54308286115122        0.67575175256526
H            6.77184907067075        1.43162700399556        0.30500032202791
H            3.08917503867801       -3.53560910937764       -0.57434218199115
H            4.32437056913521       -5.65042063220439       -0.95347100510086
H            6.78871544741873       -5.63763836291280       -1.00607549903726
H            8.02047709344701       -3.52715311419472       -0.68246587009280
H            6.77381771106425       -1.41856216852516       -0.30418874205362
H            0.56625966150859       -2.09155660854570       -0.38803598471995
H           -1.91968816275629       -2.09968991505162       -0.38277975722772
H           -2.35845543899310        0.96847099124820       -2.16611870287093
H           -3.49670075847316        1.94201867921958       -4.09337912625531
H           -5.97491296261963        2.05317787400263       -4.13953801967722
H           -7.25683042798748        1.15528062930953       -2.26830704993794

          :  Hamiltonian                  GFN2-xTB          :
         :: gradient norm              0.000030458623 Eh/a0 ::
         :: HOMO-LUMO gap              1.529318540794 eV    ::
         :: SCC energy              -104.958771873516 Eh    ::
         :: -> dispersion             -0.089433953759 Eh    ::
         :: repulsion energy           1.860196540844 Eh    ::

    * Orbital Energies and Occupations

         #    Occupation            Energy/Eh            Energy/eV
      -------------------------------------------------------------
         1        2.0000           -0.6832360             -18.5918
       ...           ...                  ...                  ...
        84        2.0000           -0.4125559             -11.2262
        85        2.0000           -0.4113745             -11.1941
        86        2.0000           -0.4113277             -11.1928
        87        2.0000           -0.4078664             -11.0986
        88        2.0000           -0.4065102             -11.0617
        89        2.0000           -0.4041827             -10.9984
        90        2.0000           -0.4037840             -10.9875
        91        2.0000           -0.4002090             -10.8902
        92        2.0000           -0.3947478             -10.7416
        93        2.0000           -0.3895069             -10.5990
        94        2.0000           -0.3707290             -10.0880
        95        2.0000           -0.3703080             -10.0766
        96        2.0000           -0.3436658              -9.3516 (HOMO)
        97                         -0.2874644              -7.8223 (LUMO)
        98                         -0.2856999              -7.7743
        99                         -0.2461193              -6.6972
       100                         -0.2357354              -6.4147
       101                         -0.2284425              -6.2162
       102                         -0.2284281              -6.2158
       103                         -0.2210190              -6.0142
       104                         -0.2160110              -5.8780
       105                         -0.2148158              -5.8454
       106                         -0.2013845              -5.4800
       107                         -0.1959350              -5.3317
       ...                                ...                  ...
       188                          0.6943844              18.8952
      -------------------------------------------------------------
                  HL-Gap            0.0562015 Eh            1.5293 eV

     #   Z          covCN         q      C6AA      α(0)
     1   6 C        3.761    -0.103    22.510     6.763
     2   6 C        3.909     0.021    20.157     6.381
     3   6 C        3.761    -0.103    22.510     6.763
     4   6 C        2.980    -0.014    28.356     8.735
     5   6 C        2.928    -0.036    28.902     8.816
     6   6 C        2.917    -0.045    29.110     8.847
     7   6 C        2.920    -0.033    28.820     8.803
     8   6 C        2.924    -0.059    29.464     8.902
     9   6 C        2.928     0.058    26.699     8.474
    10   7 N        2.754    -0.070    22.588     7.059
    11   6 C        2.928     0.075    26.324     8.414
    12   6 C        2.920    -0.037    28.928     8.820
    13   6 C        2.923    -0.024    28.601     8.770
    14   6 C        2.984    -0.002    28.068     8.690
    15   6 C        2.983     0.202    23.711     7.987
    16   7 N        1.844    -0.295    28.503     7.912
    17   6 C        2.982     0.202    23.706     7.987
    18   6 C        2.984    -0.000    28.024     8.684
    19   6 C        2.924    -0.023    28.588     8.768
    20   6 C        2.918    -0.027    28.685     8.783
    21   6 C        2.920    -0.023    28.586     8.768
    22   6 C        2.918    -0.027    28.684     8.783
    23   6 C        2.924    -0.023    28.586     8.768
    24   7 N        1.844    -0.294    28.472     7.908
    25   6 C        2.982     0.202    23.706     7.987
    26   6 C        2.984    -0.000    28.024     8.684
    27   6 C        2.924    -0.023    28.588     8.768
    28   6 C        2.918    -0.027    28.685     8.783
    29   6 C        2.920    -0.023    28.586     8.768
    30   6 C        2.918    -0.027    28.684     8.783
    31   6 C        2.924    -0.023    28.586     8.768
    32   7 N        1.844    -0.295    28.503     7.912
    33   6 C        2.923    -0.024    28.601     8.770
    34   6 C        2.920    -0.037    28.928     8.820
    35   6 C        2.928     0.058    26.699     8.474
    36   6 C        2.924    -0.059    29.464     8.902
    37   6 C        2.920    -0.033    28.820     8.803
    38   6 C        2.917    -0.045    29.110     8.847
    39   6 C        2.928    -0.036    28.902     8.816
    40   6 C        2.980    -0.014    28.356     8.735
    41   1 H        0.925     0.039     2.463     2.454
    42   1 H        0.925     0.039     2.464     2.455
    43   1 H        0.925     0.031     2.571     2.507
    44   1 H        0.925     0.039     2.464     2.455
    45   1 H        0.925     0.039     2.463     2.454
    46   1 H        0.925     0.031     2.571     2.507
    47   1 H        0.926     0.029     2.593     2.518
    48   1 H        0.926     0.026     2.649     2.545
    49   1 H        0.926     0.027     2.630     2.536
    50   1 H        0.926     0.024     2.670     2.555
    51   1 H        0.926     0.046     2.366     2.405
    52   1 H        0.926     0.061     2.183     2.311
    53   1 H        0.926     0.055     2.261     2.351
    54   1 H        0.926     0.037     2.489     2.467
    55   1 H        0.926     0.037     2.491     2.468
    56   1 H        0.926     0.037     2.489     2.467
    57   1 H        0.926     0.055     2.256     2.349
    58   1 H        0.926     0.055     2.261     2.351
    59   1 H        0.926     0.037     2.489     2.467
    60   1 H        0.926     0.037     2.491     2.468
    61   1 H        0.926     0.037     2.489     2.467
    62   1 H        0.926     0.055     2.255     2.349
    63   1 H        0.926     0.061     2.183     2.310
    64   1 H        0.926     0.046     2.366     2.405
    65   1 H        0.926     0.024     2.670     2.555
    66   1 H        0.926     0.027     2.630     2.536
    67   1 H        0.926     0.026     2.649     2.545
    68   1 H        0.926     0.030     2.593     2.518

molecular dipole:
                 x           y           z       tot (Debye)
 q only:        0.284       0.001      -0.001
   full:        0.343       0.001      -0.001       0.871

 projected vibrational frequencies (cm⁻¹)
eigval :       -0.00    -0.00     0.00     0.00     0.00     0.00
eigval :        4.51    15.38    15.97    16.72    23.16    35.15
eigval :       36.44    48.64    57.19    64.17    90.96    93.30
eigval :       99.01   103.04   128.20   130.46   153.92   168.29
eigval :      181.71   190.02   205.51   211.47   218.78   233.46
eigval :      258.49   272.77   295.17   302.23   329.20   331.49
eigval :      344.35   363.90   364.77   368.52   373.22   378.44
eigval :      383.82   401.87   410.01   421.78   441.32   443.51
eigval :      451.75   488.28   495.87   515.14   547.41   552.64
eigval :      553.49   577.39   587.54   587.98   590.67   607.49
eigval :      616.89   621.15   626.48   634.56   648.38   663.90
eigval :      673.92   677.35   682.64   693.66   708.78   738.16
eigval :      752.29   775.55   777.01   778.23   794.78   820.74
eigval :      830.32   845.93   847.50   866.81   867.25   871.82
eigval :      875.77   877.19   909.25   910.66   913.08   913.95
eigval :      915.91   920.94   921.21   922.87   924.55   928.47
eigval :      930.24   930.51   933.62   933.86   939.03   957.13
eigval :      975.35   990.73  1014.38  1014.78  1047.73  1074.99
eigval :     1075.61  1077.29  1085.67  1089.33  1107.43  1111.89
eigval :     1114.10  1118.84  1120.12  1141.22  1160.45  1161.46
eigval :     1166.75  1172.08  1180.29  1181.14  1183.89  1187.55
eigval :     1188.31  1194.34  1204.04  1206.74  1212.19  1245.86
eigval :     1249.76  1253.15  1268.66  1269.15  1270.11  1295.23
eigval :     1316.13  1317.15  1326.85  1328.49  1329.66  1335.13
eigval :     1343.04  1371.46  1372.00  1376.43  1402.64  1405.82
eigval :     1420.91  1432.83  1434.19  1436.89  1443.76  1468.18
eigval :     1473.09  1480.48  1482.85  1490.24  1491.11  1497.91
eigval :     1500.79  1505.51  1513.39  1515.69  1566.34  1575.75
eigval :     1584.19  1585.48  1588.92  1592.45  1593.31  1595.23
eigval :     1595.75  1603.15  3026.43  3028.58  3039.12  3041.83
eigval :     3048.06  3052.04  3074.50  3074.56  3077.81  3077.95
eigval :     3080.77  3080.90  3082.62  3082.74  3087.02  3088.06
eigval :     3089.88  3090.27  3093.70  3094.15  3100.60  3101.36
eigval :     3107.48  3108.13  3108.23  3109.49  3111.33  3111.88

   temp. (K)  partition function   enthalpy   heat capacity  entropy
                                   cal/mol     cal/K/mol   cal/K/mol   J/K/mol
 298.15  VIB  0.126E+17            19238.133    119.012    121.356
         ROT  0.312E+08              888.752      2.981     37.276
         INT  0.394E+24            20126.885    121.993    158.632
         TR   0.114E+29             1481.254      4.968     44.593
         TOT                       21608.1390   126.9608   203.2245   850.2914

       T/K    H(0)-H(T)+PV         H(T)/Eh          T*S/Eh         G(T)/Eh
   ------------------------------------------------------------------------
    298.15    0.344348E-01    0.565958E+00    0.965585E-01    0.469399E+00
   ------------------------------------------------------------------------

         :::::::::::::::::::::::::::::::::::::::::::::::::::::
         ::                  THERMODYNAMIC                  ::
         :::::::::::::::::::::::::::::::::::::::::::::::::::::
         :: total free energy        -102.629176103047 Eh   ::
         ::.................................................::
         :: total energy             -103.098575332674 Eh   ::
         :: zero point energy           0.531522991478 Eh   ::
         :: G(RRHO) w/o ZPVE           -0.062123761851 Eh   ::
         :: G(RRHO) contrib.            0.469399229627 Eh   ::
         :::::::::::::::::::::::::::::::::::::::::::::::::::::

           -------------------------------------------------
          | TOTAL ENERGY             -103.098575332674 Eh   |
          | TOTAL ENTHALPY           -102.532617579846 Eh   |
          | TOTAL FREE ENERGY        -102.629176103047 Eh   |
          | GRADIENT NORM               0.000030461051 Eh/α |
          | HOMO-LUMO GAP               1.529319668766 eV   |
           -------------------------------------------------

 * finished run on 2025/07/16 at 16:24:05.935
