   * xtb version 6.7.1 (edcfbbe) compiled by 'albert@albert-system' on 2024-07-22

   ID    Z sym.   atoms
    1    8 O      1
    2    6 C      2-12, 14-26, 28-46
    3    7 N      13, 27
    4    1 H      47-76

          program call               : xtb data2507/gas/TCB/TCB_gas_S0_crest.xyz --gfn 2 --ohess vtight --parallel 40 --molden --ceasefiles --namespace data2507/gas/TCB/TCB_gas_S0_finalOpt
          :  Hamiltonian                  GFN2-xTB          :
 * total energy  :  -117.3055534 Eh     change       -0.2169131E-08 Eh
 * total energy  :  -117.3055550 Eh     change       -0.1590705E-05 Eh
 * total energy  :  -117.3055565 Eh     change       -0.1477847E-05 Eh
 * total energy  :  -117.3055593 Eh     change       -0.2801974E-05 Eh
 * total energy  :  -117.3055611 Eh     change       -0.1852238E-05 Eh
 * total energy  :  -117.3055628 Eh     change       -0.1645906E-05 Eh
 * total energy  :  -117.3055647 Eh     change       -0.1917068E-05 Eh
 * total energy  :  -117.3055665 Eh     change       -0.1742154E-05 Eh
 * total energy  :  -117.3055674 Eh     change       -0.9864567E-06 Eh
 * total energy  :  -117.3055683 Eh     change       -0.8892859E-06 Eh
 * total energy  :  -117.3055718 Eh     change       -0.5630910E-06 Eh
 * total energy  :  -117.3055722 Eh     change       -0.4295615E-06 Eh
 * total energy  :  -117.3055727 Eh     change       -0.4398875E-06 Eh
 * total energy  :  -117.3055733 Eh     change       -0.6048954E-06 Eh
 * total energy  :  -117.3055741 Eh     change       -0.7899735E-06 Eh
 * total energy  :  -117.3055750 Eh     change       -0.9376027E-06 Eh
 * total energy  :  -117.3055759 Eh     change       -0.8671070E-06 Eh
 * total energy  :  -117.3055766 Eh     change       -0.6941464E-06 Eh
 * total energy  :  -117.3055766 Eh     change       -0.8343306E-08 Eh
   *** GEOMETRY OPTIMIZATION CONVERGED AFTER 22 ITERATIONS ***

 final structure:
================
76
 xtb: 6.7.1 (edcfbbe)
O            7.41042279478462        3.41113595264292        0.62165915799163
C            7.52012069571373        2.24626039237142        0.29223158937922
C            8.83656342853386        1.66202368826368       -0.07299275741343
C            9.17012502668330        0.34714261751979        0.24450778596822
C           10.42018007231871       -0.14697150116320       -0.08014977450910
C           11.34206953554725        0.65916334250503       -0.72871097282497
C           11.02059922807901        1.97154981422355       -1.03647749833380
C            9.77840430958190        2.47458196930322       -0.70022086243407
C            6.34608388862329        1.34178592529244        0.23809226382724
C            5.27478919791817        1.58502258573958        1.09744638060781
C            4.15698507198861        0.77961585888071        1.07597243121300
C            4.07483208667595       -0.27475069579994        0.16613359890465
N            2.94276202655057       -1.09001731588434        0.13417485075810
C            2.93869972189229       -2.47359132857264        0.11963788100290
C            4.00159356893870       -3.36286554149741        0.17886916254094
C            3.71328043666758       -4.71473828537802        0.18322449912551
C            2.40116830319795       -5.17916378190550        0.14059096734452
C            1.33813614213443       -4.29856209252014        0.10943935223977
C            1.60336347115325       -2.93610557542961        0.10381068522018
C            0.76531778416373       -1.76854139594423        0.09799284557557
C           -0.60817288379346       -1.58874529871856        0.06065416009404
C           -1.12432671194893       -0.29872800615491        0.04113540249536
C           -2.57564005202810       -0.07831221519646        0.01142117551951
C           -3.16065384354318        0.95130024366119        0.74733186302352
C           -4.52400787124111        1.15475541810610        0.72975635135119
C           -5.35136904483571        0.33685716588112       -0.03996221691377
N           -6.73425959268976        0.54323721072651       -0.06525528544950
C           -7.24668057463535        1.84486085520634       -0.04024157051372
C           -8.41932076428004        2.13139560503846        0.65861061013662
C           -8.92312449743694        3.41728477081686        0.67537488202434
C           -8.26637817723042        4.43795105748118        0.00756762032742
C           -7.09845815736409        4.15998606925300       -0.68355130962777
C           -6.59139053671143        2.87567975745110       -0.71388450730235
C           -7.60245985063480       -0.55251692099425       -0.11878292059171
C           -8.77940333978290       -0.48859072104310       -0.86464857619547
C           -9.63462307732925       -1.57217485776243       -0.90989281480323
C           -9.33021281442388       -2.73660135688576       -0.22397011916583
C           -8.16014625809599       -2.80729922629037        0.51421364704094
C           -7.30271483201712       -1.72617618727357        0.57299261717262
C           -4.77205070054332       -0.69104113152696       -0.78422667206412
C           -3.40919788987291       -0.89524654905789       -0.75134693103758
C           -0.24689887171533        0.79466916389761        0.03722399379515
C            1.12350923210101        0.63797068765531        0.07014508966049
C            1.63061529016829       -0.65232225240000        0.12292792762802
C            5.13012133337426       -0.50236904815722       -0.71729946625779
C            6.25661930556704        0.29268240244485       -0.67607590123332
H            8.46017295149760       -0.27735327012066        0.76734520779281
H           10.67777973127508       -1.16467384679524        0.17421367776822
H           12.31438693223802        0.26605366428264       -0.98674499194307
H           11.74209239785576        2.60299789272273       -1.53336222833941
H            9.51352436313931        3.49753486721109       -0.92281962919630
H            5.34844891119569        2.40719909193878        1.79352717041157
H            3.34758233872504        0.94787735572760        1.77001927653963
H            5.02242448786107       -3.01598098559103        0.23335050883358
H            4.52454282524234       -5.42644389223670        0.22488294362369
H            2.21747268316306       -6.24317487182824        0.14306272143566
H            0.31992434909796       -4.65676376920041        0.09582327243600
H           -1.26742559128730       -2.44338982978710        0.06389576480803
H           -2.54062175520035        1.58227732707863        1.36710454608916
H           -4.96167630444610        1.94719648021741        1.31933246280471
H           -8.92822216233230        1.33979054418479        1.18903106909378
H           -9.83140311482713        3.62531183642488        1.22179811834803
H           -8.66171211457532        5.44221582526377        0.02561585756496
H           -6.58197868177386        4.94811488258971       -1.21171889411851
H           -5.68631271418761        2.65981170943206       -1.26267223502416
H           -9.01452201034770        0.41431079496038       -1.40910089325576
H          -10.54189178987883       -1.50935415533017       -1.49276831086332
H           -9.99968936879996       -3.58238912217815       -0.26438487492048
H           -7.91672041388795       -3.70913646973610        1.05674503655914
H           -6.39622206763354       -1.78050936194907        1.15802510094741
H           -5.40069584948404       -1.32358447050068       -1.39401636407894
H           -2.97844230454204       -1.68268275617250       -1.35225295511974
H           -0.65793997433078        1.79157156380567       -0.01967825278575
H            1.77569669885573        1.49755719539459        0.03779178707449
H            5.04834182737365       -1.29258638370260       -1.44839709610044
H            7.05781302830838        0.12123496258992       -1.37986468388221

          :  Hamiltonian                  GFN2-xTB          :
         :: gradient norm              0.000063052156 Eh/a0 ::
         :: HOMO-LUMO gap              1.560220402809 eV    ::
         :: SCC energy              -119.491076209745 Eh    ::
         :: -> dispersion             -0.101545545401 Eh    ::
         :: repulsion energy           2.185499631386 Eh    ::

    * Orbital Energies and Occupations

         #    Occupation            Energy/Eh            Energy/eV
      -------------------------------------------------------------
         1        2.0000           -0.7032839             -19.1373
       ...           ...                  ...                  ...
        97        2.0000           -0.4174293             -11.3588
        98        2.0000           -0.4164177             -11.3313
        99        2.0000           -0.4160022             -11.3200
       100        2.0000           -0.4103696             -11.1667
       101        2.0000           -0.4061612             -11.0522
       102        2.0000           -0.4054408             -11.0326
       103        2.0000           -0.4030206             -10.9667
       104        2.0000           -0.4020931             -10.9415
       105        2.0000           -0.3971073             -10.8058
       106        2.0000           -0.3896943             -10.6041
       107        2.0000           -0.3812127             -10.3733
       108        2.0000           -0.3665730              -9.9750
       109        2.0000           -0.3455123              -9.4019 (HOMO)
       110                         -0.2881753              -7.8416 (LUMO)
       111                         -0.2488909              -6.7727
       112                         -0.2438278              -6.6349
       113                         -0.2413914              -6.5686
       114                         -0.2392425              -6.5101
       115                         -0.2348768              -6.3913
       116                         -0.2284957              -6.2177
       117                         -0.2251894              -6.1277
       118                         -0.2198561              -5.9826
       119                         -0.2190911              -5.9618
       120                         -0.2176110              -5.9215
       ...                                ...                  ...
       214                          0.7450187              20.2730
      -------------------------------------------------------------
                  HL-Gap            0.0573370 Eh            1.5602 eV

     #   Z          covCN         q      C6AA      α(0)
     1   8 O        0.858    -0.371    21.107     6.160
     2   6 C        2.828     0.225    23.271     7.905
     3   6 C        2.973    -0.011    28.288     8.724
     4   6 C        2.921    -0.027    28.668     8.780
     5   6 C        2.918    -0.028    28.689     8.783
     6   6 C        2.920    -0.023    28.590     8.768
     7   6 C        2.918    -0.026    28.663     8.779
     8   6 C        2.925    -0.018    28.449     8.747
     9   6 C        2.972    -0.016    28.415     8.744
    10   6 C        2.924    -0.018    28.451     8.747
    11   6 C        2.920    -0.042    29.055     8.839
    12   6 C        2.913     0.071    26.421     8.429
    13   7 N        2.802    -0.041    22.023     6.970
    14   6 C        3.072     0.046    26.890     8.502
    15   6 C        2.910    -0.051    29.256     8.869
    16   6 C        2.924    -0.033    28.824     8.804
    17   6 C        2.920    -0.040    28.989     8.829
    18   6 C        2.913    -0.032    28.802     8.800
    19   6 C        3.068    -0.015    28.325     8.727
    20   6 C        3.064    -0.016    28.355     8.732
    21   6 C        2.918    -0.038    28.952     8.824
    22   6 C        2.976     0.001    27.995     8.679
    23   6 C        2.976     0.002    27.981     8.677
    24   6 C        2.924    -0.035    28.877     8.812
    25   6 C        2.920    -0.049    29.208     8.863
    26   6 C        2.925     0.063    26.597     8.457
    27   7 N        2.752    -0.075    22.705     7.077
    28   6 C        2.924     0.065    26.539     8.448
    29   6 C        2.922    -0.048    29.188     8.860
    30   6 C        2.920    -0.029    28.735     8.790
    31   6 C        2.919    -0.039    28.963     8.825
    32   6 C        2.920    -0.029    28.734     8.790
    33   6 C        2.922    -0.048    29.186     8.859
    34   6 C        2.924     0.065    26.538     8.448
    35   6 C        2.922    -0.048    29.188     8.860
    36   6 C        2.920    -0.029    28.735     8.790
    37   6 C        2.919    -0.039    28.964     8.825
    38   6 C        2.920    -0.029    28.735     8.791
    39   6 C        2.922    -0.048    29.187     8.859
    40   6 C        2.920    -0.049    29.209     8.863
    41   6 C        2.924    -0.035    28.876     8.812
    42   6 C        2.929    -0.038    28.942     8.823
    43   6 C        2.908    -0.051    29.269     8.871
    44   6 C        3.073     0.044    26.932     8.509
    45   6 C        2.921    -0.043    29.069     8.842
    46   6 C        2.920    -0.026    28.662     8.779
    47   1 H        0.926     0.035     2.517     2.481
    48   1 H        0.926     0.037     2.495     2.470
    49   1 H        0.926     0.038     2.477     2.461
    50   1 H        0.926     0.039     2.456     2.451
    51   1 H        0.926     0.054     2.274     2.358
    52   1 H        0.926     0.060     2.201     2.320
    53   1 H        0.926     0.048     2.341     2.393
    54   1 H        0.926     0.027     2.630     2.536
    55   1 H        0.926     0.030     2.584     2.514
    56   1 H        0.926     0.030     2.590     2.517
    57   1 H        0.926     0.033     2.549     2.497
    58   1 H        0.926     0.034     2.524     2.484
    59   1 H        0.926     0.033     2.546     2.495
    60   1 H        0.926     0.031     2.567     2.505
    61   1 H        0.926     0.031     2.569     2.506
    62   1 H        0.926     0.031     2.574     2.509
    63   1 H        0.926     0.030     2.592     2.518
    64   1 H        0.926     0.031     2.573     2.508
    65   1 H        0.926     0.031     2.568     2.506
    66   1 H        0.926     0.031     2.568     2.506
    67   1 H        0.926     0.031     2.575     2.509
    68   1 H        0.926     0.029     2.594     2.519
    69   1 H        0.926     0.031     2.576     2.510
    70   1 H        0.926     0.031     2.567     2.506
    71   1 H        0.926     0.031     2.570     2.507
    72   1 H        0.926     0.033     2.547     2.496
    73   1 H        0.926     0.034     2.530     2.487
    74   1 H        0.926     0.031     2.579     2.511
    75   1 H        0.926     0.046     2.373     2.409
    76   1 H        0.926     0.041     2.430     2.438

molecular dipole:
                 x           y           z       tot (Debye)
 q only:        0.226      -0.964      -0.324
   full:        0.317      -1.078      -0.368       3.006

 projected vibrational frequencies (cm⁻¹)
eigval :       -0.00    -0.00    -0.00    -0.00     0.00     0.00
eigval :        8.74    11.91    15.81    20.67    28.85    35.69
eigval :       41.90    47.23    52.02    54.90    65.57    72.45
eigval :       80.86    92.46   100.12   112.10   113.38   138.37
eigval :      148.14   159.78   173.10   187.95   204.82   209.76
eigval :      233.21   236.65   266.09   276.18   279.72   308.63
eigval :      316.59   345.53   351.23   359.48   368.39   377.80
eigval :      378.29   380.17   386.65   388.78   393.07   401.28
eigval :      410.76   422.94   436.06   458.34   464.58   475.90
eigval :      487.44   492.60   514.09   535.14   550.00   551.14
eigval :      581.99   582.92   586.76   589.88   592.38   595.57
eigval :      600.80   610.19   619.55   622.69   638.10   659.41
eigval :      660.58   669.09   674.82   678.66   692.40   694.71
eigval :      708.67   714.07   731.65   751.14   756.84   760.80
eigval :      774.70   776.26   808.66   817.75   830.62   833.77
eigval :      868.08   869.99   874.35   876.24   877.39   879.31
eigval :      883.05   891.40   892.28   900.41   903.00   903.71
eigval :      909.94   911.10   911.79   918.43   921.56   925.45
eigval :      927.34   927.61   928.72   928.98   929.93   930.43
eigval :      932.18   934.50   938.48   949.71   983.56   995.22
eigval :     1004.99  1009.26  1024.57  1029.05  1072.83  1076.24
eigval :     1080.84  1083.41  1084.37  1119.42  1122.08  1123.44
eigval :     1124.50  1134.40  1142.84  1158.64  1175.25  1179.10
eigval :     1180.78  1180.88  1181.11  1181.82  1187.41  1193.23
eigval :     1195.96  1198.28  1206.87  1217.23  1223.34  1244.71
eigval :     1260.74  1262.70  1264.54  1272.54  1277.61  1279.01
eigval :     1282.01  1288.82  1309.33  1314.87  1320.79  1321.76
eigval :     1323.39  1326.85  1327.53  1333.72  1349.92  1360.82
eigval :     1373.69  1406.56  1410.24  1422.35  1429.82  1430.97
eigval :     1436.55  1443.65  1462.95  1466.82  1472.86  1477.20
eigval :     1483.07  1488.94  1502.09  1554.84  1557.70  1569.96
eigval :     1577.13  1580.71  1581.05  1583.45  1586.17  1592.10
eigval :     1593.63  1595.33  1599.02  1602.69  1614.70  1691.63
eigval :     3074.46  3074.95  3075.33  3075.77  3076.44  3076.58
eigval :     3077.63  3077.91  3079.20  3082.28  3082.44  3083.36
eigval :     3085.51  3085.56  3086.34  3087.59  3088.68  3089.18
eigval :     3089.65  3089.95  3090.55  3092.10  3092.13  3094.46
eigval :     3096.12  3096.73  3097.23  3097.34  3097.55  3100.40

   temp. (K)  partition function   enthalpy   heat capacity  entropy
                                   cal/mol     cal/K/mol   cal/K/mol   J/K/mol
 298.15  VIB  0.183E+18            21448.839    135.101    134.447
         ROT  0.114E+09              888.752      2.981     39.853
         INT  0.210E+26            22337.591    138.082    174.300
         TR   0.139E+29             1481.254      4.968     44.992
         TOT                       23818.8448   143.0505   219.2916   917.5162

       T/K    H(0)-H(T)+PV         H(T)/Eh          T*S/Eh         G(T)/Eh
   ------------------------------------------------------------------------
    298.15    0.379577E-01    0.625401E+00    0.104193E+00    0.521209E+00
   ------------------------------------------------------------------------

         :::::::::::::::::::::::::::::::::::::::::::::::::::::
         ::                  THERMODYNAMIC                  ::
         :::::::::::::::::::::::::::::::::::::::::::::::::::::
         :: total free energy        -116.784367733449 Eh   ::
         ::.................................................::
         :: total energy             -117.305576578359 Eh   ::
         :: zero point energy           0.587443635313 Eh   ::
         :: G(RRHO) w/o ZPVE           -0.066234790403 Eh   ::
         :: G(RRHO) contrib.            0.521208844910 Eh   ::
         :::::::::::::::::::::::::::::::::::::::::::::::::::::

           -------------------------------------------------
          | TOTAL ENERGY             -117.305576578359 Eh   |
          | TOTAL ENTHALPY           -116.680175197697 Eh   |
          | TOTAL FREE ENERGY        -116.784367733449 Eh   |
          | GRADIENT NORM               0.000063050309 Eh/α |
          | HOMO-LUMO GAP               1.560220508667 eV   |
           -------------------------------------------------

 * finished run on 2025/08/30 at 20:14:32.457
