   * xtb version 6.7.1 (edcfbbe) compiled by 'albert@albert-system' on 2024-07-22

   ID    Z sym.   atoms
    1    8 O      1
    2    6 C      2-12, 14-26, 28-46
    3    7 N      13, 27
    4    1 H      47-76

          program call               : xtb data2507/gas/TCB/TCB_gas_T1_crest.xyz --gfn 2 --spinpol --tblite --uhf 2 --ohess vtight --parallel 40 --molden --ceasefiles --namespace data2507/gas/TCB/TCB_gas_T1_finalOpt
 * total energy  :  -117.2231452 Eh     change        0.4087795E-08 Eh
 * total energy  :  -117.2233115 Eh     change       -0.1662512E-03 Eh
 * total energy  :  -117.2233824 Eh     change       -0.7095679E-04 Eh
 * total energy  :  -117.2233947 Eh     change       -0.1228769E-04 Eh
 * total energy  :  -117.2234062 Eh     change       -0.1153533E-04 Eh
 * total energy  :  -117.2234152 Eh     change       -0.8934507E-05 Eh
 * total energy  :  -117.2234237 Eh     change       -0.8508765E-05 Eh
 * total energy  :  -117.2234302 Eh     change       -0.6495465E-05 Eh
 * total energy  :  -117.2234361 Eh     change       -0.5898260E-05 Eh
 * total energy  :  -117.2234411 Eh     change       -0.5061345E-05 Eh
 * total energy  :  -117.2234485 Eh     change       -0.1010557E-05 Eh
 * total energy  :  -117.2234492 Eh     change       -0.7734157E-06 Eh
 * total energy  :  -117.2234499 Eh     change       -0.6233853E-06 Eh
 * total energy  :  -117.2234504 Eh     change       -0.5544934E-06 Eh
 * total energy  :  -117.2234509 Eh     change       -0.5115891E-06 Eh
 * total energy  :  -117.2234512 Eh     change       -0.2659759E-06 Eh
 * total energy  :  -117.2234517 Eh     change       -0.4953827E-06 Eh
 * total energy  :  -117.2234520 Eh     change       -0.3120821E-06 Eh
 * total energy  :  -117.2234520 Eh     change       -0.3743375E-07 Eh
   *** GEOMETRY OPTIMIZATION CONVERGED AFTER 22 ITERATIONS ***

 final structure:
================
76
 xtb: 6.7.1 (edcfbbe)
O            7.43062175855583        3.15673641607173        1.18044236638424
C            7.52443136508802        2.05812680817033        0.55686508073635
C            8.80932125041109        1.69451624368259       -0.05334746539486
C            9.25012955262402        0.36921921410003       -0.12376794139215
C           10.48074408511853        0.07727015587407       -0.67665174272656
C           11.29850782103308        1.09100600795671       -1.15400644744437
C           10.88352378641929        2.41055789484480       -1.05101255185385
C            9.65832181468618        2.71547966323679       -0.49709904335939
C            6.38554444078922        1.19237190143654        0.42584406830926
C            5.27032357861172        1.42788855614237        1.26813913167942
C            4.15118549927513        0.64576829928355        1.19303202275265
C            4.07047493101137       -0.38885200205695        0.25031955019622
N            2.92645981489280       -1.19330965693431        0.17264471832475
C            2.91084120232150       -2.57437433794412        0.15439277725508
C            3.96900619884280       -3.46914818529335        0.22566379496222
C            3.67351865632591       -4.81966266549775        0.20955891651170
C            2.35958504286601       -5.27527471786941        0.13222956433272
C            1.29965315285625       -4.38865441797047        0.08423601522553
C            1.57132239491017       -3.02873537978206        0.10045365267587
C            0.74570911679211       -1.85194633634783        0.08478997464476
C           -0.61988839416976       -1.64977084045218        0.03279346595237
C           -1.11909870465938       -0.34690874594945        0.02434680663545
C           -2.55925129063473       -0.10607441580791       -0.00906862383327
C           -3.12564923217566        0.97554641786944        0.67300530567722
C           -4.48251268594638        1.20266270343036        0.65212482456635
C           -5.33315700152819        0.35576855235405       -0.06434320614228
N           -6.70648116652188        0.58558624440761       -0.09171279458024
C           -7.19952679573347        1.89617256844068       -0.08030930074094
C           -8.35335462381071        2.20948274699338        0.63820017571095
C           -8.83810395402213        3.50276668400423        0.64228456709680
C           -8.18206614094552        4.50028505446463       -0.06098279008400
C           -7.03470063306662        4.19386568214448       -0.77486349813654
C           -6.54463841819643        2.90274300203454       -0.79031951808546
C           -7.60089460783268       -0.49056361220833       -0.12792168410466
C           -8.77112905647170       -0.40944007915925       -0.88298013673514
C           -9.65444531002241       -1.47078023402071       -0.90999554135903
C           -9.38543048547714       -2.62609872950282       -0.19381759608506
C           -8.22328075180350       -2.71199787802279        0.55582854121210
C           -7.33599805422731       -1.65433913584950        0.59449105378135
C           -4.77568706536297       -0.72562482876557       -0.75283556004012
C           -3.41849210117537       -0.95013062283136       -0.71967872511931
C           -0.22085308381176        0.73625969015989        0.04067271997240
C            1.14286714371850        0.55774432777252        0.08330467412371
C            1.63272487507543       -0.74445841308095        0.12954577533556
C            5.13903869036397       -0.59219805672421       -0.63235070610575
C            6.26518165962420        0.18635160953968       -0.55789887945064
H            8.64462017399725       -0.42455478372765        0.28808637730801
H           10.81171465061556       -0.95070380849120       -0.72449656561976
H           12.25907913578658        0.85410071803484       -1.58701641965821
H           11.52286513182167        3.20716422108610       -1.40390545801799
H            9.32934700356678        3.73968739593946       -0.40919907966728
H            5.34750687189021        2.22257203805667        1.99426567971943
H            3.33169398447305        0.79739697205087        1.88084522057557
H            4.98800807068771       -3.12282578568932        0.30202287574434
H            4.47882265837270       -5.53698033680909        0.26206247354356
H            2.16938985924626       -6.33806410324116        0.11959195971904
H            0.28110642452423       -4.74398504168818        0.04074340817230
H           -1.29238235402975       -2.49408762506592        0.02782645521421
H           -2.49328246000416        1.62505750809779        1.25908701697099
H           -4.90190785373893        2.02995738700340        1.20566602339533
H           -8.85878091697322        1.43484448402937        1.19599746612294
H           -9.72979765387751        3.73473121994430        1.20530096247354
H           -8.56279572077246        5.50998598640898       -0.05314782638542
H           -6.52160499364766        4.96412287214242       -1.33102860741099
H           -5.65783398811077        2.66166979903095       -1.35782149238186
H           -8.97618656922946        0.48637274946768       -1.45049772910766
H          -10.55534437307491       -1.39799402509424       -1.50076533514027
H          -10.07740672468090       -3.45379604597368       -0.21907757351413
H           -8.00993503850865       -3.60609832949254        1.12245131370584
H           -6.43744061573961       -1.71661081493150        1.19057307674359
H           -5.41874036581776       -1.37578556624541       -1.32781785975839
H           -3.00837708662402       -1.77298726280596       -1.28552171201489
H           -0.61496631838638        1.73955875903158       -0.01690608373127
H            1.81385971416760        1.40259183410480        0.06461819469710
H            5.04911325411266       -1.34450259464247       -1.40314626516590
H            7.04936270623695        0.05226160492412       -1.28700529011265

 projected vibrational frequencies (cm⁻¹)
eigval :       -0.00    -0.00     0.00     0.00     0.00     0.00
eigval :        8.98    11.93    17.06    20.96    31.41    35.99
eigval :       44.18    48.72    52.78    57.64    67.43    72.15
eigval :       81.67    98.50   100.91   112.54   117.57   137.99
eigval :      145.87   161.66   180.70   198.45   207.51   214.61
eigval :      233.27   237.48   265.68   275.97   284.71   306.01
eigval :      314.32   330.77   340.09   351.31   373.04   375.45
eigval :      377.31   379.21   387.43   392.88   393.27   405.04
eigval :      409.88   420.43   426.73   450.01   452.36   459.63
eigval :      485.83   495.31   513.92   523.75   536.65   542.63
eigval :      553.77   578.45   582.22   582.88   587.21   591.00
eigval :      593.49   596.21   603.39   611.41   616.74   643.52
eigval :      650.32   659.76   660.27   666.78   676.80   692.06
eigval :      693.55   708.40   727.90   742.48   751.35   757.71
eigval :      760.74   773.82   801.42   809.67   819.68   832.15
eigval :      841.94   862.62   862.65   871.98   872.00   873.70
eigval :      875.09   883.42   888.69   894.86   895.58   898.76
eigval :      901.62   903.62   909.74   912.79   916.47   919.16
eigval :      920.66   922.30   923.17   927.15   928.34   929.83
eigval :      929.92   930.35   933.61   938.74   978.21   982.22
eigval :     1001.04  1004.45  1006.43  1025.30  1067.02  1069.51
eigval :     1077.61  1082.07  1083.04  1116.87  1118.56  1121.64
eigval :     1123.73  1130.96  1143.24  1152.08  1162.89  1164.82
eigval :     1176.74  1177.70  1180.07  1180.19  1183.78  1187.39
eigval :     1193.80  1195.96  1206.53  1216.63  1223.50  1234.46
eigval :     1244.36  1256.53  1259.94  1271.50  1275.99  1277.00
eigval :     1279.68  1286.64  1296.08  1308.16  1316.91  1322.65
eigval :     1324.28  1326.64  1327.55  1329.44  1347.47  1355.75
eigval :     1364.63  1411.23  1414.92  1416.73  1419.44  1425.48
eigval :     1429.68  1434.76  1441.17  1443.94  1451.71  1456.69
eigval :     1466.01  1468.03  1470.21  1478.26  1491.95  1538.09
eigval :     1545.57  1548.64  1550.38  1557.72  1574.00  1577.28
eigval :     1578.00  1579.15  1587.47  1588.44  1594.15  1602.39
eigval :     3065.40  3070.30  3072.34  3074.29  3080.07  3080.29
eigval :     3080.57  3080.96  3081.39  3081.55  3081.69  3082.83
eigval :     3085.60  3087.58  3087.66  3089.17  3089.60  3089.85
eigval :     3092.59  3092.73  3093.26  3093.99  3094.93  3095.80
eigval :     3098.31  3098.98  3099.81  3100.76  3101.47  3101.83

   temp. (K)  partition function   enthalpy   heat capacity  entropy
                                   cal/mol     cal/K/mol   cal/K/mol   J/K/mol
 298.15  VIB  0.127E+18            21574.258    136.652    134.716
         ROT  0.116E+09              888.752      2.981     39.885
         INT  0.147E+26            22463.010    139.633    174.602
         TR   0.139E+29             1481.254      4.968     44.992
         TOT                       23944.2642   144.6012   219.5935   918.7793

       T/K    H(0)-H(T)+PV         H(T)/Eh          T*S/Eh         G(T)/Eh
   ------------------------------------------------------------------------
    298.15    0.381576E-01    0.622435E+00    0.104336E+00    0.518099E+00
   ------------------------------------------------------------------------

         :::::::::::::::::::::::::::::::::::::::::::::::::::::
         ::                  THERMODYNAMIC                  ::
         :::::::::::::::::::::::::::::::::::::::::::::::::::::
         :: total free energy        -116.705352874751 Eh   ::
         ::.................................................::
         :: total energy             -117.223452046152 Eh   ::
         :: zero point energy           0.584277531565 Eh   ::
         :: G(RRHO) w/o ZPVE           -0.066178360164 Eh   ::
         :: G(RRHO) contrib.            0.518099171400 Eh   ::
         :::::::::::::::::::::::::::::::::::::::::::::::::::::

           -------------------------------------------------
          | TOTAL ENERGY             -117.223452046152 Eh   |
          | TOTAL ENTHALPY           -116.601016900757 Eh   |
          | TOTAL FREE ENERGY        -116.705352874751 Eh   |
          | GRADIENT NORM               0.000080840308 Eh/α |
           -------------------------------------------------

 * finished run on 2025/08/30 at 20:25:00.338
