   * xtb version 6.7.1 (edcfbbe) compiled by 'albert@albert-system' on 2024-07-22

   ID    Z sym.   atoms
    1    8 O      1
    2    6 C      2-12, 14-26, 28-46
    3    7 N      13, 27
    4    1 H      47-76

          program call               : xtb data2507/gas/TCB/TCB_gas_S0_finalOpt.xtbopt.xyz --gfn 2 --spinpol --tblite --uhf 2 --ohess vtight --parallel 40 --molden --ceasefiles --namespace data2507/gas/TCB/TCB_gas_T1_preOpt
 * total energy  :  -117.2175984 Eh     change        0.4584861E-07 Eh
 * total energy  :  -117.2210987 Eh     change       -0.3500327E-02 Eh
 * total energy  :  -117.2220876 Eh     change       -0.9888360E-03 Eh
 * total energy  :  -117.2222862 Eh     change       -0.1986001E-03 Eh
 * total energy  :  -117.2224710 Eh     change       -0.1847913E-03 Eh
 * total energy  :  -117.2226324 Eh     change       -0.1614237E-03 Eh
 * total energy  :  -117.2227898 Eh     change       -0.1573828E-03 Eh
 * total energy  :  -117.2228983 Eh     change       -0.1085598E-03 Eh
 * total energy  :  -117.2229599 Eh     change       -0.6162856E-04 Eh
 * total energy  :  -117.2230149 Eh     change       -0.5495125E-04 Eh
 * total energy  :  -117.2234490 Eh     change       -0.5379241E-06 Eh
 * total energy  :  -117.2234495 Eh     change       -0.4601390E-06 Eh
 * total energy  :  -117.2234499 Eh     change       -0.4189655E-06 Eh
 * total energy  :  -117.2234501 Eh     change       -0.2632446E-06 Eh
 * total energy  :  -117.2234505 Eh     change       -0.3529003E-06 Eh
 * total energy  :  -117.2234501 Eh     change        0.3762644E-06 Eh
 * total energy  :  -117.2234503 Eh     change       -0.1640404E-06 Eh
 * total energy  :  -117.2234508 Eh     change       -0.4853884E-06 Eh
 * total energy  :  -117.2234509 Eh     change       -0.8865358E-07 Eh
   *** GEOMETRY OPTIMIZATION CONVERGED AFTER 63 ITERATIONS ***

 final structure:
================
76
 xtb: 6.7.1 (edcfbbe)
O            7.43673985577586        3.13426433754614        1.26035902651311
C            7.53014884276752        2.04237545767004        0.62505226533327
C            8.81850695673509        1.67601395032070        0.02417185124253
C            9.24885805636089        0.34784935241001       -0.05724988800199
C           10.48348129156381        0.05186252945340       -0.59882274538533
C           11.31547107096607        1.06416213542468       -1.05416108657013
C           10.91032844947892        2.38591112585831       -0.94053576784035
C            9.68124539426537        2.69483761567431       -0.39750999579202
C            6.38776903865573        1.18429984100617        0.47364208280975
C            5.26833792317052        1.41039049649716        1.31275536330218
C            4.14801054234630        0.63167324101881        1.22013273970643
C            4.07025346424957       -0.38859061819888        0.26168671069168
N            2.92683098378875       -1.19209998991497        0.16741781159515
C            2.91360683369053       -2.57277649693482        0.12598081922967
C            3.97287151384123       -3.46699428129999        0.18770593162473
C            3.67974903780459       -4.81750235326828        0.14708671031832
C            2.36703119245877       -5.27384895428471        0.05475746855854
C            1.30587088036709       -4.38823390784161        0.01693206163654
C            1.57518117569747       -3.02836794523523        0.05833415344580
C            0.74766116241208       -1.85287800926195        0.06001485635860
C           -0.61815121041526       -1.65254934241840        0.00770152132763
C           -1.12006391514043       -0.35079310177130        0.02134441789480
C           -2.56082343924740       -0.11334914442319       -0.01040626034205
C           -3.13227793327099        0.95217800033391        0.69241169441398
C           -4.49009508542126        1.17407139644781        0.67471852707054
C           -5.33658497757129        0.33848017804582       -0.05981120637109
N           -6.71082058273818        0.56218539759056       -0.08381924387947
C           -7.21172011022898        1.86910871187758       -0.04261420754125
C           -8.36999922740173        2.15765402015228        0.67919059349349
C           -8.86369438791001        3.44710323310100        0.71205235442789
C           -8.21212825431788        4.46539807558811        0.03488384389265
C           -7.06021215281709        4.18370595172525       -0.68184226960882
C           -6.56132143768683        2.89662587399899       -0.72624590383737
C           -7.59979279314461       -0.51738793712998       -0.14714452837969
C           -8.76740933880790       -0.42519558018184       -0.90495635409618
C           -9.64575802084691       -1.48962801023012       -0.95847859138944
C           -9.37424376475169       -2.65892231657113       -0.26632668174467
C           -8.21458384828824       -2.75586337281420        0.48581117984683
C           -7.33224491295742       -1.69533592065527        0.55083397976189
C           -4.77376389103526       -0.72612762011469       -0.76988580439565
C           -3.41580140563335       -0.94600697489917       -0.73936360731152
C           -0.22410828848499        0.73369075452027        0.05917705312748
C            1.13992859102213        0.55712790099567        0.10215294619037
C            1.63244376335973       -0.74467724957340        0.12710397726755
C            5.14257861522760       -0.58002520332549       -0.61920874925900
C            6.27012001480068        0.19442600654992       -0.52668619226003
H            8.63159072026989       -0.44553272675918        0.33759326517706
H           10.80628784917322       -0.97829392831801       -0.65495100747076
H           12.27916685118467        0.82415487867628       -1.47845147509402
H           11.56044341711097        3.18105312509083       -1.27667892828898
H            9.35985541589485        3.72072846430406       -0.30141660903596
H            5.34328584117130        2.19381508457377        2.05120989263348
H            3.32544761166681        0.77442327508912        1.90614602144816
H            4.99089585222368       -3.12049075655349        0.27543415056988
H            4.48598794844941       -5.53430641535961        0.19167515438985
H            2.17872674829967       -6.33655392541669        0.02241529440297
H            0.28814534840400       -4.74435500242788       -0.03779639215222
H           -1.28889963876070       -2.49797986030576       -0.01402346676930
H           -2.50305499564928        1.59223997963162        1.29214471198808
H           -4.91337580136579        1.98801478000885        1.24484164233350
H           -8.87199284869358        1.36670941737609        1.21683950604696
H           -9.75888677430386        3.65959136491319        1.27720626815870
H           -8.59991313212862        5.47199041635856        0.06505594574004
H           -6.55060434820063        4.97033983916562       -1.21792741265335
H           -5.67118367188920        2.67508578160217       -1.29647720111779
H           -8.97440293225937        0.48184813393697       -1.45362430576523
H          -10.54475081628183       -1.40805132565330       -1.55099727714145
H          -10.06238108343952       -3.48893969336924       -0.31216591980154
H           -7.99929555526080       -3.66113351316423        1.03365037594650
H           -6.43562596843486       -1.76652707161270        1.14883361678328
H           -5.41337139851369       -1.36680961842360       -1.35916255492572
H           -3.00162741629623       -1.75554412284938       -1.32124273520365
H           -0.62023853054015        1.73703849109032        0.01858146853747
H            1.80916211025008        1.40357168882288        0.10009395230214
H            5.05474947071278       -1.31970507383725       -1.40234258013116
H            7.05800545295723        0.06996407563576       -1.25351671134571

 projected vibrational frequencies (cm⁻¹)
eigval :       -0.00    -0.00    -0.00     0.00     0.00     0.00
eigval :        9.09    11.96    17.07    20.81    31.46    36.48
eigval :       44.65    48.72    52.98    57.58    67.58    72.38
eigval :       81.57    98.61   100.96   112.68   117.90   137.91
eigval :      145.85   161.53   180.88   198.46   207.50   214.64
eigval :      233.35   237.49   265.61   275.96   284.23   306.26
eigval :      314.39   330.72   340.24   351.38   373.03   375.46
eigval :      377.31   379.20   387.66   392.87   393.26   405.00
eigval :      409.92   420.33   426.76   449.92   452.02   459.57
eigval :      485.77   495.31   513.86   523.58   537.00   542.63
eigval :      553.86   578.45   582.29   582.91   587.32   591.06
eigval :      593.57   596.23   603.46   611.56   616.82   643.63
eigval :      650.29   659.77   660.07   666.86   676.79   691.96
eigval :      693.40   708.41   727.87   742.33   751.25   757.69
eigval :      760.75   773.81   801.55   809.63   819.64   832.12
eigval :      842.12   862.51   862.61   871.96   872.02   873.71
eigval :      874.87   883.22   888.66   894.85   895.58   898.74
eigval :      901.63   903.65   909.73   912.83   916.48   919.11
eigval :      920.67   922.32   923.17   927.10   928.35   929.85
eigval :      929.90   930.38   933.63   938.51   978.18   982.04
eigval :     1000.73  1004.35  1006.23  1024.88  1066.89  1069.41
eigval :     1077.24  1081.64  1082.71  1116.72  1118.70  1121.45
eigval :     1123.54  1130.87  1143.18  1151.93  1163.03  1164.78
eigval :     1176.74  1177.74  1180.04  1180.16  1185.19  1187.58
eigval :     1193.81  1195.81  1206.55  1217.05  1223.84  1234.45
eigval :     1244.06  1256.66  1260.35  1271.48  1276.04  1276.94
eigval :     1279.75  1286.87  1296.20  1308.41  1316.85  1322.83
eigval :     1324.28  1326.70  1327.56  1329.44  1347.56  1355.70
eigval :     1364.63  1410.44  1415.03  1417.02  1419.75  1425.88
eigval :     1431.16  1435.52  1442.01  1444.20  1452.00  1456.80
eigval :     1466.41  1468.47  1470.14  1478.41  1492.36  1538.13
eigval :     1545.25  1548.52  1550.43  1557.52  1574.06  1577.43
eigval :     1578.04  1579.11  1587.43  1588.47  1594.25  1602.44
eigval :     3065.52  3070.34  3072.65  3074.86  3080.13  3080.65
eigval :     3081.02  3081.42  3081.56  3081.97  3082.08  3083.40
eigval :     3085.85  3087.83  3087.91  3089.42  3090.13  3090.47
eigval :     3093.01  3093.44  3094.19  3094.29  3095.56  3096.12
eigval :     3098.53  3098.97  3100.15  3100.87  3101.65  3102.02

   temp. (K)  partition function   enthalpy   heat capacity  entropy
                                   cal/mol     cal/K/mol   cal/K/mol   J/K/mol
 298.15  VIB  0.122E+18            21571.737    136.677    134.690
         ROT  0.116E+09              888.752      2.981     39.882
         INT  0.141E+26            22460.489    139.658    174.572
         TR   0.139E+29             1481.254      4.968     44.992
         TOT                       23941.7428   144.6264   219.5640   918.6560

       T/K    H(0)-H(T)+PV         H(T)/Eh          T*S/Eh         G(T)/Eh
   ------------------------------------------------------------------------
    298.15    0.381536E-01    0.622470E+00    0.104322E+00    0.518148E+00
   ------------------------------------------------------------------------

         :::::::::::::::::::::::::::::::::::::::::::::::::::::
         ::                  THERMODYNAMIC                  ::
         :::::::::::::::::::::::::::::::::::::::::::::::::::::
         :: total free energy        -116.705302634043 Eh   ::
         ::.................................................::
         :: total energy             -117.223450836764 Eh   ::
         :: zero point energy           0.584316569479 Eh   ::
         :: G(RRHO) w/o ZPVE           -0.066168366757 Eh   ::
         :: G(RRHO) contrib.            0.518148202721 Eh   ::
         :::::::::::::::::::::::::::::::::::::::::::::::::::::

           -------------------------------------------------
          | TOTAL ENERGY             -117.223450836764 Eh   |
          | TOTAL ENTHALPY           -116.600980671503 Eh   |
          | TOTAL FREE ENERGY        -116.705302634043 Eh   |
          | GRADIENT NORM               0.000108446365 Eh/α |
           -------------------------------------------------

 * finished run on 2025/08/30 at 20:14:44.946
