   * xtb version 6.7.1 (edcfbbe) compiled by 'albert@albert-system' on 2024-07-22

   ID    Z sym.   atoms
    1    6 C      1-9, 11-19, 21-39, 41-46
    2    7 N      10, 20
    3    8 O      40
    4    1 H      47-80

          program call               : xtb data2507/toluene/DMAC-FO/DMAC-FO_toluene_S0_finalOpt.xtbopt.xyz --gfn 2 --uhf 2 --gbsa toluene --ohess vtight --parallel 40 --molden --ceasefiles --namespace data2507/toluene/DMAC-FO/DMAC-FO_toluene_T1_preOpt
      * Solvation model:               GBSA
        Solvent                        toluene
        Solvent mass                       9.2140E+01 g/mol
          :  Hamiltonian                  GFN2-xTB          :
 * total energy  :  -119.3810589 Eh     change       -0.1411733E-07 Eh
 * total energy  :  -119.3852439 Eh     change       -0.4184993E-02 Eh
 * total energy  :  -119.3862248 Eh     change       -0.9808772E-03 Eh
 * total energy  :  -119.3862810 Eh     change       -0.5619748E-04 Eh
 * total energy  :  -119.3863083 Eh     change       -0.2730509E-04 Eh
 * total energy  :  -119.3863236 Eh     change       -0.1526961E-04 Eh
 * total energy  :  -119.3863338 Eh     change       -0.1020613E-04 Eh
 * total energy  :  -119.3863526 Eh     change       -0.1877599E-04 Eh
 * total energy  :  -119.3863487 Eh     change        0.3893999E-05 Eh
 * total energy  :  -119.3863599 Eh     change       -0.1121753E-04 Eh
 * total energy  :  -119.3864465 Eh     change       -0.6123742E-06 Eh
 * total energy  :  -119.3864470 Eh     change       -0.5512765E-06 Eh
 * total energy  :  -119.3864474 Eh     change       -0.3619875E-06 Eh
 * total energy  :  -119.3864477 Eh     change       -0.2821789E-06 Eh
 * total energy  :  -119.3864479 Eh     change       -0.2560328E-06 Eh
 * total energy  :  -119.3864482 Eh     change       -0.2849474E-06 Eh
 * total energy  :  -119.3864485 Eh     change       -0.3212796E-06 Eh
 * total energy  :  -119.3864489 Eh     change       -0.3487005E-06 Eh
 * total energy  :  -119.3864489 Eh     change       -0.3082988E-08 Eh
   *** GEOMETRY OPTIMIZATION CONVERGED AFTER 44 ITERATIONS ***

 final structure:
================
80
 xtb: 6.7.1 (edcfbbe)
C           -6.01413142258966        3.08740540157529       -0.47915635363894
C           -6.12283787397106        1.61777421742986       -0.02658475752039
C           -7.57755531249223        1.28779598849480        0.36220913875624
C           -5.24283721172661        1.41173655771082        1.18816586266602
C           -5.47858226673997        2.15437323837339        2.33765696365593
C           -4.73056289146434        1.98326283027664        3.48781776949350
C           -3.72379547642051        1.03002276185603        3.50993656421098
C           -3.46631404468671        0.27905287028057        2.38519127893017
C           -4.20268459962686        0.46881527970284        1.20651884502751
N           -3.91279088943367       -0.28958212863286        0.08920888225344
C           -2.87882950083325       -1.26658506847433        0.15518856148011
C           -3.24245223938860       -2.62772573161753        0.21465737500581
C           -2.27868264886111       -3.60601484782712        0.29576006791911
C           -0.93412821561069       -3.23958874689395        0.29970231154004
C           -0.56722468921901       -1.85278120924376        0.24776827527363
C           -1.54977146969689       -0.87696152956431        0.17474920809453
C            0.85910670160632       -1.77645742971020        0.28514370383760
C            1.72487687874188       -0.69876696521102        0.26525827468566
C            3.10277432533778       -0.91502977949528        0.34538189706759
N            3.99266219803074        0.14515052212839        0.34321115564494
C            5.39024209443248       -0.00123469180180        0.31964983962206
C            6.05244641109900       -0.78576428001777        1.25979172362990
C            7.43084790701931       -0.87947232247586        1.23126879352200
C            8.14934702141418       -0.17338728000121        0.28172587687522
C            7.49292742380149        0.64828480794671       -0.62096457168699
C            6.11163328342965        0.75536766397245       -0.61408924574511
C            5.31209364163787        1.63953910040029       -1.55481006668379
C            6.18748922623778        2.65655093031837       -2.28789146694629
C            4.61934441126009        0.75407189306107       -2.61198824984868
C            4.25366883372156        2.30087545244949       -0.69002837468220
C            3.90142112721920        3.63914558235385       -0.76444318386209
C            2.93491633102699        4.16953690823907        0.07504239621368
C            2.32514360312287        3.37148378548271        1.02797191726207
C            2.66230723442566        2.03467184193952        1.12254861959826
C            3.59640394309598        1.49109142205580        0.24564294288520
C            3.59077209997050       -2.25170755564226        0.33351420478391
C            2.74013150772300       -3.32892461627190        0.35801745165298
C            1.36241875564746       -3.11800543626453        0.34569697974305
C            0.25845096344472       -4.05968100248522        0.34564853712547
O            0.32784031127322       -5.31456019634421        0.40006877807162
C           -4.62781956170575       -0.16035934193488       -1.08468776925502
C           -4.24983061195722       -0.90999308406959       -2.20867339973600
C           -4.95491816031112       -0.82114946317357       -3.38782586401074
C           -6.04798617390816        0.02751600525341       -3.47564058504128
C           -6.40320071086745        0.79475729658706       -2.38127084298690
C           -5.71036387153912        0.72819282761624       -1.17989077505475
H           -6.30812589388438        3.76001077425144        0.32098985004153
H           -6.65507281676048        3.27551110664512       -1.33522687017685
H           -4.98746747484253        3.31385938234052       -0.76088511175953
H           -8.24415109590890        1.43080944544743       -0.48310166272590
H           -7.64959548908992        0.25109335537237        0.68636627769582
H           -7.91400423318114        1.92556204150263        1.17419826347503
H           -6.27117100457346        2.88621543546218        2.34298505721080
H           -4.93878322404278        2.57946703722868        4.36305096559969
H           -3.14244417593376        0.86760254284875        4.40504322460676
H           -2.69277215111967       -0.47202514851930        2.41054309647967
H           -4.29138252652343       -2.88633685349463        0.20908915272753
H           -2.54899401070488       -4.65104589708967        0.35019670436275
H           -1.29263838237662        0.17187502882612        0.13333932552888
H            1.32578824775244        0.29774619810631        0.16746129075972
H            5.48530047803951       -1.29662556098736        2.02350312592625
H            7.94094773664719       -1.49313234705941        1.95843329877412
H            9.22609861280731       -0.24608308991866        0.25362696211433
H            8.07729442356069        1.20595716981187       -1.33398137780003
H            6.70173362449939        3.30795565035527       -1.58493912481630
H            5.57812749836713        3.26114534323143       -2.95447863589088
H            6.92303834710420        2.14267172319301       -2.90107859798416
H            5.36885798357342        0.24323582441353       -3.21265048229128
H            4.00820316249802        1.37162826817298       -3.26667242361439
H            3.97911629116269        0.00364890693667       -2.15572909348788
H            4.37947505383841        4.28738493677520       -1.48005854114524
H            2.67241300141228        5.21371398382760       -0.00436381331706
H            1.59777871723390        3.78987637330913        1.70731547785035
H            2.22777349794437        1.41368126753662        1.89142308674753
H            4.65203356310247       -2.42769261716922        0.26606129811017
H            3.12728757221270       -4.33796889655805        0.35360060717735
H           -3.39197278568111       -1.56085469606116       -2.14652549547602
H           -4.64900355427274       -1.41106435614589       -4.23873072484419
H           -6.61107764589656        0.10009917486667       -4.39353411879430
H           -7.24511148357701        1.46313186990696       -2.47244208549174

          :  Hamiltonian                  GFN2-xTB          :
         :: gradient norm              0.000046794894 Eh/a0 ::
         :: HOMO-LUMO gap              1.266957686009 eV    ::
         :: SCC energy              -121.497577822460 Eh    ::
         :: -> dispersion             -0.112593854883 Eh    ::
         :: -> Gsolv                  -0.062279826218 Eh    ::
         :: repulsion energy           2.111128921697 Eh    ::

    * Orbital Energies and Occupations

         #    Occupation            Energy/Eh            Energy/eV
      -------------------------------------------------------------
         1        2.0000           -0.6803894             -18.5143
       ...           ...                  ...                  ...
       100        2.0000           -0.4152379             -11.2992
       101        2.0000           -0.4107447             -11.1769
       102        2.0000           -0.4096842             -11.1481
       103        2.0000           -0.4069540             -11.0738
       104        2.0000           -0.4055605             -11.0359
       105        2.0000           -0.4050025             -11.0207
       106        2.0000           -0.4041398             -10.9972
       107        2.0000           -0.4015797             -10.9275
       108        2.0000           -0.3791997             -10.3186
       109        1.9420           -0.3608396              -9.8189
       110        1.8465           -0.3598128              -9.7910
       111        1.2114           -0.3569399              -9.7128
       112        1.0000           -0.2888034              -7.8587 (HOMO)
       113                         -0.2422437              -6.5918 (LUMO)
       114                         -0.2380983              -6.4790
       115                         -0.2357978              -6.4164
       116                         -0.2348886              -6.3916
       117                         -0.2309166              -6.2836
       118                         -0.2303227              -6.2674
       119                         -0.2293181              -6.2401
       120                         -0.2270356              -6.1780
       121                         -0.2135278              -5.8104
       122                         -0.2022381              -5.5032
       123                         -0.1863627              -5.0712
       ...                                ...                  ...
       218                          0.7324395              19.9307
      -------------------------------------------------------------
                  HL-Gap            0.0465597 Eh            1.2670 eV

     #   Z          covCN         q      C6AA      α(0)
     1   6 C        3.761    -0.107    22.596     6.776
     2   6 C        3.909     0.024    20.121     6.376
     3   6 C        3.761    -0.106    22.582     6.774
     4   6 C        2.978    -0.004    28.114     8.697
     5   6 C        2.926    -0.034    28.847     8.808
     6   6 C        2.917    -0.035    28.859     8.809
     7   6 C        2.918    -0.029    28.729     8.790
     8   6 C        2.923    -0.049    29.222     8.865
     9   6 C        2.928     0.061    26.630     8.463
    10   7 N        2.754    -0.027    21.772     6.930
    11   6 C        2.928     0.046    26.975     8.517
    12   6 C        2.919    -0.049    29.208     8.862
    13   6 C        2.908    -0.027    28.666     8.779
    14   6 C        3.069    -0.041    28.941     8.821
    15   6 C        3.046    -0.017    28.392     8.739
    16   6 C        2.910    -0.045    29.118     8.848
    17   6 C        3.040    -0.014    28.324     8.729
    18   6 C        2.912    -0.060    29.502     8.907
    19   6 C        2.909     0.059    26.685     8.471
    20   7 N        2.754    -0.035    21.913     6.953
    21   6 C        2.952     0.055    26.771     8.486
    22   6 C        2.919    -0.043    29.060     8.840
    23   6 C        2.919    -0.032    28.794     8.799
    24   6 C        2.919    -0.034    28.836     8.806
    25   6 C        2.922    -0.036    28.905     8.817
    26   6 C        2.987    -0.003    28.084     8.693
    27   6 C        3.911     0.024    20.119     6.375
    28   6 C        3.759    -0.111    22.671     6.788
    29   6 C        3.761    -0.100    22.459     6.756
    30   6 C        2.987    -0.002    28.079     8.692
    31   6 C        2.922    -0.036    28.904     8.816
    32   6 C        2.919    -0.034    28.836     8.806
    33   6 C        2.919    -0.032    28.797     8.800
    34   6 C        2.919    -0.043    29.056     8.839
    35   6 C        2.953     0.055    26.771     8.486
    36   6 C        2.920    -0.053    29.312     8.878
    37   6 C        2.906    -0.026    28.641     8.775
    38   6 C        3.071    -0.033    28.752     8.792
    39   6 C        2.871     0.174    24.259     8.074
    40   8 O        0.856    -0.538    24.655     6.657
    41   6 C        2.930     0.061    26.623     8.462
    42   6 C        2.923    -0.048    29.202     8.862
    43   6 C        2.918    -0.029    28.729     8.790
    44   6 C        2.917    -0.034    28.851     8.808
    45   6 C        2.925    -0.034    28.848     8.808
    46   6 C        2.978    -0.004    28.112     8.697
    47   1 H        0.925     0.050     2.315     2.379
    48   1 H        0.925     0.050     2.320     2.382
    49   1 H        0.925     0.036     2.500     2.473
    50   1 H        0.925     0.050     2.321     2.383
    51   1 H        0.925     0.034     2.523     2.484
    52   1 H        0.925     0.050     2.320     2.382
    53   1 H        0.926     0.047     2.355     2.400
    54   1 H        0.926     0.041     2.441     2.443
    55   1 H        0.926     0.038     2.472     2.458
    56   1 H        0.926     0.038     2.477     2.461
    57   1 H        0.926     0.031     2.566     2.505
    58   1 H        0.926     0.027     2.634     2.538
    59   1 H        0.926     0.037     2.489     2.467
    60   1 H        0.926     0.041     2.438     2.442
    61   1 H        0.926     0.043     2.412     2.428
    62   1 H        0.926     0.040     2.443     2.444
    63   1 H        0.926     0.042     2.428     2.436
    64   1 H        0.926     0.053     2.287     2.365
    65   1 H        0.925     0.044     2.396     2.420
    66   1 H        0.925     0.048     2.339     2.392
    67   1 H        0.925     0.048     2.347     2.396
    68   1 H        0.925     0.044     2.393     2.419
    69   1 H        0.925     0.045     2.382     2.414
    70   1 H        0.925     0.034     2.532     2.488
    71   1 H        0.926     0.053     2.288     2.366
    72   1 H        0.926     0.042     2.421     2.433
    73   1 H        0.926     0.042     2.428     2.437
    74   1 H        0.926     0.044     2.400     2.422
    75   1 H        0.926     0.042     2.418     2.432
    76   1 H        0.926     0.028     2.614     2.528
    77   1 H        0.926     0.038     2.477     2.461
    78   1 H        0.926     0.038     2.476     2.461
    79   1 H        0.926     0.041     2.440     2.443
    80   1 H        0.926     0.047     2.353     2.399

molecular dipole:
                 x           y           z       tot (Debye)
 q only:       -0.268       5.914      -0.669
   full:       -0.243       5.681      -0.577      14.526

 projected vibrational frequencies (cm⁻¹)
eigval :       -0.00    -0.00    -0.00    -0.00     0.00     0.00
eigval :        8.93    12.10    18.12    26.65    35.71    41.30
eigval :       56.30    64.38    82.68    91.15    97.25    98.40
eigval :      112.09   126.14   128.81   134.86   141.46   164.58
eigval :      179.09   182.10   187.75   200.10   201.14   218.63
eigval :      227.95   236.17   239.78   259.23   271.12   285.25
eigval :      297.72   299.81   312.04   326.21   327.02   329.63
eigval :      340.71   345.40   354.70   363.65   367.57   381.36
eigval :      388.63   398.99   402.21   408.32   410.95   425.03
eigval :      440.24   449.33   457.03   468.10   493.61   501.07
eigval :      504.44   510.34   535.06   541.83   543.98   545.82
eigval :      555.79   565.93   571.72   572.93   579.14   584.34
eigval :      592.48   606.34   625.82   632.08   648.37   668.23
eigval :      673.09   686.92   688.21   691.09   700.87   704.86
eigval :      723.99   728.50   736.49   772.97   774.07   774.60
eigval :      780.67   800.33   804.91   805.84   810.40   825.90
eigval :      846.18   861.77   868.39   870.76   872.66   882.17
eigval :      889.31   900.54   903.31   905.55   909.89   911.47
eigval :      912.70   916.62   917.19   920.25   925.25   931.54
eigval :      935.76   936.94   939.41   944.84   958.66   967.01
eigval :      979.05  1009.15  1013.81  1017.62  1072.02  1072.61
eigval :     1074.10  1079.92  1091.55  1097.86  1104.86  1105.98
eigval :     1111.91  1124.16  1135.62  1137.22  1148.73  1149.53
eigval :     1156.80  1167.81  1179.87  1180.46  1181.19  1181.88
eigval :     1183.01  1186.87  1188.99  1212.62  1226.76  1232.81
eigval :     1233.49  1241.44  1249.35  1249.91  1254.99  1256.04
eigval :     1265.84  1270.06  1282.53  1292.01  1293.82  1306.95
eigval :     1310.17  1318.79  1324.39  1326.52  1332.60  1333.14
eigval :     1352.86  1395.68  1397.28  1397.44  1412.12  1413.99
eigval :     1415.76  1418.41  1425.95  1427.66  1432.50  1438.68
eigval :     1446.41  1454.82  1459.47  1466.06  1474.92  1482.45
eigval :     1483.59  1488.53  1489.13  1490.39  1493.13  1497.96
eigval :     1503.63  1505.52  1518.88  1533.42  1548.49  1553.23
eigval :     1560.60  1565.17  1566.59  1572.93  1577.86  1578.69
eigval :     1587.71  1588.61  3026.52  3028.55  3029.37  3030.91
eigval :     3035.10  3035.70  3046.98  3049.22  3049.35  3050.24
eigval :     3054.30  3058.45  3069.74  3072.59  3073.08  3080.13
eigval :     3081.10  3081.62  3082.31  3082.79  3086.89  3087.11
eigval :     3088.98  3089.43  3095.64  3096.22  3099.02  3099.29
eigval :     3106.29  3107.34  3107.88  3108.37  3115.10  3116.22

   temp. (K)  partition function   enthalpy   heat capacity  entropy
                                   cal/mol     cal/K/mol   cal/K/mol   J/K/mol
 298.15  VIB  0.121E+17            22210.697    144.549    135.189
         ROT  0.724E+08              888.752      2.981     38.945
         INT  0.876E+24            23099.449    147.530    174.134
         TR   0.140E+29             1481.254      4.968     45.012
         TOT                       24580.7029   152.4984   219.1459   916.9062

       T/K    H(0)-H(T)+PV         H(T)/Eh          T*S/Eh         G(T)/Eh
   ------------------------------------------------------------------------
    298.15    0.391718E-01    0.670225E+00    0.104123E+00    0.566102E+00
   ------------------------------------------------------------------------

         :::::::::::::::::::::::::::::::::::::::::::::::::::::
         ::                  THERMODYNAMIC                  ::
         :::::::::::::::::::::::::::::::::::::::::::::::::::::
         :: total free energy        -118.820347284876 Eh   ::
         ::.................................................::
         :: total energy             -119.386448898241 Eh   ::
         :: zero point energy           0.631053035047 Eh   ::
         :: G(RRHO) w/o ZPVE           -0.064951421682 Eh   ::
         :: G(RRHO) contrib.            0.566101613365 Eh   ::
         :::::::::::::::::::::::::::::::::::::::::::::::::::::

           -------------------------------------------------
          | TOTAL ENERGY             -119.386448898241 Eh   |
          | TOTAL ENTHALPY           -118.716224019653 Eh   |
          | TOTAL FREE ENERGY        -118.820347284876 Eh   |
          | GRADIENT NORM               0.000048356366 Eh/α |
          | HOMO-LUMO GAP               1.266953231648 eV   |
           -------------------------------------------------

 * finished run on 2025/08/24 at 03:25:38.755
