   * xtb version 6.7.1 (edcfbbe) compiled by 'albert@albert-system' on 2024-07-22

   ID    Z sym.   atoms
    1    6 C      1-9, 11-19, 21-39, 41-46
    2    7 N      10, 20
    3    8 O      40
    4    1 H      47-80

          program call               : xtb data2507/toluene/DMAC-FO/DMAC-FO.xyz --gfn 2 --gbsa toluene --ohess vtight --parallel 40 --molden --ceasefiles --namespace data2507/toluene/DMAC-FO/DMAC-FO_toluene_S0_preOpt
      * Solvation model:               GBSA
        Solvent                        toluene
        Solvent mass                       9.2140E+01 g/mol
          :  Hamiltonian                  GFN2-xTB          :
 * total energy  :  -119.4213363 Eh     change       -0.1503338E-08 Eh
 * total energy  :  -119.4393658 Eh     change       -0.1802950E-01 Eh
 * total energy  :  -119.4452467 Eh     change       -0.5880824E-02 Eh
 * total energy  :  -119.4460600 Eh     change       -0.8133113E-03 Eh
 * total energy  :  -119.4463885 Eh     change       -0.3285431E-03 Eh
 * total energy  :  -119.4464585 Eh     change       -0.6995946E-04 Eh
 * total energy  :  -119.4464824 Eh     change       -0.2393805E-04 Eh
 * total energy  :  -119.4464938 Eh     change       -0.1137776E-04 Eh
 * total energy  :  -119.4465027 Eh     change       -0.8948664E-05 Eh
 * total energy  :  -119.4465062 Eh     change       -0.3475934E-05 Eh
 * total energy  :  -119.4465113 Eh     change       -0.8412375E-06 Eh
 * total energy  :  -119.4465122 Eh     change       -0.8291260E-06 Eh
 * total energy  :  -119.4465130 Eh     change       -0.8818638E-06 Eh
 * total energy  :  -119.4465141 Eh     change       -0.1009124E-05 Eh
 * total energy  :  -119.4465152 Eh     change       -0.1110282E-05 Eh
 * total energy  :  -119.4465160 Eh     change       -0.8579034E-06 Eh
 * total energy  :  -119.4465166 Eh     change       -0.5344041E-06 Eh
 * total energy  :  -119.4465169 Eh     change       -0.3685862E-06 Eh
 * total energy  :  -119.4465169 Eh     change       -0.4964164E-08 Eh
   *** GEOMETRY OPTIMIZATION CONVERGED AFTER 22 ITERATIONS ***

 final structure:
================
80
 xtb: 6.7.1 (edcfbbe)
C           -5.59386249633165        0.02172339395470        3.13440721512462
C           -5.93424222485180        0.01174557318054        1.63215211264515
C           -7.46166202859320        0.01110500992582        1.43325226032742
C           -5.36259037465583       -1.25014443900073        1.01194059921399
C           -5.78301746521974       -2.49068843974225        1.47241152788491
C           -5.29918276325084       -3.67409843542316        0.94467891737047
C           -4.36536733621430       -3.62848606229286       -0.07485066083043
C           -3.92860143156408       -2.40954032000538       -0.55054031472768
C           -4.41755053831406       -1.21284655423587       -0.01871747588949
N           -3.95803399032668       -0.00356910522071       -0.51886042853224
C           -3.00313215088388       -0.01109079546795       -1.57247986290942
C           -3.43697895762830       -0.02068782794108       -2.89337056257072
C           -2.52126060077358       -0.02855441194959       -3.93908509576536
C           -1.17487239515954       -0.02654955148773       -3.63346323513246
C           -0.73213666378539       -0.01666672916766       -2.29669675874885
C           -1.63950166082680       -0.00880625890958       -1.26006731248478
C            0.73250535679861       -0.01667216710259       -2.29670061147003
C            1.63987474280109       -0.00883728436024       -1.26007671118767
C            3.00350476121865       -0.01111853498644       -1.57249069988830
N            3.95837813427441       -0.00362395257635       -0.51884608317142
C            4.41574000599114        1.21263595739521       -0.03391782946689
C            3.92451991963778        2.40165681961147       -0.58061822185581
C            4.36000356980199        3.62727579923752       -0.12122066204755
C            5.29488788169525        3.68737950932847        0.89657284943629
C            5.78051820413517        2.51158188069328        1.43946141756359
C            5.36124100891808        1.26458940832993        0.99566431595150
C            5.93390764849185        0.01163344981994        1.63278648228732
C            7.46139102370232        0.01077549923872        1.43437099306012
C            5.59304068302954        0.02179536266569        3.13493002864164
C            5.36229031416754       -1.25023996147130        1.01251138918172
C            5.78241790477651       -2.49079593977870        1.47322378719036
C            5.29863287083883       -3.67419212412848        0.94541405220422
C            4.36519319767472       -3.62855351997959       -0.07445852106430
C            3.92871905331351       -2.40959477297268       -0.55038385903742
C            4.41759244388907       -1.21291515050117       -0.01845900926899
C            3.43735133878446       -0.02068575420283       -2.89338154881940
C            2.52162706180407       -0.02854269010591       -3.93909242312471
C            1.17523900413085       -0.02654544593579       -3.63346790227321
C            0.00018159506296       -0.03337307170779       -4.54088656621472
O            0.00017863148556       -0.04229227446797       -5.75525343964010
C           -4.41541044491200        1.21270491226081       -0.03397935825030
C           -3.92391132085933        2.40171294897688       -0.58045659093162
C           -4.35938021964149        3.62734543680905       -0.12108124043784
C           -5.29454098607166        3.68747661757866        0.89645667875062
C           -5.78046995465037        2.51169148084879        1.43910415908130
C           -5.36120939887519        1.26468607409891        0.99532772690255
H           -6.00156141845440       -0.85510693692971        3.62970747856766
H           -6.00058774627441        0.90567877430242        3.61771222446270
H           -4.51370347558895        0.02208315298552        3.27088065962670
H           -7.91191044412499       -0.86551505053218        1.89057811284601
H           -7.91100110474943        0.89473906229785        1.87778004076614
H           -7.69768871686898        0.00352054793209        0.37032554827347
H           -6.51126446057965       -2.54225667963484        2.26761913999613
H           -5.64959783522670       -4.62129173727464        1.32651970020662
H           -3.97397640578817       -4.54015299019593       -0.50219585203794
H           -3.19963062264386       -2.38075295536007       -1.34613553067933
H           -4.49740021853789       -0.02203167973770       -3.09647251785134
H           -2.84923923609793       -0.03595541461267       -4.96748060746964
H           -1.32596908188797       -0.00117136209916       -0.22743218542977
H            1.32634674910235       -0.00122740400337       -0.22743996328711
H            3.19468768406009        2.36151437413427       -1.37489008535123
H            3.96694822266089        4.53278091671574       -0.55999227720477
H            5.64460204024988        4.63990646279236        1.26555233978089
H            6.50931036277697        2.57450626110476        2.23335290920846
H            7.91070641313017        0.89437310385624        1.87899480011439
H            7.69775477526703        0.00310093574439        0.37151884616111
H            7.91137353161163       -0.86588007345577        1.89188922106258
H            4.51283676872594        0.02228899089491        3.27105700697851
H            5.99970751020198        0.90575380980985        3.61827607666270
H            6.00048383591853       -0.85502992558932        3.63044961169852
H            6.51038031317393       -2.54238577351517        2.26869078665112
H            5.64879018078709       -4.62139597468993        1.32746569996330
H            3.97385103702431       -4.54020927214184       -0.50187247247767
H            3.20004536142025       -2.38078530847628       -1.34625076043037
H            4.49777169337252       -0.02201796502966       -3.09648767972595
H            2.84960159026498       -0.03592587718811       -4.96748956464950
H           -3.19387322972551        2.36154996444564       -1.37453807843466
H           -3.96609516936465        4.53284023952620       -0.55966814323443
H           -5.64424067938286        4.64001475562633        1.26542093998815
H           -6.50948017748602        2.57463546946521        2.23279404817291

          :  Hamiltonian                  GFN2-xTB          :
         :: gradient norm              0.000054021819 Eh/a0 ::
         :: HOMO-LUMO gap              0.748867688808 eV    ::
         :: SCC energy              -121.571780718492 Eh    ::
         :: -> dispersion             -0.111726286415 Eh    ::
         :: -> Gsolv                  -0.048047439812 Eh    ::
         :: repulsion energy           2.125263788108 Eh    ::

    * Orbital Energies and Occupations

         #    Occupation            Energy/Eh            Energy/eV
      -------------------------------------------------------------
         1        2.0000           -0.7224022             -19.6576
       ...           ...                  ...                  ...
        99        2.0000           -0.4097912             -11.1510
       100        2.0000           -0.4091969             -11.1348
       101        2.0000           -0.4077892             -11.0965
       102        2.0000           -0.4059936             -11.0476
       103        2.0000           -0.4044146             -11.0047
       104        2.0000           -0.4041914             -10.9986
       105        2.0000           -0.4036647             -10.9843
       106        2.0000           -0.3985465             -10.8450
       107        2.0000           -0.3984818             -10.8432
       108        2.0000           -0.3931771             -10.6989
       109        2.0000           -0.3931697             -10.6987
       110        2.0000           -0.3482580              -9.4766
       111        2.0000           -0.3477210              -9.4620 (HOMO)
       112        0.0000           -0.3202006              -8.7131 (LUMO)
       113                         -0.2701041              -7.3499
       114                         -0.2490554              -6.7771
       115                         -0.2249119              -6.1202
       116                         -0.2248855              -6.1194
       117                         -0.2198021              -5.9811
       118                         -0.2197996              -5.9811
       119                         -0.2197493              -5.9797
       120                         -0.2188866              -5.9562
       121                         -0.2167263              -5.8974
       122                         -0.1993728              -5.4252
       ...                                ...                  ...
       218                          0.7210960              19.6220
      -------------------------------------------------------------
                  HL-Gap            0.0275204 Eh            0.7489 eV

     #   Z          covCN         q      C6AA      α(0)
     1   6 C        3.761    -0.104    22.526     6.766
     2   6 C        3.908     0.021    20.163     6.382
     3   6 C        3.761    -0.104    22.527     6.766
     4   6 C        2.978    -0.013    28.343     8.733
     5   6 C        2.928    -0.037    28.922     8.819
     6   6 C        2.917    -0.046    29.143     8.853
     7   6 C        2.919    -0.034    28.856     8.809
     8   6 C        2.924    -0.060    29.498     8.907
     9   6 C        2.928     0.058    26.702     8.474
    10   7 N        2.755    -0.073    22.654     7.069
    11   6 C        2.928     0.081    26.199     8.394
    12   6 C        2.923    -0.036    28.891     8.814
    13   6 C        2.912    -0.012    28.310     8.725
    14   6 C        3.044    -0.027    28.633     8.776
    15   6 C        3.039     0.012    27.701     8.633
    16   6 C        2.915    -0.036    28.898     8.815
    17   6 C        3.039     0.012    27.701     8.633
    18   6 C        2.915    -0.036    28.898     8.815
    19   6 C        2.928     0.081    26.199     8.394
    20   7 N        2.755    -0.073    22.654     7.069
    21   6 C        2.928     0.058    26.702     8.474
    22   6 C        2.924    -0.060    29.498     8.907
    23   6 C        2.919    -0.034    28.856     8.809
    24   6 C        2.917    -0.046    29.143     8.853
    25   6 C        2.928    -0.037    28.922     8.819
    26   6 C        2.978    -0.013    28.343     8.733
    27   6 C        3.908     0.021    20.163     6.382
    28   6 C        3.761    -0.104    22.527     6.766
    29   6 C        3.761    -0.104    22.526     6.766
    30   6 C        2.978    -0.013    28.343     8.733
    31   6 C        2.928    -0.037    28.922     8.819
    32   6 C        2.917    -0.046    29.143     8.853
    33   6 C        2.919    -0.034    28.856     8.809
    34   6 C        2.924    -0.060    29.498     8.907
    35   6 C        2.928     0.058    26.702     8.474
    36   6 C        2.923    -0.036    28.891     8.814
    37   6 C        2.912    -0.012    28.310     8.725
    38   6 C        3.044    -0.027    28.633     8.776
    39   6 C        2.867     0.234    23.116     7.881
    40   8 O        0.856    -0.392    21.518     6.219
    41   6 C        2.928     0.058    26.702     8.474
    42   6 C        2.924    -0.060    29.498     8.907
    43   6 C        2.919    -0.034    28.856     8.809
    44   6 C        2.917    -0.046    29.143     8.853
    45   6 C        2.928    -0.037    28.922     8.819
    46   6 C        2.978    -0.013    28.343     8.733
    47   1 H        0.925     0.042     2.425     2.435
    48   1 H        0.925     0.042     2.425     2.435
    49   1 H        0.925     0.030     2.581     2.512
    50   1 H        0.925     0.042     2.426     2.436
    51   1 H        0.925     0.042     2.426     2.435
    52   1 H        0.925     0.030     2.585     2.514
    53   1 H        0.926     0.033     2.541     2.493
    54   1 H        0.926     0.026     2.643     2.542
    55   1 H        0.926     0.027     2.633     2.537
    56   1 H        0.926     0.022     2.701     2.570
    57   1 H        0.926     0.058     2.218     2.329
    58   1 H        0.926     0.060     2.199     2.319
    59   1 H        0.926     0.060     2.199     2.319
    60   1 H        0.926     0.060     2.199     2.319
    61   1 H        0.926     0.022     2.701     2.570
    62   1 H        0.926     0.027     2.633     2.537
    63   1 H        0.926     0.026     2.643     2.542
    64   1 H        0.926     0.033     2.541     2.493
    65   1 H        0.925     0.042     2.426     2.435
    66   1 H        0.925     0.030     2.585     2.514
    67   1 H        0.925     0.042     2.426     2.436
    68   1 H        0.925     0.030     2.581     2.512
    69   1 H        0.925     0.042     2.425     2.435
    70   1 H        0.925     0.042     2.425     2.435
    71   1 H        0.926     0.033     2.541     2.493
    72   1 H        0.926     0.026     2.643     2.542
    73   1 H        0.926     0.027     2.633     2.537
    74   1 H        0.926     0.022     2.701     2.570
    75   1 H        0.926     0.058     2.218     2.329
    76   1 H        0.926     0.060     2.199     2.319
    77   1 H        0.926     0.022     2.701     2.570
    78   1 H        0.926     0.027     2.633     2.537
    79   1 H        0.926     0.026     2.643     2.542
    80   1 H        0.926     0.033     2.541     2.493

molecular dipole:
                 x           y           z       tot (Debye)
 q only:       -0.000       0.011       1.484
   full:       -0.000       0.011       1.421       3.611

 projected vibrational frequencies (cm⁻¹)
eigval :       -0.00    -0.00     0.00     0.00     0.00     0.00
eigval :       -9.91    -6.50    11.64    23.23    23.87    37.25
eigval :       37.59    49.64    77.08    95.21    97.12   100.79
eigval :      105.31   106.02   122.67   122.75   123.73   124.17
eigval :      162.29   163.93   187.22   187.32   192.46   218.22
eigval :      218.76   231.39   232.74   234.17   235.18   264.90
eigval :      282.41   298.26   305.20   321.59   328.80   328.85
eigval :      339.25   342.62   344.83   349.97   377.32   379.08
eigval :      379.18   391.28   398.71   407.23   409.48   427.35
eigval :      448.59   448.61   461.38   484.70   493.33   495.82
eigval :      514.52   514.52   530.84   541.34   546.78   546.96
eigval :      548.48   566.59   578.12   578.76   586.86   591.31
eigval :      611.44   633.37   650.80   656.30   664.82   669.95
eigval :      681.41   681.42   692.77   692.79   704.73   704.93
eigval :      736.42   744.51   746.21   777.03   777.43   778.29
eigval :      778.40   806.24   819.82   821.68   831.76   839.95
eigval :      865.41   865.66   866.37   866.65   876.26   877.37
eigval :      879.29   912.01   912.08   912.79   912.87   915.93
eigval :      916.30   920.90   921.37   921.48   921.52   921.59
eigval :      921.64   937.12   937.47   950.30   956.28   956.30
eigval :      985.24  1011.73  1011.74  1030.53  1075.65  1075.66
eigval :     1078.69  1082.11  1088.42  1110.85  1111.34  1117.41
eigval :     1117.42  1118.05  1139.22  1139.25  1153.30  1158.15
eigval :     1158.18  1166.05  1168.84  1179.84  1181.28  1185.38
eigval :     1185.70  1185.80  1186.06  1206.40  1215.17  1229.19
eigval :     1230.91  1242.73  1247.14  1247.31  1249.71  1266.47
eigval :     1266.64  1292.48  1292.51  1294.07  1306.84  1311.04
eigval :     1323.55  1323.56  1332.72  1332.97  1337.76  1337.77
eigval :     1362.11  1394.99  1398.99  1399.05  1417.65  1417.70
eigval :     1426.91  1435.15  1436.21  1440.06  1440.12  1449.53
eigval :     1456.40  1476.94  1477.22  1485.91  1485.93  1486.07
eigval :     1486.08  1493.74  1494.49  1495.98  1496.00  1501.66
eigval :     1501.84  1571.92  1574.03  1574.07  1574.30  1582.41
eigval :     1587.52  1590.23  1590.24  1590.33  1591.31  1600.57
eigval :     1600.58  1713.70  3020.86  3020.87  3023.63  3023.64
eigval :     3038.10  3038.11  3040.42  3040.46  3046.75  3046.76
eigval :     3050.67  3050.68  3071.93  3071.94  3072.19  3072.19
eigval :     3078.59  3078.60  3078.71  3078.72  3089.01  3089.07
eigval :     3089.15  3089.25  3090.83  3090.91  3095.97  3095.97
eigval :     3096.44  3097.05  3097.46  3099.52  3100.17  3100.96

   temp. (K)  partition function   enthalpy   heat capacity  entropy
                                   cal/mol     cal/K/mol   cal/K/mol   J/K/mol
 298.15  VIB  0.272E+18            22506.446    143.192    139.179
         ROT  0.383E+08              888.752      2.981     37.679
         INT  0.104E+26            23395.198    146.173    176.858
         TR   0.140E+29             1481.254      4.968     45.012
         TOT                       24876.4522   151.1412   221.8702   928.3049

       T/K    H(0)-H(T)+PV         H(T)/Eh          T*S/Eh         G(T)/Eh
   ------------------------------------------------------------------------
    298.15    0.396431E-01    0.672044E+00    0.105418E+00    0.566626E+00
   ------------------------------------------------------------------------

         :::::::::::::::::::::::::::::::::::::::::::::::::::::
         ::                  THERMODYNAMIC                  ::
         :::::::::::::::::::::::::::::::::::::::::::::::::::::
         :: total free energy        -118.879891029628 Eh   ::
         ::.................................................::
         :: total energy             -119.446516930104 Eh   ::
         :: zero point energy           0.632400436503 Eh   ::
         :: G(RRHO) w/o ZPVE           -0.065774536027 Eh   ::
         :: G(RRHO) contrib.            0.566625900475 Eh   ::
         :::::::::::::::::::::::::::::::::::::::::::::::::::::

           -------------------------------------------------
          | TOTAL ENERGY             -119.446516930104 Eh   |
          | TOTAL ENTHALPY           -118.774473343629 Eh   |
          | TOTAL FREE ENERGY        -118.879891029628 Eh   |
          | GRADIENT NORM               0.000054017468 Eh/α |
          | HOMO-LUMO GAP               0.748867584151 eV   |
           -------------------------------------------------

 * finished run on 2025/08/24 at 03:19:24.283
