   * xtb version 6.7.1 (edcfbbe) compiled by 'albert@albert-system' on 2024-07-22

   ID    Z sym.   atoms
    1    6 C      1-9, 11-19, 21-39, 41-46
    2    7 N      10, 20
    3    8 O      40
    4    1 H      47-80

          program call               : xtb data2507/toluene/DMAC-FO/DMAC-FO_toluene_S0_crest.xyz --gfn 2 --gbsa toluene --ohess vtight --parallel 40 --molden --ceasefiles --namespace data2507/toluene/DMAC-FO/DMAC-FO_toluene_S0_finalOpt
      * Solvation model:               GBSA
        Solvent                        toluene
        Solvent mass                       9.2140E+01 g/mol
          :  Hamiltonian                  GFN2-xTB          :
 * total energy  :  -119.4484987 Eh     change       -0.1469957E-08 Eh
 * total energy  :  -119.4486161 Eh     change       -0.1173939E-03 Eh
 * total energy  :  -119.4486527 Eh     change       -0.3668321E-04 Eh
 * total energy  :  -119.4486620 Eh     change       -0.9297098E-05 Eh
 * total energy  :  -119.4486698 Eh     change       -0.7743249E-05 Eh
 * total energy  :  -119.4486744 Eh     change       -0.4602262E-05 Eh
 * total energy  :  -119.4486766 Eh     change       -0.2209745E-05 Eh
 * total energy  :  -119.4486788 Eh     change       -0.2163784E-05 Eh
 * total energy  :  -119.4486813 Eh     change       -0.2565754E-05 Eh
 * total energy  :  -119.4486841 Eh     change       -0.2798328E-05 Eh
 * total energy  :  -119.4487306 Eh     change       -0.1984587E-05 Eh
 * total energy  :  -119.4487324 Eh     change       -0.1856672E-05 Eh
 * total energy  :  -119.4487341 Eh     change       -0.1684131E-05 Eh
 * total energy  :  -119.4487356 Eh     change       -0.1430609E-05 Eh
 * total energy  :  -119.4487366 Eh     change       -0.1094264E-05 Eh
 * total energy  :  -119.4487375 Eh     change       -0.8719010E-06 Eh
 * total energy  :  -119.4487382 Eh     change       -0.6743076E-06 Eh
 * total energy  :  -119.4487387 Eh     change       -0.5255733E-06 Eh
 * total energy  :  -119.4487387 Eh     change       -0.2445901E-08 Eh
   *** GEOMETRY OPTIMIZATION CONVERGED AFTER 44 ITERATIONS ***

 final structure:
================
80
 xtb: 6.7.1 (edcfbbe)
C           -5.93431693424552        3.11134359949469       -0.49886139574366
C           -6.05711964109812        1.64986661806506       -0.02770389263282
C           -7.50463462622525        1.34911051291349        0.40497451244987
C           -5.14527999088365        1.43870598205769        1.16635548945666
C           -5.33654431450384        2.20239691144016        2.31050034706400
C           -4.56587230721412        2.03400467458275        3.44590120260920
C           -3.58519796613676        1.05852096013894        3.45570853363862
C           -3.37509214712358        0.28449377794019        2.33359019114248
C           -4.13002584086154        0.47565024993823        1.17179363058064
N           -3.88586153904407       -0.30886753228126        0.05153289750571
C           -2.87778787142532       -1.30463569172552        0.11086123680784
C           -3.23921032235944       -2.64726520766231        0.15086659440279
C           -2.27062506305954       -3.64165954297964        0.20967865055307
C           -0.94255417543170       -3.26753890194298        0.23551955108032
C           -0.57243990702398       -1.90957933761536        0.20046784358801
C           -1.53145609870131       -0.92355169993346        0.13360195370700
C            0.88838352183874       -1.83509239374977        0.26108053143777
C            1.72290895979472       -0.74832232886856        0.27813732745061
C            3.11818241776884       -0.94809592634529        0.37645305140475
N            3.97134939822765        0.12441806692426        0.41241476932812
C            5.37968882419653        0.01258223033577        0.36848932919733
C            6.07164644976009       -0.73462598571511        1.31342471619494
C            7.45247553004914       -0.79214515964941        1.26871462912665
C            8.13845037873107       -0.08391701934966        0.29784074291894
C            7.44894090900316        0.70170688427947       -0.61104188390489
C            6.06399432142947        0.76755477726630       -0.58941666132522
C            5.22862248694118        1.62091954498700       -1.52961087783939
C            6.07003255514029        2.64660414886689       -2.28972116717668
C            4.53879396144758        0.70807980596993       -2.56450041161949
C            4.16959662198097        2.27293326894803       -0.65603006472525
C            3.79402012331325        3.60529106612602       -0.73911221841958
C            2.83288277396280        4.12813547883874        0.11045384532536
C            2.25279874466311        3.33181658795101        1.08220788185564
C            2.61899211687664        2.00253413893208        1.18847620796506
C            3.54665121173732        1.46790510344484        0.30292215802985
C            3.60904445220836       -2.26573494831641        0.35999406801931
C            2.76216420972348       -3.35584320472652        0.33972320633123
C            1.39161429718631       -3.15199472977447        0.31787732139154
C            0.28293242945029       -4.10891293134554        0.30265197698928
O            0.33379305760679       -5.33015605337502        0.33406595145205
C           -4.63377211266905       -0.17322006669415       -1.11120216038272
C           -4.30387293097705       -0.93129590689917       -2.23917631009116
C           -5.03592012112317       -0.83096492657718       -3.40373499662142
C           -6.10948190213125        0.03918546202515       -3.46919673594158
C           -6.41487261724409        0.81682486015119       -2.36763114061172
C           -5.69228105897156        0.73847709238488       -1.18414086623514
H           -6.17925098964769        3.80012061085177        0.30469327996828
H           -6.60501366553315        3.30835506425395       -1.33034638995107
H           -4.91481310537624        3.31097690347908       -0.82468901245185
H           -8.19386968052823        1.49205176697666       -0.42272021494407
H           -7.58375576730435        0.31728481753161        0.74366966844307
H           -7.80937696322285        2.00102192154519        1.21895502205616
H           -6.11378457342777        2.95132927820663        2.32355379329079
H           -4.73939352730411        2.64877592004244        4.31631552754003
H           -2.98426507051398        0.89240422845256        4.33787882908580
H           -2.62023567273811       -0.48609862975476        2.36077615102069
H           -4.28699958482430       -2.90865325930243        0.13337227372324
H           -2.54563820615929       -4.68536393949514        0.24304228350876
H           -1.27002646295419        0.12346298105251        0.10057032372590
H            1.31825401538715        0.24669804883450        0.19336966682902
H            5.52816884334925       -1.25324480655821        2.08907600702665
H            7.98891353652120       -1.37952943732553        1.99878332125141
H            9.21656665835732       -0.12757468010061        0.25697350624661
H            8.00918059344638        1.26413422740324       -1.33965221158876
H            6.58008402652413        3.31948408686859       -1.60397862342865
H            5.43796932469226        3.22859680481481       -2.95550095605858
H            6.80828494897588        2.14097030864194       -2.90680080750999
H            5.28961045029994        0.21343722866833       -3.17708809854920
H            3.89750297861575        1.30333313410787       -3.21124198289923
H            3.92938912530792       -0.05641220647599       -2.09038236018595
H            4.24804687177671        4.25398146273255       -1.46996267210559
H            2.54953833231770        5.16635221615236        0.02237250681466
H            1.52608381080737        3.74486943748309        1.76572417970250
H            2.20192568834715        1.38124271459746        1.96722667344205
H            4.67300282769423       -2.43608935101201        0.34066285371232
H            3.16185224508911       -4.35928377347058        0.33661317683180
H           -3.46052996699118       -1.60380850433763       -2.20274533478993
H           -4.76284050871329       -1.43213450888738       -4.25876585441181
H           -6.69623283411934        0.12159442109731       -4.37178070776366
H           -7.24273487713557        1.50585724983990       -2.43814593850367

          :  Hamiltonian                  GFN2-xTB          :
         :: gradient norm              0.000040252186 Eh/a0 ::
         :: HOMO-LUMO gap              1.220000195629 eV    ::
         :: SCC energy              -121.573097385242 Eh    ::
         :: -> dispersion             -0.112775933273 Eh    ::
         :: -> Gsolv                  -0.050816964351 Eh    ::
         :: repulsion energy           2.124358663388 Eh    ::

    * Orbital Energies and Occupations

         #    Occupation            Energy/Eh            Energy/eV
      -------------------------------------------------------------
         1        2.0000           -0.7027886             -19.1238
       ...           ...                  ...                  ...
        99        2.0000           -0.4145105             -11.2794
       100        2.0000           -0.4090630             -11.1312
       101        2.0000           -0.4073950             -11.0858
       102        2.0000           -0.4066343             -11.0651
       103        2.0000           -0.4038826             -10.9902
       104        2.0000           -0.4037304             -10.9861
       105        2.0000           -0.4029335             -10.9644
       106        2.0000           -0.3982593             -10.8372
       107        2.0000           -0.3961888             -10.7808
       108        2.0000           -0.3924792             -10.6799
       109        2.0000           -0.3891732             -10.5899
       110        2.0000           -0.3628059              -9.8725
       111        2.0000           -0.3473710              -9.4524 (HOMO)
       112                         -0.3025368              -8.2324 (LUMO)
       113                         -0.2563413              -6.9754
       114                         -0.2395028              -6.5172
       115                         -0.2330218              -6.3408
       116                         -0.2276008              -6.1933
       117                         -0.2246912              -6.1142
       118                         -0.2246328              -6.1126
       119                         -0.2224220              -6.0524
       120                         -0.2192527              -5.9662
       121                         -0.2183724              -5.9422
       122                         -0.2029213              -5.5218
       ...                                ...                  ...
       218                          0.7319925              19.9185
      -------------------------------------------------------------
                  HL-Gap            0.0448342 Eh            1.2200 eV

     #   Z          covCN         q      C6AA      α(0)
     1   6 C        3.761    -0.104    22.535     6.767
     2   6 C        3.909     0.021    20.163     6.382
     3   6 C        3.761    -0.103    22.521     6.765
     4   6 C        2.979    -0.013    28.334     8.732
     5   6 C        2.928    -0.037    28.931     8.821
     6   6 C        2.917    -0.046    29.136     8.852
     7   6 C        2.919    -0.035    28.861     8.810
     8   6 C        2.924    -0.060    29.482     8.904
     9   6 C        2.926     0.058    26.692     8.473
    10   7 N        2.754    -0.070    22.603     7.061
    11   6 C        2.928     0.074    26.336     8.416
    12   6 C        2.923    -0.040    29.002     8.831
    13   6 C        2.912    -0.017    28.445     8.746
    14   6 C        3.050    -0.031    28.715     8.788
    15   6 C        3.040     0.007    27.827     8.652
    16   6 C        2.915    -0.041    29.013     8.833
    17   6 C        3.041     0.006    27.849     8.655
    18   6 C        2.916    -0.056    29.393     8.890
    19   6 C        2.912     0.076    26.303     8.410
    20   7 N        2.754    -0.054    22.275     7.010
    21   6 C        2.951     0.053    26.804     8.492
    22   6 C        2.920    -0.045    29.119     8.849
    23   6 C        2.920    -0.033    28.820     8.803
    24   6 C        2.919    -0.035    28.881     8.813
    25   6 C        2.923    -0.037    28.931     8.821
    26   6 C        2.987    -0.004    28.120     8.699
    27   6 C        3.910     0.023    20.126     6.377
    28   6 C        3.759    -0.110    22.648     6.785
    29   6 C        3.761    -0.100    22.453     6.755
    30   6 C        2.987    -0.004    28.119     8.698
    31   6 C        2.923    -0.037    28.927     8.820
    32   6 C        2.919    -0.035    28.881     8.813
    33   6 C        2.919    -0.033    28.821     8.804
    34   6 C        2.920    -0.045    29.123     8.850
    35   6 C        2.952     0.053    26.803     8.491
    36   6 C        2.923    -0.061    29.523     8.910
    37   6 C        2.911    -0.016    28.412     8.740
    38   6 C        3.047    -0.047    29.130     8.852
    39   6 C        2.870     0.223    23.316     7.915
    40   8 O        0.856    -0.437    22.429     6.350
    41   6 C        2.927     0.058    26.698     8.474
    42   6 C        2.924    -0.059    29.469     8.902
    43   6 C        2.919    -0.035    28.860     8.810
    44   6 C        2.917    -0.046    29.133     8.851
    45   6 C        2.928    -0.037    28.932     8.821
    46   6 C        2.979    -0.013    28.335     8.732
    47   1 H        0.925     0.042     2.416     2.431
    48   1 H        0.925     0.042     2.422     2.434
    49   1 H        0.925     0.031     2.574     2.509
    50   1 H        0.925     0.042     2.423     2.434
    51   1 H        0.925     0.030     2.593     2.518
    52   1 H        0.925     0.042     2.421     2.433
    53   1 H        0.926     0.034     2.534     2.490
    54   1 H        0.926     0.027     2.634     2.538
    55   1 H        0.926     0.027     2.629     2.536
    56   1 H        0.926     0.024     2.669     2.555
    57   1 H        0.926     0.049     2.329     2.387
    58   1 H        0.926     0.049     2.338     2.391
    59   1 H        0.926     0.053     2.283     2.363
    60   1 H        0.926     0.051     2.313     2.378
    61   1 H        0.926     0.041     2.439     2.442
    62   1 H        0.926     0.038     2.476     2.461
    63   1 H        0.926     0.038     2.472     2.459
    64   1 H        0.926     0.049     2.336     2.390
    65   1 H        0.925     0.042     2.424     2.435
    66   1 H        0.925     0.046     2.369     2.407
    67   1 H        0.925     0.046     2.372     2.409
    68   1 H        0.925     0.043     2.410     2.428
    69   1 H        0.925     0.043     2.410     2.427
    70   1 H        0.925     0.033     2.538     2.491
    71   1 H        0.926     0.049     2.336     2.390
    72   1 H        0.926     0.038     2.472     2.459
    73   1 H        0.926     0.038     2.473     2.459
    74   1 H        0.926     0.041     2.439     2.442
    75   1 H        0.926     0.046     2.366     2.405
    76   1 H        0.926     0.041     2.439     2.442
    77   1 H        0.926     0.023     2.683     2.561
    78   1 H        0.926     0.027     2.634     2.538
    79   1 H        0.926     0.027     2.635     2.538
    80   1 H        0.926     0.034     2.532     2.488

molecular dipole:
                 x           y           z       tot (Debye)
 q only:        1.382       3.194      -0.422
   full:        1.336       3.078      -0.365       8.578

 projected vibrational frequencies (cm⁻¹)
eigval :       -0.00     0.00     0.00     0.00     0.00     0.00
eigval :        5.42    11.68    13.66    26.39    34.16    40.84
eigval :       53.74    62.69    79.33    88.88    93.59    98.60
eigval :      112.23   122.83   131.64   139.97   150.32   165.64
eigval :      180.11   183.74   186.56   199.20   210.61   221.63
eigval :      227.09   235.60   237.95   253.62   267.83   286.24
eigval :      298.10   301.81   313.30   321.37   330.93   332.18
eigval :      342.78   345.61   356.48   364.77   379.53   387.01
eigval :      389.65   402.88   405.87   410.34   414.93   428.78
eigval :      450.96   456.48   467.01   487.87   493.18   497.67
eigval :      505.57   513.33   536.61   545.94   546.66   557.22
eigval :      564.32   570.25   574.88   580.56   587.28   596.66
eigval :      611.78   625.31   634.75   649.25   659.29   674.17
eigval :      682.25   692.76   693.67   699.47   705.58   725.19
eigval :      732.93   734.20   748.17   773.31   774.57   776.55
eigval :      784.30   805.77   810.02   821.03   824.03   835.34
eigval :      859.39   862.49   862.90   877.98   881.42   883.44
eigval :      891.42   906.77   909.36   910.41   912.52   914.86
eigval :      917.03   919.01   919.23   920.06   920.38   936.25
eigval :      937.74   937.94   942.73   950.66   957.86   965.48
eigval :      986.90  1009.62  1015.15  1031.25  1072.36  1074.44
eigval :     1076.17  1081.77  1091.58  1098.96  1105.65  1112.14
eigval :     1118.01  1127.66  1137.42  1139.18  1151.18  1158.31
eigval :     1161.55  1171.20  1176.04  1181.34  1182.37  1183.97
eigval :     1186.59  1189.16  1194.81  1214.86  1223.57  1228.37
eigval :     1233.72  1246.79  1248.42  1250.15  1257.10  1265.56
eigval :     1267.15  1271.95  1284.76  1293.33  1304.29  1313.57
eigval :     1319.32  1324.27  1324.44  1331.58  1332.97  1336.81
eigval :     1366.63  1396.13  1399.75  1408.19  1414.45  1418.22
eigval :     1432.37  1436.55  1437.36  1437.57  1439.44  1451.65
eigval :     1457.95  1470.80  1475.06  1477.52  1487.49  1489.29
eigval :     1489.59  1492.10  1492.54  1499.22  1502.90  1504.98
eigval :     1520.19  1557.16  1572.49  1574.50  1575.19  1581.45
eigval :     1583.09  1586.99  1588.57  1589.80  1590.08  1597.76
eigval :     1600.06  1677.29  3022.07  3024.75  3027.64  3029.82
eigval :     3032.98  3033.56  3039.04  3041.57  3047.69  3048.10
eigval :     3051.36  3052.40  3070.11  3072.24  3077.61  3078.83
eigval :     3079.34  3079.68  3083.78  3084.06  3084.50  3085.42
eigval :     3090.39  3090.56  3090.93  3093.35  3094.08  3094.78
eigval :     3096.74  3098.95  3113.97  3114.06  3114.50  3115.41

   temp. (K)  partition function   enthalpy   heat capacity  entropy
                                   cal/mol     cal/K/mol   cal/K/mol   J/K/mol
 298.15  VIB  0.264E+17            22066.039    143.291    135.163
         ROT  0.716E+08              888.752      2.981     38.923
         INT  0.189E+25            22954.791    146.272    174.086
         TR   0.140E+29             1481.254      4.968     45.012
         TOT                       24436.0450   151.2404   219.0982   916.7068

       T/K    H(0)-H(T)+PV         H(T)/Eh          T*S/Eh         G(T)/Eh
   ------------------------------------------------------------------------
    298.15    0.389413E-01    0.672650E+00    0.104101E+00    0.568550E+00
   ------------------------------------------------------------------------

         :::::::::::::::::::::::::::::::::::::::::::::::::::::
         ::                  THERMODYNAMIC                  ::
         :::::::::::::::::::::::::::::::::::::::::::::::::::::
         :: total free energy        -118.880189156792 Eh   ::
         ::.................................................::
         :: total energy             -119.448738721439 Eh   ::
         :: zero point energy           0.633708863797 Eh   ::
         :: G(RRHO) w/o ZPVE           -0.065159299150 Eh   ::
         :: G(RRHO) contrib.            0.568549564647 Eh   ::
         :::::::::::::::::::::::::::::::::::::::::::::::::::::

           -------------------------------------------------
          | TOTAL ENERGY             -119.448738721439 Eh   |
          | TOTAL ENTHALPY           -118.776088541154 Eh   |
          | TOTAL FREE ENERGY        -118.880189156792 Eh   |
          | GRADIENT NORM               0.000040241487 Eh/α |
          | HOMO-LUMO GAP               1.219999722261 eV   |
           -------------------------------------------------

 * finished run on 2025/08/24 at 03:25:30.985
