   * xtb version 6.7.1 (edcfbbe) compiled by 'albert@albert-system' on 2024-07-22

   ID    Z sym.   atoms
    1    6 C      1-9, 11-19, 21-39, 41-46
    2    7 N      10, 20
    3    8 O      40
    4    1 H      47-80

          program call               : xtb data2507/toluene/DMAC-FO/DMAC-FO_toluene_T1_crest.xyz --gfn 2 --uhf 2 --gbsa toluene --ohess vtight --parallel 40 --molden --ceasefiles --namespace data2507/toluene/DMAC-FO/DMAC-FO_toluene_T1_finalOpt
      * Solvation model:               GBSA
        Solvent                        toluene
        Solvent mass                       9.2140E+01 g/mol
          :  Hamiltonian                  GFN2-xTB          :
 * total energy  :  -119.3936404 Eh     change       -0.1579814E-07 Eh
 * total energy  :  -119.3937816 Eh     change       -0.1411824E-03 Eh
 * total energy  :  -119.3938130 Eh     change       -0.3142186E-04 Eh
 * total energy  :  -119.3938170 Eh     change       -0.3986370E-05 Eh
 * total energy  :  -119.3938190 Eh     change       -0.2047632E-05 Eh
 * total energy  :  -119.3938211 Eh     change       -0.2097385E-05 Eh
 * total energy  :  -119.3938231 Eh     change       -0.1956396E-05 Eh
 * total energy  :  -119.3938251 Eh     change       -0.2041157E-05 Eh
 * total energy  :  -119.3938271 Eh     change       -0.1973954E-05 Eh
 * total energy  :  -119.3938291 Eh     change       -0.2018619E-05 Eh
 * total energy  :  -119.3938703 Eh     change       -0.6199347E-06 Eh
 * total energy  :  -119.3938709 Eh     change       -0.6677117E-06 Eh
 * total energy  :  -119.3938715 Eh     change       -0.5421695E-06 Eh
 * total energy  :  -119.3938719 Eh     change       -0.4451832E-06 Eh
 * total energy  :  -119.3938723 Eh     change       -0.4273396E-06 Eh
 * total energy  :  -119.3938727 Eh     change       -0.3810960E-06 Eh
 * total energy  :  -119.3938729 Eh     change       -0.2261963E-06 Eh
 * total energy  :  -119.3938731 Eh     change       -0.1356788E-06 Eh
 * total energy  :  -119.3938731 Eh     change       -0.5180429E-07 Eh
   *** GEOMETRY OPTIMIZATION CONVERGED AFTER 36 ITERATIONS ***

 final structure:
================
80
 xtb: 6.7.1 (edcfbbe)
C           -5.69121626161224        3.39950031198939       -0.87620063947701
C           -5.99038142705131        1.91481431866082       -0.58841014340895
C           -7.51069411844819        1.66283212263884       -0.63079356383813
C           -5.47994841560744        1.57710081344912        0.79644653114768
C           -5.97850286771959        2.25635998210903        1.89985186261205
C           -5.54149400629159        1.98766612922775        3.18430502608572
C           -4.57400777914087        1.01481331136889        3.38864985104066
C           -4.06025737338670        0.32447591992566        2.31438547272638
C           -4.50452716342269        0.58947649949684        1.01021630800512
N           -3.97130255261234       -0.12032596720999       -0.04350059154154
C           -2.99206917206470       -1.12528863098770        0.22564934839630
C           -3.42259479716268       -2.42355710980862        0.54126284656613
C           -2.50499971658438       -3.41695506641333        0.80726249253729
C           -1.14688896141133       -3.11662508753515        0.76086222130526
C           -0.71272489850066       -1.79312023143414        0.43719639343632
C           -1.64431459967926       -0.80344599591891        0.17063659578509
C            0.72028881868095       -1.78372916877933        0.46837432311034
C            1.64963410487924       -0.78395622468622        0.23443503966090
C            2.99824149441603       -1.08973478169971        0.34001393258046
N            3.97412355929252       -0.07390397120884        0.10497221315244
C            4.57204681869166        0.00174920361988       -1.13431346070630
C            4.19309325077232       -0.90139311448531       -2.13894999526482
C            4.77522893811819       -0.85536113094453       -3.38537183940978
C            5.74615405458539        0.09691812839313       -3.65859220954543
C            6.11448313041015        0.99697457793370       -2.67513960734633
C            5.54583058684556        0.97584468807701       -1.40881645065241
C            5.97670701460375        1.99400829082098       -0.37464591714375
C            7.49031766812363        1.83937272593124       -0.12671686403436
C            5.66975101257520        3.40460122550932       -0.91562537384912
C            5.24995301626043        1.80711080530602        0.94020983169847
C            5.52613084143242        2.65279897822250        2.00609381989897
C            4.90004791790412        2.51510756935662        3.23159866196698
C            3.97201115339446        1.50059914759534        3.41529058766179
C            3.67573888224118        0.64739214689483        2.37660428270532
C            4.29910727469445        0.79060076980328        1.12788740492610
C            3.43150791117759       -2.38178432630085        0.67762870601177
C            2.51623607255729       -3.38477449796748        0.91321678046392
C            1.15732897622253       -3.10176805984118        0.81059380151389
C            0.00609622904037       -3.96319006757910        1.00028719607484
O            0.00731878553634       -5.18348741134329        1.30826392958794
C           -4.36483700917492        0.09726002703500       -1.34589302981456
C           -3.79407442240286       -0.66650379267973       -2.37504225151092
C           -4.16158727877107       -0.46980777279637       -3.68680026054803
C           -5.11019915985336        0.49253601732037       -4.00038651899463
C           -5.68015337530891        1.24376720405584       -2.98857959119429
C           -5.32972827086110        1.06934232646144       -1.65656588632030
H           -6.16917720234356        4.03827819807346       -0.13960456266296
H           -6.05431950957717        3.68156634036881       -1.85990622863268
H           -4.61774029881696        3.57572565179531       -0.84100536523742
H           -7.91626090011108        1.91570015030747       -1.60584203221861
H           -7.71903412621647        0.61292619980347       -0.43281523260287
H           -8.02138110209318        2.26176104351519        0.11725078622971
H           -6.72950368889957        3.01816124442167        1.76022979112774
H           -5.95134832187564        2.53379710027661        4.02009567135421
H           -4.21989316780821        0.79489671379145        4.38449208173211
H           -3.30688162942575       -0.43162339266821        2.47083461106419
H           -4.48247405129590       -2.63067444730677        0.57039533905799
H           -2.82561904990903       -4.41998191932544        1.05057065383212
H           -1.33868521781528        0.20350341140464       -0.07490171953930
H            1.34188251815375        0.21855026961067       -0.02623451445217
H            3.43505560221724       -1.63880003006582       -1.92644434230195
H            4.47078439639796       -1.56052766055652       -4.14399179491100
H            6.20980579482179        0.13997870921031       -4.63225279960201
H            6.86643990509490        1.73482108564529       -2.90736577512148
H            7.70445235101248        0.84250469498902        0.25431534460075
H            7.83806169187950        2.56726226855399        0.60013381778449
H            8.04799790761481        1.98276113344345       -1.04728757053644
H            4.60107921449396        3.50965278983223       -1.09332871454722
H            6.19287915201761        3.58010211945883       -1.85083908370295
H            5.97720807267214        4.16518486113829       -0.20419040497092
H            6.25049445249578        3.44280934107660        1.88340513580528
H            5.13752006058394        3.19035866143194        4.03936390259414
H            3.48096635418663        1.37348069485276        4.36826995634573
H            2.95888886589663       -0.14582208967736        2.51990600678550
H            4.49175156949585       -2.57519035338060        0.75220572053182
H            2.83910413199485       -4.38243522431939        1.17493730291904
H           -3.06044121426206       -1.41780858765004       -2.12811840290347
H           -3.71007427870664       -1.06769660620862       -4.46405709834160
H           -5.40529551985167        0.65417318966546       -5.02585509283989
H           -6.41874314300401        1.98507874840578       -3.25070514337885

          :  Hamiltonian                  GFN2-xTB          :
         :: gradient norm              0.000089145350 Eh/a0 ::
         :: HOMO-LUMO gap              1.309083273386 eV    ::
         :: SCC energy              -121.508078421479 Eh    ::
         :: -> dispersion             -0.111685264402 Eh    ::
         :: -> Gsolv                  -0.063064437063 Eh    ::
         :: repulsion energy           2.114205287974 Eh    ::

    * Orbital Energies and Occupations

         #    Occupation            Energy/Eh            Energy/eV
      -------------------------------------------------------------
         1        2.0000           -0.6812570             -18.5379
       ...           ...                  ...                  ...
       100        2.0000           -0.4154760             -11.3057
       101        2.0000           -0.4152203             -11.2987
       102        2.0000           -0.4110112             -11.1842
       103        2.0000           -0.4109087             -11.1814
       104        2.0000           -0.4051194             -11.0239
       105        2.0000           -0.4050382             -11.0217
       106        2.0000           -0.4016201             -10.9286
       107        2.0000           -0.4003262             -10.8934
       108        2.0000           -0.3728429             -10.1456
       109        1.8658           -0.3615500              -9.8383
       110        1.6619           -0.3604172              -9.8075
       111        1.4724           -0.3596741              -9.7872
       112        1.0000           -0.2901735              -7.8960 (HOMO)
       113                         -0.2420652              -6.5869 (LUMO)
       114                         -0.2393209              -6.5123
       115                         -0.2391660              -6.5080
       116                         -0.2313753              -6.2960
       117                         -0.2312920              -6.2938
       118                         -0.2305890              -6.2746
       119                         -0.2302663              -6.2659
       120                         -0.2218371              -6.0365
       121                         -0.2039433              -5.5496
       122                         -0.2036638              -5.5420
       123                         -0.1870469              -5.0898
       ...                                ...                  ...
       218                          0.7346018              19.9895
      -------------------------------------------------------------
                  HL-Gap            0.0481082 Eh            1.3091 eV

     #   Z          covCN         q      C6AA      α(0)
     1   6 C        3.761    -0.107    22.596     6.776
     2   6 C        3.909     0.024    20.116     6.375
     3   6 C        3.761    -0.107    22.590     6.775
     4   6 C        2.978    -0.003    28.099     8.695
     5   6 C        2.925    -0.034    28.838     8.807
     6   6 C        2.917    -0.033    28.830     8.805
     7   6 C        2.918    -0.028    28.712     8.787
     8   6 C        2.923    -0.048    29.187     8.860
     9   6 C        2.930     0.062    26.604     8.459
    10   7 N        2.755    -0.025    21.737     6.925
    11   6 C        2.929     0.043    27.027     8.526
    12   6 C        2.919    -0.051    29.269     8.872
    13   6 C        2.910    -0.027    28.687     8.783
    14   6 C        3.068    -0.043    28.985     8.828
    15   6 C        3.047    -0.017    28.387     8.738
    16   6 C        2.911    -0.045    29.115     8.848
    17   6 C        3.047    -0.017    28.387     8.738
    18   6 C        2.911    -0.045    29.116     8.848
    19   6 C        2.929     0.043    27.028     8.526
    20   7 N        2.755    -0.025    21.729     6.923
    21   6 C        2.930     0.062    26.606     8.459
    22   6 C        2.923    -0.048    29.187     8.859
    23   6 C        2.918    -0.028    28.712     8.787
    24   6 C        2.917    -0.033    28.829     8.805
    25   6 C        2.925    -0.034    28.838     8.807
    26   6 C        2.978    -0.003    28.097     8.695
    27   6 C        3.909     0.024    20.116     6.375
    28   6 C        3.761    -0.107    22.592     6.776
    29   6 C        3.761    -0.107    22.595     6.776
    30   6 C        2.978    -0.003    28.098     8.695
    31   6 C        2.925    -0.034    28.838     8.806
    32   6 C        2.917    -0.033    28.830     8.805
    33   6 C        2.918    -0.028    28.712     8.787
    34   6 C        2.923    -0.048    29.189     8.860
    35   6 C        2.929     0.062    26.608     8.459
    36   6 C        2.919    -0.051    29.266     8.871
    37   6 C        2.910    -0.027    28.688     8.783
    38   6 C        3.068    -0.042    28.981     8.827
    39   6 C        2.875     0.175    24.251     8.073
    40   8 O        0.856    -0.528    24.417     6.625
    41   6 C        2.929     0.062    26.606     8.459
    42   6 C        2.923    -0.048    29.189     8.860
    43   6 C        2.918    -0.028    28.712     8.787
    44   6 C        2.917    -0.033    28.831     8.805
    45   6 C        2.925    -0.034    28.838     8.807
    46   6 C        2.978    -0.003    28.099     8.695
    47   1 H        0.925     0.051     2.308     2.376
    48   1 H        0.925     0.051     2.308     2.376
    49   1 H        0.925     0.036     2.499     2.472
    50   1 H        0.925     0.051     2.310     2.377
    51   1 H        0.925     0.035     2.513     2.479
    52   1 H        0.925     0.051     2.310     2.377
    53   1 H        0.926     0.048     2.339     2.392
    54   1 H        0.926     0.042     2.422     2.434
    55   1 H        0.926     0.039     2.460     2.452
    56   1 H        0.926     0.038     2.474     2.460
    57   1 H        0.926     0.030     2.592     2.517
    58   1 H        0.926     0.025     2.657     2.549
    59   1 H        0.926     0.034     2.525     2.485
    60   1 H        0.926     0.034     2.524     2.484
    61   1 H        0.926     0.038     2.471     2.458
    62   1 H        0.926     0.039     2.460     2.453
    63   1 H        0.926     0.042     2.422     2.434
    64   1 H        0.926     0.049     2.338     2.391
    65   1 H        0.925     0.035     2.512     2.479
    66   1 H        0.925     0.051     2.309     2.376
    67   1 H        0.925     0.051     2.309     2.376
    68   1 H        0.925     0.036     2.499     2.472
    69   1 H        0.925     0.051     2.309     2.376
    70   1 H        0.925     0.051     2.307     2.375
    71   1 H        0.926     0.049     2.338     2.391
    72   1 H        0.926     0.042     2.421     2.433
    73   1 H        0.926     0.039     2.457     2.451
    74   1 H        0.926     0.038     2.473     2.459
    75   1 H        0.926     0.030     2.588     2.516
    76   1 H        0.926     0.025     2.656     2.548
    77   1 H        0.926     0.038     2.475     2.460
    78   1 H        0.926     0.039     2.459     2.452
    79   1 H        0.926     0.042     2.422     2.434
    80   1 H        0.926     0.048     2.339     2.392

molecular dipole:
                 x           y           z       tot (Debye)
 q only:        0.005       6.085      -1.525
   full:        0.006       5.840      -1.463      15.302

 projected vibrational frequencies (cm⁻¹)
eigval :       -0.00    -0.00    -0.00     0.00     0.00     0.00
eigval :       -8.41    10.30    15.99    23.63    25.85    37.15
eigval :       38.95    57.82    86.58    89.05    94.34    99.46
eigval :      102.48   111.75   121.46   123.99   126.15   136.18
eigval :      160.90   162.34   186.31   189.52   191.33   215.33
eigval :      216.58   234.21   234.52   238.66   242.33   277.37
eigval :      279.83   300.50   306.54   324.20   325.40   334.38
eigval :      335.71   339.51   342.82   354.70   378.42   381.11
eigval :      382.55   394.97   396.15   405.77   409.54   419.88
eigval :      447.54   448.58   461.78   470.72   503.31   504.31
eigval :      505.07   516.49   533.07   539.58   542.31   543.56
eigval :      546.35   558.57   565.26   577.57   584.09   584.50
eigval :      605.84   623.28   626.25   639.11   651.34   664.26
eigval :      684.42   687.79   688.59   692.19   701.68   702.33
eigval :      703.81   731.43   741.36   771.20   771.92   773.61
eigval :      777.01   802.93   806.08   806.82   824.35   824.78
eigval :      855.69   860.29   867.76   868.46   869.48   871.80
eigval :      872.79   896.10   901.65   911.69   911.90   912.35
eigval :      912.73   914.40   916.73   920.68   922.56   922.91
eigval :      925.85   935.71   936.22   942.51   957.05   957.43
eigval :      979.79  1009.41  1010.80  1019.23  1072.63  1073.08
eigval :     1078.29  1081.26  1087.88  1103.30  1104.95  1110.52
eigval :     1110.88  1115.72  1136.19  1137.09  1147.24  1147.30
eigval :     1151.59  1162.03  1175.42  1180.40  1180.90  1181.69
eigval :     1181.91  1183.25  1184.99  1207.96  1227.29  1230.84
eigval :     1234.30  1238.54  1240.64  1241.11  1254.55  1256.79
eigval :     1262.01  1291.66  1291.90  1301.77  1306.50  1313.42
eigval :     1314.38  1318.89  1327.73  1327.76  1333.74  1333.93
eigval :     1355.61  1395.42  1396.39  1401.52  1405.06  1414.08
eigval :     1415.07  1416.90  1417.29  1426.57  1428.38  1435.82
eigval :     1453.80  1453.85  1460.20  1473.99  1477.64  1480.50
eigval :     1480.56  1482.54  1482.66  1490.99  1491.49  1496.49
eigval :     1496.93  1509.28  1518.60  1544.25  1550.83  1551.10
eigval :     1556.99  1561.38  1563.01  1566.10  1576.74  1576.83
eigval :     1586.90  1588.36  3025.51  3026.40  3028.30  3028.65
eigval :     3047.79  3047.93  3049.76  3049.89  3054.56  3054.90
eigval :     3058.27  3058.65  3069.34  3069.65  3072.07  3074.65
eigval :     3081.55  3082.41  3082.49  3082.77  3082.89  3083.48
eigval :     3089.51  3089.61  3089.62  3089.83  3098.94  3099.09
eigval :     3099.29  3099.53  3105.63  3105.71  3106.12  3107.39

   temp. (K)  partition function   enthalpy   heat capacity  entropy
                                   cal/mol     cal/K/mol   cal/K/mol   J/K/mol
 298.15  VIB  0.106E+18            22534.352    144.206    138.506
         ROT  0.767E+08              888.752      2.981     39.060
         INT  0.816E+25            23423.104    147.187    177.566
         TR   0.140E+29             1481.254      4.968     45.012
         TOT                       24904.3580   152.1549   222.5782   931.2671

       T/K    H(0)-H(T)+PV         H(T)/Eh          T*S/Eh         G(T)/Eh
   ------------------------------------------------------------------------
    298.15    0.396876E-01    0.669844E+00    0.105754E+00    0.564090E+00
   ------------------------------------------------------------------------

         :::::::::::::::::::::::::::::::::::::::::::::::::::::
         ::                  THERMODYNAMIC                  ::
         :::::::::::::::::::::::::::::::::::::::::::::::::::::
         :: total free energy        -118.829783630512 Eh   ::
         ::.................................................::
         :: total energy             -119.393873131066 Eh   ::
         :: zero point energy           0.630155957908 Eh   ::
         :: G(RRHO) w/o ZPVE           -0.066066457354 Eh   ::
         :: G(RRHO) contrib.            0.564089500554 Eh   ::
         :::::::::::::::::::::::::::::::::::::::::::::::::::::

           -------------------------------------------------
          | TOTAL ENERGY             -119.393873131066 Eh   |
          | TOTAL ENTHALPY           -118.724029552439 Eh   |
          | TOTAL FREE ENERGY        -118.829783630512 Eh   |
          | GRADIENT NORM               0.000089568752 Eh/α |
          | HOMO-LUMO GAP               1.309091044760 eV   |
           -------------------------------------------------

 * finished run on 2025/08/24 at 03:30:33.218
