   * xtb version 6.7.1 (edcfbbe) compiled by 'albert@albert-system' on 2024-07-22

   ID    Z sym.   atoms
    1    8 O      1
    2    6 C      2-6, 8-13, 15-38, 40-45, 47-66
    3    7 N      7, 39
    4   14 Si     14, 46
    5    1 H      67-110

          program call               : xtb data2507/gas/BDAPM/BDAPM_gas_S0_crest.xyz --gfn 2 --ohess vtight --parallel 40 --molden --ceasefiles --namespace data2507/gas/BDAPM/BDAPM_gas_S0_finalOpt
          :  Hamiltonian                  GFN2-xTB          :
 * total energy  :  -166.3567803 Eh     change       -0.7795791E-09 Eh
 * total energy  :  -166.3567823 Eh     change       -0.2084780E-05 Eh
 * total energy  :  -166.3567843 Eh     change       -0.1992397E-05 Eh
 * total energy  :  -166.3567872 Eh     change       -0.2860591E-05 Eh
 * total energy  :  -166.3567906 Eh     change       -0.3404964E-05 Eh
 * total energy  :  -166.3567947 Eh     change       -0.4065446E-05 Eh
 * total energy  :  -166.3567994 Eh     change       -0.4779088E-05 Eh
 * total energy  :  -166.3568047 Eh     change       -0.5224804E-05 Eh
 * total energy  :  -166.3568098 Eh     change       -0.5153699E-05 Eh
 * total energy  :  -166.3568144 Eh     change       -0.4555594E-05 Eh
 * total energy  :  -166.3569941 Eh     change       -0.9053801E-06 Eh
 * total energy  :  -166.3569950 Eh     change       -0.8931310E-06 Eh
 * total energy  :  -166.3569958 Eh     change       -0.8756834E-06 Eh
 * total energy  :  -166.3569967 Eh     change       -0.8517457E-06 Eh
 * total energy  :  -166.3569975 Eh     change       -0.8378221E-06 Eh
 * total energy  :  -166.3569983 Eh     change       -0.8222995E-06 Eh
 * total energy  :  -166.3569992 Eh     change       -0.8223640E-06 Eh
 * total energy  :  -166.3570000 Eh     change       -0.8114559E-06 Eh
 * total energy  :  -166.3570000 Eh     change       -0.9192718E-08 Eh
   *** GEOMETRY OPTIMIZATION CONVERGED AFTER 122 ITERATIONS ***

 final structure:
================
110
 xtb: 6.7.1 (edcfbbe)
O           -0.15884723019791       -3.97965069537184       -2.09821065671830
C            0.00201818549413       -3.23026873996716       -1.14609163267712
C           -1.15387608830230       -2.65627817754905       -0.42652703247548
C           -1.12330014454864       -1.40470035503116        0.18756194382858
C           -2.24303760299450       -0.89074478108013        0.80012213056183
C           -3.44543428709697       -1.60826402105073        0.82672496080266
N           -4.57464202878074       -1.06070144732430        1.39856470912180
C           -5.86506455728282       -1.58484437902760        1.13295493280580
C           -6.24764738604038       -2.81123134288078        1.65958804875524
C           -7.51550705853727       -3.30158587662600        1.39961201540260
C           -8.40450481162989       -2.56726785922187        0.63117427003807
C           -8.02623446140545       -1.33554904621834        0.12644855073969
C           -6.75536631066961       -0.83383583141442        0.36368000139104
Si          -6.06209659478229        0.83759033692766       -0.17183749678646
C           -7.35087159593654        2.08562634817196       -0.73750526221998
C           -8.43545124587530        2.39635281201135        0.07705373537732
C           -9.38333900010671        3.31951866595739       -0.32434028827936
C           -9.25909621127068        3.94915792961702       -1.55201994993558
C           -8.18475845120836        3.65009193736497       -2.37306767185466
C           -7.23993407255044        2.72511036691020       -1.96650355311279
C           -4.62976186391051        0.55168055743942       -1.37812222598184
C           -4.47892002687735       -0.65412052589217       -2.05635678528298
C           -3.35408180967863       -0.90676143832964       -2.81998843452228
C           -2.36028046582023        0.05069615208142       -2.92552481668658
C           -2.50225887146497        1.26401117870649       -2.27265857777069
C           -3.62415303513241        1.50661933516303       -1.50226703495500
C           -5.23996502897444        1.27329551150398        1.47439628189048
C           -5.24472267483332        2.49177659909880        2.13651242086564
C           -4.54991522600581        2.65353537874413        3.32239100766112
C           -3.84066990195707        1.59027629593036        3.85880319619432
C           -3.83580702077850        0.36266303471189        3.22112983683091
C           -4.53735459629677        0.20436080238120        2.03288887642723
C           -3.48238223349453       -2.85237217101532        0.18508489290363
C           -2.36152395956133       -3.35471770346385       -0.43188563823655
C            1.35421312946425       -2.85482770002202       -0.68616404105392
C            2.40305991271963       -2.87725374629692       -1.60638418243630
C            3.67978336550418       -2.52010005779461       -1.24620123353379
C            3.96911415792252       -2.13680562159257        0.06972163851455
N            5.23019941932807       -1.70176347715501        0.41702512511221
C            5.48948120528335       -1.09373535563011        1.67066985226919
C            5.46187727556693       -1.84780472373407        2.83628867516328
C            5.74290555744015       -1.24244734838348        4.04864455216819
C            6.06437397371735        0.10458872754924        4.09953560660305
C            6.10518393484933        0.84882853210375        2.93350339184857
C            5.81221718729081        0.26392318277293        1.71081349986618
Si           5.82787018047716        1.07502387551962        0.00472445578885
C            6.68714675101247        2.74689319823719       -0.06790704024110
C            8.00143342581654        2.88638042584344        0.36724432788559
C            8.64077629472707        4.11126257542553        0.31313850143358
C            7.97164185420328        5.21968676875309       -0.17953067667141
C            6.66316311797854        5.09590241985479       -0.61582290995156
C            6.02860510733010        3.86810353620884       -0.55920218844881
C            4.03921572550502        1.07307235394771       -0.61986946155624
C            3.73968927764898        0.69899756638206       -1.92646946339205
C            2.42925559900799        0.58255611521590       -2.35173661729974
C            1.39051445065647        0.84445534320987       -1.47536708034004
C            1.67121386401493        1.23296301954561       -0.17597277948909
C            2.98312954134615        1.34065363172370        0.24639449857108
C            6.73107496620133       -0.31831649770619       -0.89395498512358
C            7.77246323519950       -0.21343641348247       -1.80366615088273
C            8.32745714755304       -1.34582029151657       -2.37366265442999
C            7.84714811768814       -2.59971265325693       -2.02996153339842
C            6.81809220822971       -2.72561241311562       -1.11362499779140
C            6.26112418950029       -1.58618211914875       -0.54833893161462
C            2.92463282202918       -2.15004621463320        1.00201779008242
C            1.64774605621754       -2.50644654247226        0.63168954214207
H           -0.22262061113478       -0.81151308570740        0.14920458883964
H           -2.20346103693766        0.09618033313340        1.23584914434215
H           -5.55831161531825       -3.37119607437255        2.27497561203944
H           -7.81315011070484       -4.25680084904636        1.80662894050650
H           -9.39303159408122       -2.95425085542544        0.43246515860239
H           -8.71845914577737       -0.75443540971631       -0.46611605269348
H           -8.53344292105454        1.90680054851093        1.03595507606212
H          -10.22035773749833        3.55040435845866        0.31908076065426
H           -9.99815796699290        4.67125380321393       -1.86761796191144
H           -8.08470888482146        4.13941748811076       -3.33132789704075
H           -6.40238782640237        2.49276252287465       -2.60864771864665
H           -5.24896060694658       -1.40822228129199       -1.97307203818738
H           -3.24351660594537       -1.85564843307739       -3.32309874207879
H           -1.47775587909551       -0.15221740546794       -3.51482182512585
H           -1.73447773674915        2.02079351305516       -2.35690241770493
H           -3.72198514201669        2.44825718208574       -0.97933858721673
H           -5.79273181967353        3.31989125807516        1.70955719454403
H           -4.55608357443973        3.60762160178728        3.82864721819569
H           -3.29623748891235        1.71494357188903        4.78341153341793
H           -3.29207015979065       -0.47328439861277        3.63725211173513
H           -4.40307614288802       -3.41303696950107        0.14781741587072
H           -2.39924943479557       -4.30999451127685       -0.93443629958877
H            2.18489817600978       -3.16388836035876       -2.62445174999998
H            4.45986617511582       -2.51096986997236       -1.99140957695363
H            5.22770855363366       -2.90158428761673        2.78927205776874
H            5.72049564664000       -1.82763568463266        4.95629461411449
H            6.28618191453431        0.57065092237802        5.04831195075504
H            6.35969224602915        1.89880971003872        2.96655793688329
H            8.52536596485123        2.02240901738863        0.75157440871342
H            9.66190234282488        4.20423094142437        0.65442879933181
H            8.46936569493096        6.17757505586944       -0.22335769445218
H            6.13825023786707        5.95841042865493       -1.00088131911881
H            5.00754212994324        3.77283833843576       -0.90029262617942
H            4.54690298263669        0.48516345073360       -2.61306427892518
H            2.21621016687376        0.27760604876405       -3.36593032268056
H            0.36588976296982        0.73959620995633       -1.79992808496146
H            0.86408365564594        1.44595380028753        0.51115543704697
H            3.19611415944688        1.62783910284238        1.26683117747132
H            8.14145804215373        0.76694304867427       -2.07002684434757
H            9.13403996609504       -1.25424569003536       -3.08605668533801
H            8.28166874441048       -3.48475298646251       -2.47089366916284
H            6.44554432823628       -3.70032462050198       -0.83345312494277
H            3.11405108275670       -1.85833801051873        2.02335796655556
H            0.87149951982469       -2.53311726075559        1.38220110610082

          :  Hamiltonian                  GFN2-xTB          :
         :: gradient norm              0.000074323992 Eh/a0 ::
         :: HOMO-LUMO gap              2.446125009460 eV    ::
         :: SCC energy              -169.473090797220 Eh    ::
         :: -> dispersion             -0.180023422033 Eh    ::
         :: repulsion energy           3.116090812635 Eh    ::

    * Orbital Energies and Occupations

         #    Occupation            Energy/Eh            Energy/eV
      -------------------------------------------------------------
         1        2.0000           -0.7651322             -20.8203
       ...           ...                  ...                  ...
       144        2.0000           -0.4001604             -10.8889
       145        2.0000           -0.3995216             -10.8715
       146        2.0000           -0.3957622             -10.7692
       147        2.0000           -0.3940958             -10.7239
       148        2.0000           -0.3900657             -10.6142
       149        2.0000           -0.3894719             -10.5981
       150        2.0000           -0.3888812             -10.5820
       151        2.0000           -0.3874494             -10.5430
       152        2.0000           -0.3873812             -10.5412
       153        2.0000           -0.3860289             -10.5044
       154        2.0000           -0.3627068              -9.8698
       155        2.0000           -0.3528191              -9.6007
       156        2.0000           -0.3495683              -9.5122 (HOMO)
       157                         -0.2596748              -7.0661 (LUMO)
       158                         -0.2488644              -6.7719
       159                         -0.2469655              -6.7203
       160                         -0.2431203              -6.6156
       161                         -0.2419353              -6.5834
       162                         -0.2334758              -6.3532
       163                         -0.2331665              -6.3448
       164                         -0.2307760              -6.2797
       165                         -0.2306294              -6.2757
       166                         -0.2275513              -6.1920
       167                         -0.2275444              -6.1918
       ...                                ...                  ...
       318                          0.7010031              19.0753
      -------------------------------------------------------------
                  HL-Gap            0.0898935 Eh            2.4461 eV

     #   Z          covCN         q      C6AA      α(0)
     1   8 O        0.858    -0.402    21.729     6.250
     2   6 C        2.829     0.220    23.377     7.923
     3   6 C        2.970    -0.028    28.706     8.788
     4   6 C        2.921    -0.031    28.775     8.797
     5   6 C        2.922    -0.058    29.433     8.897
     6   6 C        2.918     0.072    26.397     8.425
     7   7 N        2.757    -0.100    23.188     7.152
     8   6 C        2.973     0.058    26.696     8.475
     9   6 C        2.919    -0.041    29.018     8.834
    10   6 C        2.921    -0.029    28.729     8.790
    11   6 C        2.918    -0.034    28.841     8.807
    12   6 C        2.927    -0.030    28.751     8.793
    13   6 C        2.869    -0.112    30.839     9.103
    14  14 Si       3.674     0.499    97.359    18.907
    15   6 C        2.866    -0.096    30.421     9.041
    16   6 C        2.940    -0.031    28.781     8.799
    17   6 C        2.918    -0.029    28.729     8.790
    18   6 C        2.921    -0.027    28.687     8.783
    19   6 C        2.918    -0.029    28.721     8.788
    20   6 C        2.938    -0.033    28.814     8.804
    21   6 C        2.863    -0.093    30.331     9.027
    22   6 C        2.936    -0.028    28.707     8.787
    23   6 C        2.918    -0.026    28.646     8.777
    24   6 C        2.921    -0.025    28.620     8.773
    25   6 C        2.917    -0.029    28.724     8.789
    26   6 C        2.939    -0.032    28.790     8.800
    27   6 C        2.868    -0.113    30.858     9.106
    28   6 C        2.926    -0.030    28.742     8.792
    29   6 C        2.918    -0.035    28.865     8.810
    30   6 C        2.921    -0.030    28.738     8.791
    31   6 C        2.919    -0.041    29.023     8.834
    32   6 C        2.976     0.057    26.706     8.477
    33   6 C        2.921    -0.059    29.462     8.901
    34   6 C        2.925    -0.020    28.512     8.757
    35   6 C        2.970    -0.028    28.708     8.789
    36   6 C        2.926    -0.020    28.505     8.756
    37   6 C        2.921    -0.058    29.443     8.898
    38   6 C        2.917     0.072    26.395     8.425
    39   7 N        2.758    -0.099    23.171     7.149
    40   6 C        2.975     0.058    26.703     8.476
    41   6 C        2.919    -0.041    29.017     8.833
    42   6 C        2.921    -0.029    28.735     8.791
    43   6 C        2.918    -0.034    28.852     8.808
    44   6 C        2.926    -0.030    28.751     8.793
    45   6 C        2.869    -0.112    30.842     9.104
    46  14 Si       3.676     0.499    97.345    18.905
    47   6 C        2.866    -0.096    30.414     9.040
    48   6 C        2.939    -0.031    28.778     8.798
    49   6 C        2.918    -0.029    28.727     8.789
    50   6 C        2.921    -0.027    28.683     8.783
    51   6 C        2.918    -0.029    28.719     8.788
    52   6 C        2.939    -0.032    28.810     8.803
    53   6 C        2.863    -0.093    30.331     9.027
    54   6 C        2.937    -0.029    28.729     8.791
    55   6 C        2.918    -0.027    28.670     8.780
    56   6 C        2.921    -0.027    28.679     8.782
    57   6 C        2.918    -0.028    28.705     8.786
    58   6 C        2.937    -0.031    28.768     8.796
    59   6 C        2.869    -0.113    30.854     9.105
    60   6 C        2.926    -0.030    28.751     8.793
    61   6 C        2.918    -0.034    28.850     8.808
    62   6 C        2.921    -0.029    28.722     8.789
    63   6 C        2.919    -0.040    29.006     8.832
    64   6 C        2.977     0.058    26.702     8.476
    65   6 C        2.922    -0.060    29.484     8.904
    66   6 C        2.921    -0.029    28.730     8.790
    67   1 H        0.926     0.036     2.496     2.471
    68   1 H        0.926     0.024     2.673     2.557
    69   1 H        0.926     0.038     2.476     2.461
    70   1 H        0.926     0.035     2.521     2.483
    71   1 H        0.926     0.033     2.547     2.496
    72   1 H        0.926     0.027     2.630     2.536
    73   1 H        0.926     0.023     2.689     2.564
    74   1 H        0.926     0.030     2.592     2.518
    75   1 H        0.926     0.030     2.580     2.512
    76   1 H        0.926     0.030     2.590     2.517
    77   1 H        0.926     0.021     2.715     2.577
    78   1 H        0.926     0.020     2.729     2.583
    79   1 H        0.926     0.037     2.485     2.465
    80   1 H        0.926     0.032     2.565     2.504
    81   1 H        0.925     0.028     2.621     2.532
    82   1 H        0.925     0.019     2.755     2.596
    83   1 H        0.926     0.026     2.643     2.542
    84   1 H        0.926     0.032     2.561     2.503
    85   1 H        0.926     0.033     2.537     2.491
    86   1 H        0.926     0.036     2.508     2.476
    87   1 H        0.926     0.032     2.558     2.501
    88   1 H        0.926     0.051     2.306     2.375
    89   1 H        0.926     0.051     2.306     2.375
    90   1 H        0.926     0.030     2.588     2.516
    91   1 H        0.926     0.038     2.476     2.461
    92   1 H        0.926     0.034     2.526     2.485
    93   1 H        0.926     0.032     2.554     2.499
    94   1 H        0.926     0.026     2.638     2.540
    95   1 H        0.926     0.023     2.682     2.561
    96   1 H        0.926     0.030     2.586     2.515
    97   1 H        0.926     0.031     2.575     2.509
    98   1 H        0.926     0.030     2.589     2.516
    99   1 H        0.926     0.020     2.728     2.583
   100   1 H        0.926     0.021     2.723     2.581
   101   1 H        0.926     0.031     2.572     2.508
   102   1 H        0.926     0.035     2.518     2.481
   103   1 H        0.926     0.027     2.626     2.534
   104   1 H        0.925     0.019     2.742     2.590
   105   1 H        0.926     0.026     2.637     2.539
   106   1 H        0.926     0.033     2.549     2.497
   107   1 H        0.926     0.035     2.512     2.479
   108   1 H        0.926     0.038     2.471     2.458
   109   1 H        0.926     0.028     2.608     2.526
   110   1 H        0.926     0.034     2.533     2.489

molecular dipole:
                 x           y           z       tot (Debye)
 q only:        0.135       1.756       0.975
   full:        0.195       1.712       1.197       5.334

 projected vibrational frequencies (cm⁻¹)
eigval :       -0.00    -0.00    -0.00     0.00     0.00     0.00
eigval :        7.99     8.49    11.42    19.12    22.93    23.28
eigval :       24.10    26.58    28.79    33.07    34.79    40.15
eigval :       42.78    44.63    46.15    53.10    55.71    57.28
eigval :       60.59    61.91    67.56    72.72    91.28    91.73
eigval :      119.30   124.38   132.13   136.89   139.46   150.54
eigval :      160.48   163.01   167.47   171.21   173.90   183.56
eigval :      193.25   198.64   201.07   202.97   211.45   215.38
eigval :      223.50   241.79   251.14   255.94   271.09   277.35
eigval :      305.88   310.52   321.75   326.62   353.14   356.72
eigval :      358.79   359.00   359.30   360.86   365.55   376.09
eigval :      384.31   393.56   405.50   406.67   409.51   412.15
eigval :      416.43   418.61   428.09   428.35   443.95   446.94
eigval :      452.72   453.73   464.67   468.02   481.88   483.21
eigval :      499.25   499.43   513.19   518.14   525.30   525.81
eigval :      556.31   588.90   589.27   589.64   589.72   589.83
eigval :      591.76   600.48   608.86   615.04   636.47   641.34
eigval :      657.15   660.30   662.22   662.27   663.10   666.42
eigval :      675.18   675.73   678.59   693.27   699.39   700.09
eigval :      701.57   703.25   708.96   717.87   721.38   727.59
eigval :      731.69   735.49   735.50   736.99   740.65   757.91
eigval :      776.60   776.92   781.83   783.64   810.15   815.32
eigval :      856.60   861.09   880.87   881.43   883.01   883.12
eigval :      886.09   888.95   890.79   891.67   893.67   905.31
eigval :      905.63   906.55   906.83   908.83   908.95   911.04
eigval :      914.20   916.91   917.95   919.02   921.75   923.47
eigval :      925.20   929.62   930.36   931.01   931.62   932.13
eigval :      932.44   932.57   934.03   934.85   935.38   935.39
eigval :      939.35   949.03   955.10   975.75   975.97   979.32
eigval :      979.33  1010.50  1031.43  1065.41  1065.60  1074.10
eigval :     1074.30  1084.60  1084.70  1085.62  1086.45  1088.28
eigval :     1088.35  1089.68  1090.02  1120.99  1121.08  1121.83
eigval :     1123.65  1147.17  1147.46  1150.05  1152.66  1159.22
eigval :     1159.40  1161.33  1161.56  1165.99  1166.12  1178.90
eigval :     1179.51  1180.06  1181.67  1181.69  1182.76  1182.83
eigval :     1183.45  1188.28  1196.06  1205.49  1205.69  1207.10
eigval :     1208.34  1209.07  1210.02  1226.02  1241.43  1241.54
eigval :     1248.65  1249.79  1268.42  1270.86  1278.13  1286.87
eigval :     1287.24  1287.38  1288.73  1289.07  1290.15  1309.92
eigval :     1310.29  1312.55  1312.95  1313.58  1313.91  1314.44
eigval :     1314.52  1332.43  1338.82  1340.46  1344.62  1416.67
eigval :     1418.25  1420.65  1421.38  1421.64  1422.32  1426.97
eigval :     1427.32  1433.81  1434.32  1434.94  1435.13  1452.90
eigval :     1453.90  1464.81  1465.14  1466.61  1466.69  1492.46
eigval :     1494.88  1551.01  1552.80  1566.07  1566.13  1570.15
eigval :     1570.30  1577.12  1577.71  1578.59  1578.70  1583.13
eigval :     1583.18  1583.87  1586.30  1594.34  1594.51  1594.66
eigval :     1595.24  1595.89  1597.49  1662.77  3056.83  3059.85
eigval :     3063.35  3063.87  3064.23  3066.24  3066.89  3067.27
eigval :     3067.42  3067.81  3068.18  3068.50  3069.44  3071.66
eigval :     3073.03  3073.05  3073.40  3074.22  3074.71  3075.61
eigval :     3078.99  3079.05  3079.10  3080.10  3080.50  3081.42
eigval :     3082.04  3082.81  3083.23  3087.40  3087.68  3087.84
eigval :     3088.28  3088.62  3090.41  3090.87  3091.76  3092.19
eigval :     3093.13  3095.39  3099.79  3101.17  3102.32  3103.11

   temp. (K)  partition function   enthalpy   heat capacity  entropy
                                   cal/mol     cal/K/mol   cal/K/mol   J/K/mol
 298.15  VIB  0.302E+29            33766.302    202.772    214.401
         ROT  0.201E+09              888.752      2.981     40.973
         INT  0.607E+37            34655.055    205.753    255.374
         TR   0.251E+29             1481.254      4.968     46.170
         TOT                       36136.3086   210.7209   301.5442  1261.6608

       T/K    H(0)-H(T)+PV         H(T)/Eh          T*S/Eh         G(T)/Eh
   ------------------------------------------------------------------------
    298.15    0.575869E-01    0.901141E+00    0.143273E+00    0.757867E+00
   ------------------------------------------------------------------------

         :::::::::::::::::::::::::::::::::::::::::::::::::::::
         ::                  THERMODYNAMIC                  ::
         :::::::::::::::::::::::::::::::::::::::::::::::::::::
         :: total free energy        -165.599132803013 Eh   ::
         ::.................................................::
         :: total energy             -166.356999984583 Eh   ::
         :: zero point energy           0.843553668348 Eh   ::
         :: G(RRHO) w/o ZPVE           -0.085686486778 Eh   ::
         :: G(RRHO) contrib.            0.757867181570 Eh   ::
         :::::::::::::::::::::::::::::::::::::::::::::::::::::

           -------------------------------------------------
          | TOTAL ENERGY             -166.356999984583 Eh   |
          | TOTAL ENTHALPY           -165.455859442848 Eh   |
          | TOTAL FREE ENERGY        -165.599132803013 Eh   |
          | GRADIENT NORM               0.000074354933 Eh/α |
          | HOMO-LUMO GAP               2.446127754124 eV   |
           -------------------------------------------------

 * finished run on 2025/09/12 at 16:49:00.346
