   * xtb version 6.7.1 (edcfbbe) compiled by 'albert@albert-system' on 2024-07-22

   ID    Z sym.   atoms
    1    8 O      1
    2    6 C      2-6, 8-13, 15-38, 40-45, 47-66
    3    7 N      7, 39
    4   14 Si     14, 46
    5    1 H      67-110

          program call               : xtb data2507/gas/BDAPM/BDAPM.xyz --gfn 2 --ohess vtight --parallel 40 --molden --ceasefiles --namespace data2507/gas/BDAPM/BDAPM_gas_S0_preOpt
          :  Hamiltonian                  GFN2-xTB          :
 * total energy  :  -166.2990061 Eh     change       -0.1201897E-08 Eh
 * total energy  :  -166.3271776 Eh     change       -0.2817144E-01 Eh
 * total energy  :  -166.3375043 Eh     change       -0.1032674E-01 Eh
 * total energy  :  -166.3410631 Eh     change       -0.3558817E-02 Eh
 * total energy  :  -166.3428537 Eh     change       -0.1790605E-02 Eh
 * total energy  :  -166.3435870 Eh     change       -0.7332704E-03 Eh
 * total energy  :  -166.3438768 Eh     change       -0.2897933E-03 Eh
 * total energy  :  -166.3440662 Eh     change       -0.1893714E-03 Eh
 * total energy  :  -166.3442385 Eh     change       -0.1723174E-03 Eh
 * total energy  :  -166.3443987 Eh     change       -0.1602660E-03 Eh
 * total energy  :  -166.3449974 Eh     change       -0.4934432E-06 Eh
 * total energy  :  -166.3449978 Eh     change       -0.4836301E-06 Eh
 * total energy  :  -166.3449983 Eh     change       -0.4354350E-06 Eh
 * total energy  :  -166.3449988 Eh     change       -0.4774841E-06 Eh
 * total energy  :  -166.3449994 Eh     change       -0.6409647E-06 Eh
 * total energy  :  -166.3450002 Eh     change       -0.7953010E-06 Eh
 * total energy  :  -166.3450008 Eh     change       -0.6374560E-06 Eh
 * total energy  :  -166.3450013 Eh     change       -0.4392907E-06 Eh
 * total energy  :  -166.3450013 Eh     change       -0.8067047E-08 Eh
   *** GEOMETRY OPTIMIZATION CONVERGED AFTER 68 ITERATIONS ***

 final structure:
================
110
 xtb: 6.7.1 (edcfbbe)
O            0.03620992959933       -4.84042168672491        0.14772529161353
C            0.01740047200228       -3.62768393556161        0.09610864179789
C           -1.26050181206288       -2.87036650675746        0.08281325190452
C           -1.38416346589773       -1.61979725727670        0.68595783785054
C           -2.60184697458796       -0.96784307418449        0.68663294481161
C           -3.70746955034225       -1.55249520488397        0.07685131308226
N           -4.96219277532686       -0.87148491314462        0.06693038491593
C           -5.83120593297187       -1.18908958556818        1.10900510218828
C           -5.39306103282347       -2.09136777274014        2.09052083942963
C           -6.20279183584129       -2.45422524167940        3.14517975841417
C           -7.47977981265355       -1.92989327562428        3.26434253603911
C           -7.91517040616974       -1.03665936858217        2.30862233118767
C           -7.11937452138052       -0.65233243052135        1.23465093874364
Si          -7.78714610807989        0.58877189925081        0.00219614963731
C           -8.25715595012042        2.21252062618219        0.85840237949215
C           -7.74307966018965        2.54037359038423        2.10936325853686
C           -8.08656042213834        3.72552675174854        2.73423879368962
C           -8.95297922550237        4.60973353876170        2.11378719315716
C           -9.47317733425737        4.30044273968535        0.86813094323486
C           -9.12696117045010        3.11282142588465        0.25002516307901
C           -9.30367862429705       -0.05859454406424       -0.93255005941625
C          -10.58013578893221        0.06462922057795       -0.39123726589107
C          -11.69082784758685       -0.40856897807543       -1.06550534631362
C          -11.54345813730663       -1.01649457632077       -2.30111279835101
C          -10.28122534794110       -1.14713522601267       -2.85525962516768
C           -9.17444707153985       -0.67303930783057       -2.17452654838791
C           -6.32492169404383        0.77798565985353       -1.15203643286036
C           -6.41607945814508        1.66103444076131       -2.22248075959427
C           -5.39458490432228        1.81958376579343       -3.13492837014495
C           -4.24466304383275        1.06319997087061       -2.97632756407966
C           -4.12612824393448        0.18324213954334       -1.92217371703730
C           -5.15524204895404        0.02538711589548       -0.98088203273904
C           -3.59207755576165       -2.80488698690661       -0.51743638897253
C           -2.37873757051477       -3.46231950317686       -0.50225652992019
C            1.27153451824072       -2.83290310548474        0.04348854384544
C            1.36087778645183       -1.64144907878025       -0.67492222456813
C            2.55789050895582       -0.95507606079468       -0.73270513088961
C            3.67678906213402       -1.44467688399867       -0.06495620333662
N            4.91422303785976       -0.73400638100345       -0.11067773671205
C            5.10629922447962        0.21288489677760        0.89244980423900
C            4.04933427212500        0.46916935730017        1.77929659225121
C            4.16717933680336        1.40165970218346        2.78738563326968
C            5.34314014601780        2.11580707811424        2.95051258194358
C            6.39010637089484        1.86357564001695        2.08941630039249
C            6.30004221457880        0.92626375938391        1.06617162483735
Si           7.78479896749480        0.61941239830234       -0.03297328956575
C            9.20039638674595       -0.22792831184279        0.90231622104763
C            9.38467598746800       -1.60556156412027        0.83185648540525
C           10.41632509269815       -2.22394779965623        1.51493742505809
C           11.28504267492080       -1.47099058132049        2.28671750048665
C           11.11616979418088       -0.09881375938746        2.36932551144700
C           10.08352080460138        0.51297674470594        1.68274233312142
C            8.43765087717357        2.22851813207717       -0.78784268562893
C            9.75388455419025        2.32357159364216       -1.22965607288971
C           10.23726810299476        3.49302458135015       -1.78755551504714
C            9.40744892504879        4.59459266296870       -1.91304404778007
C            8.09485329758503        4.51791603788858       -1.47848489227523
C            7.61749866606086        3.34455674592711       -0.92326241740025
C            7.05503785771625       -0.53860832821321       -1.31018934172420
C            7.82370554426502       -0.91420433611393       -2.40657679309882
C            7.36533652576274       -1.80373532257041       -3.35518550116839
C            6.09650044461492       -2.33864094223326       -3.20086031619286
C            5.30998976038104       -1.97696188709498       -2.12821922159443
C            5.76512404011654       -1.06558065267030       -1.16324301832729
C            3.59517919238705       -2.63699592834092        0.64545978566792
C            2.40267507963675       -3.33120181922169        0.68705341719469
H           -0.53382164439548       -1.16990990595547        1.17664751608035
H           -2.70905272754644       -0.00190470030806        1.15728036971440
H           -4.40410911272783       -2.51938076383326        2.03648627611703
H           -5.82948378619424       -3.15235809446267        3.88016006726506
H           -8.11650366137619       -2.21280793876462        4.08865396678656
H           -8.90508451765391       -0.61055115145122        2.38477877128628
H           -7.07060318211477        1.85054386356140        2.60007495513190
H           -7.67992409472862        3.96098574564259        3.70760624286366
H           -9.22387628551961        5.53581077959237        2.60011556887745
H          -10.15157000390995        4.98607714654282        0.38036465907151
H           -9.54450799107837        2.87329847994473       -0.71807811644216
H          -10.70354483350221        0.54632590455479        0.56875350976864
H          -12.67402830307342       -0.30219542751628       -0.62937279399076
H          -12.40988384675270       -1.38520881727786       -2.83107298711226
H          -10.16113101101855       -1.61845742719604       -3.82047640135939
H           -8.19147630435141       -0.77221564795609       -2.61373735328463
H           -7.32603240411520        2.23305669633741       -2.33212304810725
H           -5.48934528829138        2.51158768828172       -3.95777406546256
H           -3.43005636307240        1.15635613801730       -3.67992359643643
H           -3.21660922271575       -0.39115500473561       -1.83677166526331
H           -4.45918861606106       -3.25333635167758       -0.97848881737818
H           -2.27325442297287       -4.43961014799976       -0.94870230690707
H            0.50019940173743       -1.26624402180418       -1.20860099557215
H            2.63915235929107       -0.03622977498734       -1.29424225844006
H            3.11691821052184       -0.06572665329959        1.68465162507311
H            3.33048054530423        1.57167642735293        3.44944120322611
H            5.43730795657166        2.84911365119881        3.73686747518847
H            7.31806536688937        2.40542892264375        2.20150037743963
H            8.71242188502751       -2.19678262359402        0.22553173952193
H           10.54540176597176       -3.29476115409711        1.44495450329540
H           12.09246736624488       -1.95127734901446        2.82046633524880
H           11.79278049210729        0.49376022137591        2.96870398993214
H            9.96260669085657        1.58544128663713        1.74500203140755
H           10.40950290532361        1.47002196295084       -1.12649957992568
H           11.26305364738992        3.54794488887300       -2.12369180890684
H            9.78323079496303        5.51026567280211       -2.34646904747395
H            7.44386508373747        5.37560052816307       -1.57241454613215
H            6.59334232253269        3.29070422564807       -0.58125261941271
H            8.81291713160941       -0.49010484148604       -2.50190211358149
H            7.98164626214422       -2.08239173422733       -4.19629780642996
H            5.71110610471152       -3.04403628650542       -3.92258403514488
H            4.32727443321006       -2.41468809542029       -2.04557120151731
H            4.47151316663474       -3.01097777951500        1.15309728723670
H            2.32454960211667       -4.26488663442812        1.22336272784148

          :  Hamiltonian                  GFN2-xTB          :
         :: gradient norm              0.000059643425 Eh/a0 ::
         :: HOMO-LUMO gap              1.505445104499 eV    ::
         :: SCC energy              -169.456722404624 Eh    ::
         :: -> dispersion             -0.162256878542 Eh    ::
         :: repulsion energy           3.111721128913 Eh    ::

    * Orbital Energies and Occupations

         #    Occupation            Energy/Eh            Energy/eV
      -------------------------------------------------------------
         1        2.0000           -0.7550083             -20.5448
       ...           ...                  ...                  ...
       144        2.0000           -0.4003467             -10.8940
       145        2.0000           -0.4002755             -10.8921
       146        2.0000           -0.3998291             -10.8799
       147        2.0000           -0.3992657             -10.8646
       148        2.0000           -0.3990492             -10.8587
       149        2.0000           -0.3866490             -10.5213
       150        2.0000           -0.3865908             -10.5197
       151        2.0000           -0.3837215             -10.4416
       152        2.0000           -0.3836770             -10.4404
       153        2.0000           -0.3784549             -10.2983
       154        2.0000           -0.3782902             -10.2938
       155        2.0000           -0.3529694              -9.6048
       156        2.0000           -0.3528086              -9.6004 (HOMO)
       157                         -0.2974843              -8.0950 (LUMO)
       158                         -0.2519861              -6.8569
       159                         -0.2496020              -6.7920
       160                         -0.2467677              -6.7149
       161                         -0.2424925              -6.5986
       162                         -0.2424139              -6.5964
       163                         -0.2380938              -6.4789
       164                         -0.2376826              -6.4677
       165                         -0.2306523              -6.2764
       166                         -0.2306489              -6.2763
       167                         -0.2259028              -6.1471
       ...                                ...                  ...
       318                          0.6806051              18.5202
      -------------------------------------------------------------
                  HL-Gap            0.0553243 Eh            1.5055 eV

     #   Z          covCN         q      C6AA      α(0)
     1   8 O        0.858    -0.363    20.948     6.136
     2   6 C        2.828     0.227    23.236     7.899
     3   6 C        2.972    -0.013    28.342     8.732
     4   6 C        2.920    -0.026    28.662     8.779
     5   6 C        2.920    -0.037    28.920     8.819
     6   6 C        2.941     0.081    26.187     8.393
     7   7 N        2.750    -0.080    22.786     7.090
     8   6 C        2.933     0.059    26.677     8.471
     9   6 C        2.925    -0.057    29.419     8.895
    10   6 C        2.921    -0.029    28.718     8.788
    11   6 C        2.915    -0.041    29.029     8.835
    12   6 C        2.947    -0.032    28.799     8.802
    13   6 C        2.868    -0.122    31.089     9.140
    14  14 Si       3.639     0.485    97.998    18.986
    15   6 C        2.863    -0.093    30.326     9.027
    16   6 C        2.937    -0.031    28.766     8.796
    17   6 C        2.917    -0.029    28.730     8.790
    18   6 C        2.921    -0.028    28.702     8.786
    19   6 C        2.917    -0.029    28.736     8.791
    20   6 C        2.937    -0.030    28.745     8.793
    21   6 C        2.863    -0.093    30.319     9.026
    22   6 C        2.937    -0.030    28.737     8.792
    23   6 C        2.917    -0.029    28.733     8.790
    24   6 C        2.921    -0.028    28.700     8.785
    25   6 C        2.917    -0.029    28.727     8.789
    26   6 C        2.937    -0.031    28.764     8.796
    27   6 C        2.869    -0.122    31.091     9.140
    28   6 C        2.947    -0.032    28.799     8.802
    29   6 C        2.915    -0.042    29.038     8.836
    30   6 C        2.921    -0.029    28.731     8.790
    31   6 C        2.925    -0.058    29.430     8.896
    32   6 C        2.933     0.059    26.675     8.470
    33   6 C        2.919    -0.036    28.898     8.815
    34   6 C        2.924    -0.017    28.442     8.746
    35   6 C        2.972    -0.013    28.338     8.732
    36   6 C        2.920    -0.027    28.669     8.780
    37   6 C        2.919    -0.037    28.915     8.818
    38   6 C        2.940     0.081    26.188     8.393
    39   7 N        2.750    -0.080    22.799     7.092
    40   6 C        2.934     0.059    26.676     8.470
    41   6 C        2.925    -0.057    29.426     8.896
    42   6 C        2.921    -0.029    28.730     8.790
    43   6 C        2.915    -0.042    29.039     8.837
    44   6 C        2.946    -0.032    28.793     8.801
    45   6 C        2.868    -0.122    31.086     9.139
    46  14 Si       3.639     0.485    97.998    18.986
    47   6 C        2.862    -0.092    30.315     9.025
    48   6 C        2.936    -0.031    28.765     8.796
    49   6 C        2.917    -0.029    28.728     8.789
    50   6 C        2.921    -0.028    28.701     8.785
    51   6 C        2.917    -0.029    28.733     8.790
    52   6 C        2.937    -0.029    28.733     8.791
    53   6 C        2.863    -0.093    30.333     9.028
    54   6 C        2.938    -0.030    28.757     8.795
    55   6 C        2.917    -0.030    28.737     8.791
    56   6 C        2.921    -0.028    28.702     8.786
    57   6 C        2.917    -0.029    28.731     8.790
    58   6 C        2.937    -0.031    28.766     8.796
    59   6 C        2.869    -0.122    31.090     9.140
    60   6 C        2.946    -0.032    28.804     8.803
    61   6 C        2.915    -0.041    29.029     8.835
    62   6 C        2.921    -0.029    28.719     8.788
    63   6 C        2.925    -0.057    29.420     8.895
    64   6 C        2.934     0.059    26.678     8.471
    65   6 C        2.919    -0.036    28.899     8.816
    66   6 C        2.924    -0.017    28.437     8.745
    67   1 H        0.926     0.043     2.407     2.426
    68   1 H        0.926     0.049     2.338     2.391
    69   1 H        0.926     0.023     2.689     2.564
    70   1 H        0.926     0.029     2.605     2.524
    71   1 H        0.926     0.027     2.632     2.537
    72   1 H        0.926     0.019     2.750     2.593
    73   1 H        0.926     0.020     2.729     2.583
    74   1 H        0.926     0.027     2.629     2.535
    75   1 H        0.926     0.028     2.614     2.528
    76   1 H        0.926     0.027     2.628     2.535
    77   1 H        0.926     0.018     2.763     2.599
    78   1 H        0.926     0.018     2.762     2.599
    79   1 H        0.926     0.027     2.626     2.534
    80   1 H        0.926     0.028     2.612     2.527
    81   1 H        0.926     0.027     2.626     2.534
    82   1 H        0.926     0.020     2.735     2.586
    83   1 H        0.926     0.019     2.744     2.591
    84   1 H        0.926     0.026     2.637     2.539
    85   1 H        0.926     0.027     2.631     2.537
    86   1 H        0.926     0.020     2.738     2.588
    87   1 H        0.926     0.051     2.309     2.376
    88   1 H        0.926     0.063     2.167     2.302
    89   1 H        0.926     0.043     2.407     2.426
    90   1 H        0.926     0.049     2.333     2.389
    91   1 H        0.926     0.020     2.739     2.588
    92   1 H        0.926     0.027     2.631     2.536
    93   1 H        0.926     0.027     2.636     2.539
    94   1 H        0.926     0.019     2.747     2.592
    95   1 H        0.925     0.020     2.736     2.587
    96   1 H        0.926     0.027     2.624     2.533
    97   1 H        0.926     0.028     2.611     2.527
    98   1 H        0.926     0.027     2.625     2.534
    99   1 H        0.926     0.018     2.758     2.597
   100   1 H        0.925     0.018     2.763     2.599
   101   1 H        0.926     0.027     2.629     2.536
   102   1 H        0.926     0.028     2.615     2.529
   103   1 H        0.926     0.027     2.629     2.535
   104   1 H        0.926     0.021     2.721     2.580
   105   1 H        0.926     0.019     2.744     2.590
   106   1 H        0.926     0.027     2.634     2.538
   107   1 H        0.926     0.028     2.608     2.525
   108   1 H        0.926     0.023     2.693     2.566
   109   1 H        0.926     0.051     2.313     2.378
   110   1 H        0.926     0.063     2.169     2.303

molecular dipole:
                 x           y           z       tot (Debye)
 q only:       -0.017       0.714      -0.015
   full:       -0.019       0.853      -0.020       2.169

 projected vibrational frequencies (cm⁻¹)
eigval :       -0.00    -0.00    -0.00     0.00     0.00     0.00
eigval :        1.60     2.40     4.07     4.98     9.84    20.64
eigval :       22.11    22.57    27.85    28.91    31.48    33.06
eigval :       33.96    38.19    40.01    41.71    46.74    47.44
eigval :       48.48    51.66    55.50    58.44    70.48   100.51
eigval :      103.54   114.25   117.75   133.40   139.58   145.12
eigval :      164.56   165.15   166.41   167.99   182.46   183.34
eigval :      186.13   187.83   203.48   206.42   220.79   220.97
eigval :      226.93   227.38   233.29   244.63   260.90   280.31
eigval :      310.18   312.93   349.34   350.12   357.78   357.92
eigval :      361.09   361.23   364.14   365.14   368.90   377.37
eigval :      385.86   386.21   403.10   406.86   408.34   409.16
eigval :      410.11   414.82   421.77   426.47   431.89   438.67
eigval :      464.38   465.15   468.79   470.39   479.46   479.62
eigval :      499.71   502.50   509.39   509.66   516.58   519.26
eigval :      563.12   588.72   589.46   589.51   589.59   590.29
eigval :      594.65   602.08   611.55   621.40   640.33   648.17
eigval :      660.05   662.39   662.60   663.01   663.18   664.24
eigval :      664.37   664.52   664.70   674.66   691.08   693.73
eigval :      704.45   705.14   711.14   716.22   728.64   734.29
eigval :      734.65   735.66   736.81   742.74   749.48   763.70
eigval :      764.48   764.68   767.80   767.83   820.72   826.59
eigval :      863.03   863.36   865.17   865.28   872.52   876.27
eigval :      881.74   881.86   883.01   883.09   886.46   904.89
eigval :      905.13   906.37   906.40   910.75   911.26   911.40
eigval :      911.44   913.60   913.87   916.00   919.26   922.23
eigval :      922.30   922.94   923.26   923.45   927.95   931.18
eigval :      931.25   932.47   932.50   933.86   934.49   934.50
eigval :      935.10   935.18   953.26   976.00   976.04   977.25
eigval :      977.36  1013.06  1027.91  1082.78  1082.87  1085.76
eigval :     1085.79  1086.46  1086.54  1087.14  1087.27  1111.25
eigval :     1111.45  1114.54  1114.77  1121.78  1121.89  1122.44
eigval :     1122.54  1127.10  1128.13  1147.39  1147.82  1151.25
eigval :     1151.78  1170.40  1172.36  1173.09  1173.16  1173.24
eigval :     1178.21  1182.18  1182.93  1182.95  1183.00  1183.01
eigval :     1194.47  1194.73  1195.81  1196.44  1201.45  1207.22
eigval :     1207.36  1208.33  1209.36  1212.45  1251.15  1257.59
eigval :     1259.59  1262.45  1262.56  1264.07  1267.33  1287.81
eigval :     1287.93  1289.44  1289.53  1294.10  1295.49  1307.35
eigval :     1308.81  1308.92  1310.99  1311.61  1311.66  1312.78
eigval :     1312.87  1327.47  1327.67  1337.67  1337.98  1398.68
eigval :     1400.33  1419.50  1419.51  1419.76  1420.11  1421.83
eigval :     1421.90  1426.21  1426.49  1450.96  1451.29  1465.00
eigval :     1465.27  1466.20  1466.25  1466.78  1467.08  1477.55
eigval :     1478.53  1558.27  1558.42  1558.89  1560.39  1567.04
eigval :     1567.33  1576.77  1576.80  1577.59  1577.68  1585.04
eigval :     1586.87  1591.75  1591.89  1594.10  1594.18  1594.67
eigval :     1594.77  1596.68  1596.78  1698.10  3060.91  3061.07
eigval :     3061.85  3062.04  3062.15  3062.32  3062.36  3062.65
eigval :     3069.72  3069.74  3069.82  3069.85  3071.03  3071.56
eigval :     3071.59  3071.91  3074.22  3074.25  3075.48  3075.54
eigval :     3075.90  3076.02  3076.15  3076.51  3082.14  3084.32
eigval :     3085.12  3085.12  3085.68  3085.70  3090.71  3090.96
eigval :     3091.18  3091.27  3091.69  3091.84  3095.23  3096.07
eigval :     3098.49  3098.63  3100.71  3100.85  3101.49  3101.62

   temp. (K)  partition function   enthalpy   heat capacity  entropy
                                   cal/mol     cal/K/mol   cal/K/mol   J/K/mol
 298.15  VIB  0.227E+33            34081.776    200.746    222.425
         ROT  0.306E+09              888.752      2.981     41.811
         INT  0.695E+41            34970.529    203.726    264.235
         TR   0.251E+29             1481.254      4.968     46.170
         TOT                       36451.7826   208.6946   310.4052  1298.7353

       T/K    H(0)-H(T)+PV         H(T)/Eh          T*S/Eh         G(T)/Eh
   ------------------------------------------------------------------------
    298.15    0.580896E-01    0.901034E+00    0.147484E+00    0.753551E+00
   ------------------------------------------------------------------------

         :::::::::::::::::::::::::::::::::::::::::::::::::::::
         ::                  THERMODYNAMIC                  ::
         :::::::::::::::::::::::::::::::::::::::::::::::::::::
         :: total free energy        -165.591450551433 Eh   ::
         ::.................................................::
         :: total energy             -166.345001275700 Eh   ::
         :: zero point energy           0.842944629643 Eh   ::
         :: G(RRHO) w/o ZPVE           -0.089393905375 Eh   ::
         :: G(RRHO) contrib.            0.753550724268 Eh   ::
         :::::::::::::::::::::::::::::::::::::::::::::::::::::

           -------------------------------------------------
          | TOTAL ENERGY             -166.345001275700 Eh   |
          | TOTAL ENTHALPY           -165.443967032899 Eh   |
          | TOTAL FREE ENERGY        -165.591450551433 Eh   |
          | GRADIENT NORM               0.000059652583 Eh/α |
          | HOMO-LUMO GAP               1.505451107282 eV   |
           -------------------------------------------------

 * finished run on 2025/09/12 at 16:39:48.152
