   * xtb version 6.7.1 (edcfbbe) compiled by 'albert@albert-system' on 2024-07-22

   ID    Z sym.   atoms
    1    8 O      1
    2    6 C      2-6, 8-13, 15-38, 40-45, 47-66
    3    7 N      7, 39
    4   14 Si     14, 46
    5    1 H      67-110

          program call               : xtb data2507/gas/BDAPM/BDAPM_gas_T1_crest.xyz --gfn 2 --spinpol --tblite --uhf 2 --ohess vtight --parallel 40 --molden --ceasefiles --namespace data2507/gas/BDAPM/BDAPM_gas_T1_finalOpt
 * total energy  :  -166.2689516 Eh     change        0.2263505E-08 Eh
 * total energy  :  -166.2690518 Eh     change       -0.1001968E-03 Eh
 * total energy  :  -166.2690962 Eh     change       -0.4436233E-04 Eh
 * total energy  :  -166.2691010 Eh     change       -0.4864140E-05 Eh
 * total energy  :  -166.2691049 Eh     change       -0.3842523E-05 Eh
 * total energy  :  -166.2691077 Eh     change       -0.2837875E-05 Eh
 * total energy  :  -166.2691098 Eh     change       -0.2117909E-05 Eh
 * total energy  :  -166.2691112 Eh     change       -0.1364297E-05 Eh
 * total energy  :  -166.2691125 Eh     change       -0.1341657E-05 Eh
 * total energy  :  -166.2691135 Eh     change       -0.9672756E-06 Eh
 * total energy  :  -166.2691162 Eh     change       -0.6128648E-06 Eh
 * total energy  :  -166.2691168 Eh     change       -0.5951326E-06 Eh
 * total energy  :  -166.2691175 Eh     change       -0.6925789E-06 Eh
 * total energy  :  -166.2691181 Eh     change       -0.5871593E-06 Eh
 * total energy  :  -166.2691188 Eh     change       -0.6559214E-06 Eh
 * total energy  :  -166.2691192 Eh     change       -0.4869229E-06 Eh
 * total energy  :  -166.2691196 Eh     change       -0.3510881E-06 Eh
 * total energy  :  -166.2691200 Eh     change       -0.4166101E-06 Eh
 * total energy  :  -166.2691200 Eh     change       -0.2778904E-08 Eh
   *** GEOMETRY OPTIMIZATION CONVERGED AFTER 22 ITERATIONS ***

 final structure:
================
110
 xtb: 6.7.1 (edcfbbe)
O           -0.06705798715360       -4.14216585347731       -1.95597709531388
C            0.04990857595884       -3.30742535556606       -1.00596416570087
C           -1.10729984219780       -2.77769738748486       -0.32946230141457
C           -1.10168705764976       -1.57338711438892        0.40269329198562
C           -2.25478571285375       -1.06566739613771        0.94036985347232
C           -3.48596258123428       -1.72906371210927        0.78953182735666
N           -4.65179598503372       -1.16047728161255        1.27094877606265
C           -5.92601599397522       -1.65662744139266        0.91812080024313
C           -6.32580020763083       -2.92569370026377        1.32081353724467
C           -7.58663399959825       -3.38411044453704        0.98522615798810
C           -8.45393306619668       -2.57987555614340        0.26109994843733
C           -8.05833767405182       -1.31068061220963       -0.12317661583585
C           -6.79443624283494       -0.83613599883716        0.19159676493409
Si          -6.06751186255841        0.86156088907799       -0.19070402790351
C           -7.31286898817600        2.16301139051237       -0.73107002511255
C           -8.42234033163876        2.45057149791170        0.05790527189748
C           -9.33916311928815        3.41046262600849       -0.32944169579449
C           -9.15843781903585        4.10030158454316       -1.51708561638143
C           -8.05873923511478        3.82470625535981       -2.31237008903198
C           -7.14503151728945        2.86312342956840       -1.91997995510798
C           -4.58261429557963        0.63136550913373       -1.34521970769852
C           -4.40544268975946       -0.54108005858586       -2.07383280723785
C           -3.24862483363561       -0.76302996803417       -2.79813823591743
C           -2.24870753273551        0.19369795611996       -2.81442974700392
C           -2.41593543293533        1.37525733385511       -2.11098362355379
C           -3.56959739790236        1.58599922553201       -1.37888285519521
C           -5.31993188027075        1.15578366219162        1.51971341845561
C           -5.35292748139140        2.31145363406935        2.28453278144532
C           -4.71154007135609        2.36872556497631        3.50947890771946
C           -4.02700589479986        1.25880113399976        3.98372722736006
C           -3.99087658352460        0.09245076913656        3.24311188471499
C           -4.63926221476549        0.03789802469218        2.01367337414388
C           -3.50496896792267       -2.91089246856865        0.02781105545243
C           -2.35410469510192       -3.41558346434372       -0.51331241885680
C            1.39701811316689       -2.92310433477647       -0.61258852791711
C            2.42921985203994       -2.99025263783567       -1.56961119324323
C            3.70247725363545       -2.58690063090095       -1.27244655269954
C            4.03677843923837       -2.14869948743729        0.02168151164623
N            5.28978522002700       -1.63956395893240        0.30068644145456
C            5.61248498217188       -1.10261850591134        1.56619834022028
C            5.64035101302806       -1.91938358628392        2.69060633831097
C            5.99585182911906       -1.38364524370574        3.91493492871799
C            6.33172520194855       -0.04213128824846        4.02100236995280
C            6.30753673609509        0.76617178919231        2.89772612474439
C            5.94268092271348        0.25262763323585        1.66305512989723
Si           5.82466909141164        1.15518230149551        0.00784652803504
C            6.63005144081204        2.85415727681331       -0.02016492740825
C            7.97040338959890        3.00811837278917        0.32020605387157
C            8.56701259480689        4.25548125772420        0.30715616752516
C            7.82799689099321        5.37212593495739       -0.04782064926679
C            6.49293707071783        5.23390908698481       -0.38888578675346
C            5.90137792737507        3.98362561511542       -0.37434341841518
C            3.99281187925749        1.11350145692180       -0.47641314713046
C            3.59655827240050        0.70335866555653       -1.74601707612432
C            2.25942910702227        0.53902586836320       -2.05701883446488
C            1.28961761351624        0.78688626096735       -1.10125306074306
C            1.66605189983330        1.21015489754885        0.16264173501790
C            3.00449943601518        1.36746437520804        0.47069710134254
C            6.69664248017962       -0.17119649980345       -1.01256221029989
C            7.68489034007392       -0.00374211409658       -1.97020735685738
C            8.22837320572314       -1.09554550445458       -2.62425429133120
C            7.79199841554950       -2.37512573015108       -2.31422772772867
C            6.81553735491998       -2.56575071083398       -1.35351338142004
C            6.26551627050458       -1.46575655235496       -0.70640877874175
C            3.02942409051046       -2.16693850334141        1.00237552935709
C            1.75307828969298       -2.56778041468116        0.70229591685520
H           -0.18663855321052       -1.00967265041853        0.49311844484723
H           -2.22428335382223       -0.11543818174651        1.45220331858644
H           -5.65654947040280       -3.53946964820867        1.90628391927604
H           -7.89736606705086       -4.36981903889050        1.29862086552723
H           -9.43738789230569       -2.94336298669923        0.00268059457799
H           -8.73124319877142       -0.67741309564580       -0.68359362143859
H           -8.56485090136035        1.91361718049937        0.98528270769793
H          -10.19617322461071        3.62287433783555        0.29369584698646
H           -9.87337275874596        4.85082632658417       -1.82173085754627
H           -7.91465521873798        4.36074860348395       -3.23950881026603
H           -6.28766399006776        2.64926006810642       -2.54202516799644
H           -5.18119883633164       -1.29378314920900       -2.06240493725983
H           -3.11942542050774       -1.68763334207178       -3.34048704701625
H           -1.34150754396266        0.01607666385615       -3.37339302491871
H           -1.64254331582868        2.13077753295513       -2.12609522998209
H           -3.68756359871178        2.50193377593071       -0.81594970680572
H           -5.88033949025460        3.17560720744838        1.90593100175545
H           -4.73984477375105        3.27547635345401        4.09534119274340
H           -3.52716749254738        1.30011830643672        4.94031655554929
H           -3.47221060141397       -0.78012480210078        3.61359520415959
H           -4.44028280481659       -3.41482294529855       -0.16003885250471
H           -2.37772363520180       -4.31453252372360       -1.11029177939210
H            2.17788036932299       -3.31763760985905       -2.56652411546472
H            4.44853023896694       -2.57399431771676       -2.05173917361731
H            5.39654102775931       -2.96800301770458        2.59829552031691
H            6.02042451875279       -2.01793451814261        4.78872240482651
H            6.61201368949720        0.36909880534503        4.97940910308526
H            6.56546409035666        1.81292850795825        2.97500230138238
H            8.54855920802616        2.13797607988851        0.59801376777566
H            9.60902460873581        4.35969954487786        0.57390213467153
H            8.29198931917088        6.34770952449635       -0.05843940982846
H            5.91354867892081        6.10282256707503       -0.66630926443414
H            4.85946256455525        3.87719114555816       -0.64070393068627
H            4.34954191462196        0.49790426200228       -2.49409797013391
H            1.97244587823902        0.20500424976690       -3.04326830176780
H            0.24563571495929        0.64282640290636       -1.33594188406309
H            0.91253991199874        1.40849809071029        0.91210699429235
H            3.29323186231522        1.68184304264044        1.46431461635521
H            8.02052549596189        0.99563532496451       -2.20818368605817
H            8.99259926010355       -0.95363181023248       -3.37388020696023
H            8.22075422543817       -3.22937145472341       -2.81687756666118
H            6.48636001881471       -3.56156548085544       -1.09392493364823
H            3.25543627479786       -1.84181242268881        2.00644294405425
H            1.01478554443591       -2.61008756026406        1.48807021012322

 projected vibrational frequencies (cm⁻¹)
eigval :       -0.00    -0.00    -0.00     0.00     0.00     0.00
eigval :        6.69     8.15    11.51    18.40    22.89    22.97
eigval :       24.26    26.38    28.37    32.13    33.86    37.70
eigval :       41.02    44.29    45.67    55.27    56.17    57.51
eigval :       61.12    64.76    67.39    75.37    90.19    93.60
eigval :      119.23   126.29   134.43   138.68   141.69   148.35
eigval :      161.14   162.57   166.37   174.80   175.79   185.10
eigval :      193.45   198.70   200.89   203.60   212.17   215.20
eigval :      225.72   227.16   251.03   254.89   269.06   281.83
eigval :      301.94   305.31   316.71   323.52   328.20   351.93
eigval :      355.55   358.43   358.96   359.12   361.08   367.64
eigval :      372.80   388.57   399.85   404.44   406.64   408.69
eigval :      410.62   415.61   416.60   427.40   429.73   438.68
eigval :      450.71   451.94   458.33   459.32   472.16   475.40
eigval :      494.90   495.40   504.04   505.37   523.50   524.84
eigval :      529.38   543.37   583.02   587.66   588.90   589.28
eigval :      589.51   589.69   589.89   608.18   610.70   631.65
eigval :      650.94   654.19   660.60   660.83   662.06   662.08
eigval :      662.53   670.33   670.34   670.91   685.03   696.62
eigval :      698.84   699.29   699.81   707.62   713.93   726.99
eigval :      730.83   735.56   735.64   736.56   741.21   751.57
eigval :      773.65   774.35   778.00   779.17   792.04   803.42
eigval :      828.65   839.35   875.10   880.66   881.16   883.04
eigval :      883.14   884.66   887.84   887.94   888.54   897.11
eigval :      904.19   905.64   906.67   906.88   907.18   907.67
eigval :      908.22   908.42   909.88   913.87   918.22   919.00
eigval :      920.90   923.23   926.48   928.70   929.97   930.66
eigval :      930.96   931.98   932.49   932.59   934.54   935.44
eigval :      935.47   939.17   949.21   975.55   975.75   979.28
eigval :      979.35   995.54  1003.35  1061.48  1061.71  1070.87
eigval :     1071.12  1084.65  1084.74  1085.57  1086.36  1086.62
eigval :     1086.94  1088.12  1088.54  1120.93  1121.07  1121.77
eigval :     1123.69  1145.10  1146.53  1146.78  1149.64  1156.16
eigval :     1158.43  1159.63  1160.06  1162.12  1165.17  1165.86
eigval :     1167.23  1178.01  1179.04  1180.14  1181.01  1181.05
eigval :     1182.87  1182.93  1190.26  1198.36  1203.64  1205.93
eigval :     1206.27  1207.88  1208.85  1226.94  1240.19  1240.59
eigval :     1242.73  1249.20  1255.11  1261.70  1266.47  1280.63
eigval :     1285.56  1287.29  1287.37  1288.87  1289.11  1310.41
eigval :     1311.34  1311.93  1313.40  1313.80  1314.21  1314.36
eigval :     1315.28  1315.99  1318.61  1333.65  1338.39  1384.60
eigval :     1415.01  1417.73  1420.36  1421.21  1421.55  1422.19
eigval :     1423.14  1423.66  1425.57  1429.12  1431.13  1436.27
eigval :     1439.07  1443.21  1447.65  1456.86  1464.77  1465.12
eigval :     1466.58  1466.74  1471.77  1474.45  1525.01  1551.81
eigval :     1553.56  1556.06  1557.29  1570.49  1571.37  1572.17
eigval :     1575.85  1576.52  1577.19  1577.64  1578.60  1578.66
eigval :     1594.21  1594.41  1594.78  1595.09  3057.13  3058.45
eigval :     3063.66  3064.02  3064.16  3066.57  3067.28  3067.72
eigval :     3068.19  3068.80  3069.06  3069.87  3070.37  3071.58
eigval :     3073.26  3073.31  3073.90  3075.00  3075.59  3076.30
eigval :     3079.16  3079.36  3080.54  3081.80  3082.06  3082.82
eigval :     3083.74  3083.99  3084.17  3085.71  3087.69  3087.99
eigval :     3090.43  3091.41  3092.22  3092.38  3092.86  3093.29
eigval :     3093.41  3097.33  3097.60  3101.19  3103.85  3104.61

   temp. (K)  partition function   enthalpy   heat capacity  entropy
                                   cal/mol     cal/K/mol   cal/K/mol   J/K/mol
 298.15  VIB  0.519E+29            34030.169    204.452    215.895
         ROT  0.203E+09              888.752      2.981     40.993
         INT  0.105E+38            34918.921    207.433    256.888
         TR   0.251E+29             1481.254      4.968     46.170
         TOT                       36400.1752   212.4012   303.0578  1267.9940

       T/K    H(0)-H(T)+PV         H(T)/Eh          T*S/Eh         G(T)/Eh
   ------------------------------------------------------------------------
    298.15    0.580074E-01    0.897708E+00    0.143993E+00    0.753716E+00
   ------------------------------------------------------------------------

         :::::::::::::::::::::::::::::::::::::::::::::::::::::
         ::                  THERMODYNAMIC                  ::
         :::::::::::::::::::::::::::::::::::::::::::::::::::::
         :: total free energy        -165.515404081953 Eh   ::
         ::.................................................::
         :: total energy             -166.269120020821 Eh   ::
         :: zero point energy           0.839701125806 Eh   ::
         :: G(RRHO) w/o ZPVE           -0.085985186937 Eh   ::
         :: G(RRHO) contrib.            0.753715938869 Eh   ::
         :::::::::::::::::::::::::::::::::::::::::::::::::::::

           -------------------------------------------------
          | TOTAL ENERGY             -166.269120020821 Eh   |
          | TOTAL ENTHALPY           -165.371411523581 Eh   |
          | TOTAL FREE ENERGY        -165.515404081953 Eh   |
          | GRADIENT NORM               0.000130816663 Eh/α |
           -------------------------------------------------

 * finished run on 2025/09/12 at 17:06:38.876
