   * xtb version 6.7.1 (edcfbbe) compiled by 'albert@albert-system' on 2024-07-22

   ID    Z sym.   atoms
    1    8 O      1
    2    6 C      2-6, 8-13, 15-38, 40-45, 47-66
    3    7 N      7, 39
    4   14 Si     14, 46
    5    1 H      67-110

          program call               : xtb data2507/gas/BDAPM/BDAPM_gas_S0_finalOpt.xtbopt.xyz --gfn 2 --spinpol --tblite --uhf 2 --ohess vtight --parallel 40 --molden --ceasefiles --namespace data2507/gas/BDAPM/BDAPM_gas_T1_preOpt
 * total energy  :  -166.2646503 Eh     change        0.4962217E-07 Eh
 * total energy  :  -166.2674498 Eh     change       -0.2799428E-02 Eh
 * total energy  :  -166.2683098 Eh     change       -0.8600659E-03 Eh
 * total energy  :  -166.2684336 Eh     change       -0.1237365E-03 Eh
 * total energy  :  -166.2685285 Eh     change       -0.9495624E-04 Eh
 * total energy  :  -166.2685990 Eh     change       -0.7049824E-04 Eh
 * total energy  :  -166.2686862 Eh     change       -0.8715173E-04 Eh
 * total energy  :  -166.2687490 Eh     change       -0.6282466E-04 Eh
 * total energy  :  -166.2687789 Eh     change       -0.2991775E-04 Eh
 * total energy  :  -166.2688259 Eh     change       -0.4702034E-04 Eh
 * total energy  :  -166.2691147 Eh     change       -0.8316817E-06 Eh
 * total energy  :  -166.2691153 Eh     change       -0.6387061E-06 Eh
 * total energy  :  -166.2691158 Eh     change       -0.5246943E-06 Eh
 * total energy  :  -166.2691163 Eh     change       -0.4682698E-06 Eh
 * total energy  :  -166.2691174 Eh     change       -0.1073000E-05 Eh
 * total energy  :  -166.2691184 Eh     change       -0.1028985E-05 Eh
 * total energy  :  -166.2691190 Eh     change       -0.6122411E-06 Eh
 * total energy  :  -166.2691193 Eh     change       -0.2956276E-06 Eh
 * total energy  :  -166.2691194 Eh     change       -0.5282695E-07 Eh
   *** GEOMETRY OPTIMIZATION CONVERGED AFTER 57 ITERATIONS ***

 final structure:
================
110
 xtb: 6.7.1 (edcfbbe)
O           -0.10552102484719       -4.13189208346151       -1.83638052010117
C            0.02011586129063       -3.27338623402399       -0.90869338832411
C           -1.13467572404237       -2.71861547707832       -0.24587993420677
C           -1.12718347851768       -1.48685444858299        0.43838330991689
C           -2.27683461465201       -0.96546634376279        0.97104274682863
C           -3.50556115789885       -1.64090007278228        0.86032137706167
N           -4.66884703944605       -1.06391684546415        1.33708321031788
C           -5.94341100781432       -1.58350669277297        1.02038127128375
C           -6.32779406440909       -2.83864198832741        1.47773468455201
C           -7.58894824516885       -3.31949837749325        1.17634456295817
C           -8.47147522757472       -2.55119818393881        0.43192637609443
C           -8.09080141765356       -1.29532275855395       -0.00731117580969
C           -6.82708608646671       -0.79914801842798        0.27284438055398
Si          -6.11625309514963        0.88672086747678       -0.18531901679220
C           -7.37725521380738        2.15421166471379       -0.76785532346071
C           -8.48744915001362        2.45739935321964        0.01424678074757
C           -9.41705228724044        3.39134052930653       -0.40474044780094
C           -9.24856357050795        4.03900135171227       -1.61767358909827
C           -8.14814896107944        3.74758739730617       -2.40631447549905
C           -7.22159151481179        2.81209025064781       -1.98224228604745
C           -4.63697341594575        0.61246755524650       -1.33752035786516
C           -4.48193958267100       -0.57431235817156       -2.04781233229671
C           -3.32770742757912       -0.83094480819402       -2.76467378139375
C           -2.30713240524226        0.10353922420769       -2.79021374015924
C           -2.45170010137751        1.29838970271548       -2.10468227412648
C           -3.60389091060153        1.54488766933766       -1.38151740678283
C           -5.35382686041080        1.25454688140996        1.50408751348490
C           -5.38823414747494        2.43879292083497        2.22364955547858
C           -4.73310288675923        2.54909555817470        3.43768358793320
C           -4.03326834942915        1.46431356251793        3.94637653906419
C           -3.99537511732048        0.27026428892680        3.25121669104472
C           -4.65747017762770        0.16251121518719        2.03278472810737
C           -3.52746102988204       -2.84881618313529        0.14097960286701
C           -2.38006141111239       -3.36729130420482       -0.39453720605904
C            1.36868428400116       -2.89381667676382       -0.52013770553293
C            2.40846937370602       -3.02363760227235       -1.46328523462071
C            3.68712848264407       -2.63471506237396       -1.17152997611948
C            4.01916829171537       -2.14658032539876        0.10541432906543
N            5.28065754225269       -1.65231419804924        0.37285911487377
C            5.60182917999088       -1.05287904832518        1.61043450242239
C            5.59943697010343       -1.80551405694620        2.77906267766841
C            5.95330254740457       -1.20959268074852        3.97578471083346
C            6.31799169606346        0.12812715750534        4.01075882603045
C            6.32480618520816        0.87209390436831        2.84365393979582
C            5.96189798492873        0.29807328475778        1.63535670501058
Si           5.88540348867643        1.10800730313058       -0.06929655313537
C            6.73406949363854        2.78202785746096       -0.18344070495940
C            8.07234497729699        2.92167294086743        0.17111218670361
C            8.70236608579633        4.15011131490512        0.09390225231821
C            7.99949245872031        5.26187320114305       -0.34086416998395
C            6.66696304948858        5.13775013499208       -0.69691546590004
C            6.04182955164059        3.90632912616366       -0.61785490288047
C            4.05982760736199        1.07432216116999       -0.57780409694885
C            3.67662517539157        0.62506011845988       -1.83821354718725
C            2.34239305703215        0.45984323228354       -2.16094631229742
C            1.36240918094424        0.74573344398722       -1.22636493751408
C            1.72576594519973        1.21013601327426        0.02676945288558
C            3.06133188529812        1.36836563196864        0.34671898961998
C            6.73874366799990       -0.29353262422280       -1.00138306908705
C            7.74162503035346       -0.20375781186618       -1.95421444258755
C            8.26442051655297       -1.34313406601619       -2.54045874386642
C            7.79164830060433       -2.59244212106712       -2.16663158738589
C            6.79996445842488       -2.70548326505892       -1.20933259439922
C            6.27150643647856       -1.55813637531770       -0.62992245769256
C            3.00251220233174       -2.09955159579562        1.07559973433737
C            1.72081908062215       -2.48696053132665        0.78121004557105
H           -0.21439339285669       -0.91500426379231        0.49527352331566
H           -2.24612464239421        0.00335942430923        1.44674449032700
H           -5.64619010422272       -3.42406326745045        2.07781914266838
H           -7.88784583871724       -4.29441314082638        1.53215821494708
H           -9.45504825770437       -2.93209841305549        0.20036955142665
H           -8.77541123633392       -0.68996152850883       -0.58417292931497
H           -8.62031591537715        1.95342983475551        0.96135698827130
H          -10.27448447173113        3.61635180337426        0.21337972737294
H           -9.97357310825261        4.76911146227907       -1.94710950080917
H           -8.01364196738198        4.25082351395775       -3.35306524013604
H           -6.36375894834702        2.58551817391618       -2.59914757863538
H           -5.27290593599620       -1.31090228747926       -2.02673144566600
H           -3.21610471858997       -1.76572597628196       -3.29331813600930
H           -1.40166307076741       -0.10246394912177       -3.34221163897907
H           -1.66190599853949        2.03657453557913       -2.12620003826428
H           -3.70445072922575        2.47131657918636       -0.83253098724506
H           -5.92776616799838        3.28298876022885        1.81804476927833
H           -4.76258926858302        3.47772423902243        3.98816278608205
H           -3.52266707236829        1.54714536636649        4.89454936134088
H           -3.46469514874269       -0.58277334144292        3.64914862605299
H           -4.46236801978237       -3.36317953426615       -0.01814479828117
H           -2.40569096478376       -4.28749205404763       -0.95807174270467
H            2.15888047407400       -3.38946948597757       -2.44717984912220
H            4.44054008374087       -2.67201668301572       -1.94292946930213
H            5.33407530218954       -2.85233348839255        2.74278281792098
H            5.95414530253105       -1.79414771086967        4.88393121211333
H            6.59675401840815        0.58646535282661        4.94800893256122
H            6.60574943374421        1.91555523165168        2.86515052220141
H            8.62232626225868        2.05524772678133        0.51084666843035
H            9.74232253782873        4.24330626293884        0.37248436372175
H            8.48967328454432        6.22268309492634       -0.40193803269005
H            6.11580200492927        6.00295085686795       -1.03647701400212
H            5.00189938218081        3.81089040259168       -0.89587679301015
H            4.43758815031459        0.38881734692936       -2.56896773033732
H            2.06549191354676        0.09504379438720       -3.13915116336332
H            0.32055312680133        0.59900813557889       -1.46878827151858
H            0.96455627675659        1.43979651772436        0.75933601845119
H            3.33951588527718        1.71402081060996        1.33291996596026
H            8.10512591723448        0.77238569164764       -2.24244691934204
H            9.04032213969095       -1.26182041872175       -3.28710686111427
H            8.20365534298823       -3.48344701666544       -2.61671469916539
H            6.44157501293426       -3.67689096081977       -0.90059060721612
H            3.22632300932909       -1.73489298084131        2.06647481484417
H            0.97533795379987       -2.47899623057200        1.56121593255421

 projected vibrational frequencies (cm⁻¹)
eigval :       -0.00    -0.00    -0.00    -0.00     0.00     0.00
eigval :        7.17     8.21    12.13    18.42    22.81    23.18
eigval :       23.99    26.07    28.54    32.62    34.11    37.97
eigval :       41.40    44.36    45.14    54.43    56.03    57.51
eigval :       61.00    62.70    67.31    74.00    89.79    93.36
eigval :      119.07   126.17   134.28   138.26   141.92   148.19
eigval :      161.10   162.57   165.98   174.32   175.08   184.38
eigval :      193.47   199.05   200.99   203.55   211.46   214.55
eigval :      223.88   227.43   251.05   254.96   269.06   281.75
eigval :      300.75   305.32   316.71   323.63   325.77   351.85
eigval :      355.55   358.48   358.92   359.10   360.46   367.35
eigval :      372.66   388.56   399.71   404.39   406.51   408.67
eigval :      410.82   415.35   416.34   427.20   430.04   438.58
eigval :      450.64   451.84   458.17   459.56   472.28   475.26
eigval :      494.95   495.36   503.59   505.39   523.50   524.85
eigval :      529.29   543.56   583.04   587.57   588.90   589.26
eigval :      589.50   589.69   589.83   608.10   610.67   631.74
eigval :      651.18   654.05   660.24   660.61   662.05   662.07
eigval :      662.41   669.90   670.36   670.81   684.99   696.67
eigval :      698.82   699.32   699.72   707.53   714.04   726.95
eigval :      730.65   735.53   735.57   736.43   740.31   751.57
eigval :      773.66   774.26   777.96   779.28   791.83   803.12
eigval :      828.41   839.33   874.97   880.59   880.83   882.95
eigval :      883.04   884.53   887.80   887.94   888.43   896.88
eigval :      904.17   905.51   906.44   906.71   907.02   907.56
eigval :      907.92   908.24   909.33   913.83   918.25   918.96
eigval :      920.90   923.05   926.50   928.73   929.85   930.38
eigval :      930.78   931.74   932.39   932.51   934.17   935.40
eigval :      935.41   938.44   947.22   975.52   975.62   979.29
eigval :      979.33   995.55  1003.32  1061.45  1061.81  1070.79
eigval :     1071.09  1084.63  1084.68  1085.61  1086.39  1086.55
eigval :     1086.89  1088.05  1088.42  1120.86  1120.95  1121.63
eigval :     1123.71  1144.98  1146.35  1146.57  1149.64  1156.07
eigval :     1158.41  1159.45  1160.06  1162.17  1165.02  1165.73
eigval :     1166.99  1177.91  1179.17  1180.51  1180.95  1180.98
eigval :     1182.82  1182.89  1189.58  1198.34  1204.10  1205.83
eigval :     1206.34  1207.95  1208.86  1227.13  1240.17  1240.57
eigval :     1242.25  1249.18  1254.47  1261.69  1266.36  1280.48
eigval :     1285.34  1287.26  1287.28  1288.84  1289.16  1310.37
eigval :     1311.31  1312.08  1313.49  1313.78  1314.20  1314.35
eigval :     1315.25  1315.98  1318.38  1333.87  1338.30  1383.68
eigval :     1414.94  1417.62  1420.40  1421.17  1421.52  1422.15
eigval :     1423.20  1423.92  1425.53  1429.25  1431.06  1436.12
eigval :     1438.54  1442.65  1447.60  1456.87  1465.00  1465.18
eigval :     1466.59  1466.76  1471.26  1474.50  1525.35  1551.98
eigval :     1553.27  1556.02  1557.30  1570.83  1571.47  1571.91
eigval :     1575.60  1576.63  1576.99  1577.60  1578.54  1578.61
eigval :     1594.23  1594.34  1594.72  1594.99  3056.89  3058.50
eigval :     3063.57  3063.59  3064.08  3065.83  3067.27  3067.67
eigval :     3068.07  3068.80  3068.85  3069.65  3070.13  3071.37
eigval :     3073.21  3073.27  3073.86  3074.79  3075.50  3076.21
eigval :     3079.18  3079.32  3080.28  3081.60  3081.97  3082.60
eigval :     3083.61  3083.93  3083.98  3085.81  3087.70  3087.99
eigval :     3090.82  3091.30  3092.05  3092.24  3092.71  3092.96
eigval :     3093.39  3097.25  3097.58  3101.54  3103.22  3104.40

   temp. (K)  partition function   enthalpy   heat capacity  entropy
                                   cal/mol     cal/K/mol   cal/K/mol   J/K/mol
 298.15  VIB  0.494E+29            34045.846    204.450    215.935
         ROT  0.204E+09              888.752      2.981     41.005
         INT  0.101E+38            34934.599    207.431    256.941
         TR   0.251E+29             1481.254      4.968     46.170
         TOT                       36415.8525   212.3990   303.1106  1268.2149

       T/K    H(0)-H(T)+PV         H(T)/Eh          T*S/Eh         G(T)/Eh
   ------------------------------------------------------------------------
    298.15    0.580324E-01    0.897648E+00    0.144018E+00    0.753631E+00
   ------------------------------------------------------------------------

         :::::::::::::::::::::::::::::::::::::::::::::::::::::
         ::                  THERMODYNAMIC                  ::
         :::::::::::::::::::::::::::::::::::::::::::::::::::::
         :: total free energy        -165.515488618579 Eh   ::
         ::.................................................::
         :: total energy             -166.269119301014 Eh   ::
         :: zero point energy           0.839615975312 Eh   ::
         :: G(RRHO) w/o ZPVE           -0.085985292877 Eh   ::
         :: G(RRHO) contrib.            0.753630682435 Eh   ::
         :::::::::::::::::::::::::::::::::::::::::::::::::::::

           -------------------------------------------------
          | TOTAL ENERGY             -166.269119301014 Eh   |
          | TOTAL ENTHALPY           -165.371470970893 Eh   |
          | TOTAL FREE ENERGY        -165.515488618579 Eh   |
          | GRADIENT NORM               0.000164321882 Eh/α |
           -------------------------------------------------

 * finished run on 2025/09/12 at 16:49:34.567
