   * xtb version 6.7.1 (edcfbbe) compiled by 'albert@albert-system' on 2024-07-22

   ID    Z sym.   atoms
    1    6 C      1-12, 14-27, 29-43, 45
    2    7 N      13, 28, 44
    3    1 H      46-70

          program call               : xtb data2507/gas/Cz2ICz/Cz2ICz_gas_S0_crest.xyz --gfn 2 --ohess vtight --parallel 40 --molden --ceasefiles --namespace data2507/gas/Cz2ICz/Cz2ICz_gas_S0_finalOpt
          :  Hamiltonian                  GFN2-xTB          :
 * total energy  :  -111.5713013 Eh     change       -0.8982681E-09 Eh
 * total energy  :  -111.5713034 Eh     change       -0.2088175E-05 Eh
 * total energy  :  -111.5713068 Eh     change       -0.3338742E-05 Eh
 * total energy  :  -111.5713115 Eh     change       -0.4725897E-05 Eh
 * total energy  :  -111.5713141 Eh     change       -0.2586239E-05 Eh
 * total energy  :  -111.5713162 Eh     change       -0.2090434E-05 Eh
 * total energy  :  -111.5713186 Eh     change       -0.2425223E-05 Eh
 * total energy  :  -111.5713201 Eh     change       -0.1555343E-05 Eh
 * total energy  :  -111.5713206 Eh     change       -0.4893175E-06 Eh
 * total energy  :  -111.5713210 Eh     change       -0.3241456E-06 Eh
 * total energy  :  -111.5713214 Eh     change       -0.1033410E-06 Eh
 * total energy  :  -111.5713215 Eh     change       -0.1084304E-06 Eh
 * total energy  :  -111.5713217 Eh     change       -0.1291085E-06 Eh
 * total energy  :  -111.5713218 Eh     change       -0.1709356E-06 Eh
 * total energy  :  -111.5713220 Eh     change       -0.2282300E-06 Eh
 * total energy  :  -111.5713222 Eh     change       -0.1779943E-06 Eh
 * total energy  :  -111.5713224 Eh     change       -0.1318877E-06 Eh
 * total energy  :  -111.5713225 Eh     change       -0.1243332E-06 Eh
 * total energy  :  -111.5713226 Eh     change       -0.9801468E-07 Eh
   *** GEOMETRY OPTIMIZATION CONVERGED AFTER 21 ITERATIONS ***

 final structure:
================
70
 xtb: 6.7.1 (edcfbbe)
C            8.10034900698837        3.44395968935925        0.52724083853376
C            6.74671967947200        3.69337057509462        0.74310337263527
C            5.78850628184951        2.72559149870099        0.51072920229853
C            6.21520178170625        1.49023794587588        0.04459839507359
C            7.58880665970863        1.22030124554290       -0.15475653193340
C            8.53306162024288        2.20970668028933        0.08580641290909
C            7.67721985002111       -0.14599617394892       -0.58750357925782
C            8.73709474239241       -0.96776916673939       -0.94782779289242
C            8.46556453668226       -2.26133747358736       -1.34581868074599
C            7.15610633024013       -2.73408324492823       -1.40068629912422
C            6.08515964785952       -1.93610679048857       -1.04696069499392
C            6.35358742289753       -0.64187281098658       -0.62465285460665
N            5.48105736568462        0.35715760448790       -0.24230122400254
C            4.08568510185770        0.23906411675398       -0.16063355959184
C            3.27643081753009        1.18195789075005       -0.79884553336954
C            1.89690149368994        1.10471761586612       -0.73762278441656
C            1.32851056767487        0.05678634270866       -0.03761378969018
C            2.14599503971853       -0.92209982158298        0.61405765515635
C            3.52327446481986       -0.81567208234605        0.55179373525308
C            1.26052172052259       -1.87963313830323        1.25482670744052
C            1.23949331302134       -3.03814097232579        2.02538438943327
C           -0.00156135130762       -3.57222365321382        2.38226259076112
C           -1.24218956332938       -3.03554308154141        2.02781754973059
C           -1.26232736326463       -1.87692808494209        1.25737950211786
C           -2.14705341442268       -0.91764738208769        0.61817501685188
C           -3.52426241625653       -0.80831004471225        0.55862504992737
C           -4.08582600567030        0.24676681552590       -0.15395976570129
N           -5.48099646056128        0.36799758140963       -0.23359479071433
C           -6.21151400942518        1.50459809784227        0.04878239715031
C           -5.78088536887790        2.74030813383444        0.51038359482960
C           -6.73589500083381        3.71225944268777        0.73843395301708
C           -8.09026241824064        3.46658018090463        0.52290672753831
C           -8.52696018420259        2.23198460796998        0.08639960729019
C           -7.58594708580734        1.23844304942653       -0.14982981241307
C           -7.67879037458464       -0.12924832009732       -0.57721054312926
C           -8.74134198667065       -0.94881644220482       -0.93464244420544
C           -8.47412632861529       -2.24486644079348       -1.32744459025294
C           -7.16627574928383       -2.72224671412578       -1.38011760047298
C           -6.09270711235181       -1.92644791929744       -1.02942676886957
C           -6.35679496936706       -0.62966387376387       -0.61221407979882
C           -3.27571959642859        1.18717517679177       -0.79486531231791
C           -1.89628169277696        1.10751232813031       -0.73565976941437
C           -1.32877640733052        0.05923656978516       -0.03544846878889
N           -0.00025333074513       -0.26739800075519        0.18163580398210
C           -0.00070950584370       -1.39835090877119        0.93632975635326
H            8.81805589813167        4.22793554101325        0.71810840846552
H            6.43969936430762        4.66419439769776        1.10364660513905
H            4.74350958881623        2.92274605298608        0.69768914186034
H            9.58327083256677        2.01125243781776       -0.06665039378685
H            9.75043848142557       -0.59641921232895       -0.91944905564192
H            9.27545744441487       -2.91756786586109       -1.62796261712361
H            6.97362049122090       -3.74635070479270       -1.73044715058208
H            5.07272265408128       -2.30630711494363       -1.10907946655835
H            3.74463551453774        1.97686178533794       -1.35913137978857
H            1.28442251910203        1.84117408135102       -1.23397222724264
H            4.15557829704329       -1.52984892620549        1.05664236371005
H            2.14592685243708       -3.52674326987876        2.34897168243933
H           -0.00190763712390       -4.47246549538757        2.98039597203741
H           -2.14900154642556       -3.52228071053461        2.35316095024997
H           -4.15696953087651       -1.52058411988276        1.06563391740030
H           -4.73534712357799        2.93461175640535        0.69727937040531
H           -6.42575069917886        4.68344266778399        1.09531967096072
H           -8.80536501310572        4.25379861928598        0.71016534567091
H           -9.57777611025688        2.03648724927290       -0.06571684497543
H           -9.75342749576670       -0.57391380658351       -0.90811015147337
H           -9.28617847267240       -2.89943406664790       -1.60722826465214
H           -6.98712230473750       -3.73645190782016       -1.70572727411222
H           -5.08155205691107       -2.30033908728489       -1.09007951193564
H           -3.74332942346732        1.98202214108821       -1.35571429663766
H           -1.28317843616621        1.84217459121698       -1.23388748840795

          :  Hamiltonian                  GFN2-xTB          :
         :: gradient norm              0.000039047387 Eh/a0 ::
         :: HOMO-LUMO gap              2.269436511823 eV    ::
         :: SCC energy              -113.683872429202 Eh    ::
         :: -> dispersion             -0.099975327896 Eh    ::
         :: repulsion energy           2.112549847174 Eh    ::

    * Orbital Energies and Occupations

         #    Occupation            Energy/Eh            Energy/eV
      -------------------------------------------------------------
         1        2.0000           -0.6950646             -18.9137
       ...           ...                  ...                  ...
        92        2.0000           -0.4168947             -11.3443
        93        2.0000           -0.4163290             -11.3289
        94        2.0000           -0.4158540             -11.3160
        95        2.0000           -0.4154863             -11.3060
        96        2.0000           -0.4031056             -10.9691
        97        2.0000           -0.4030725             -10.9682
        98        2.0000           -0.3963823             -10.7861
        99        2.0000           -0.3939394             -10.7196
       100        2.0000           -0.3844406             -10.4612
       101        2.0000           -0.3764003             -10.2424
       102        2.0000           -0.3763761             -10.2417
       103        2.0000           -0.3617352              -9.8433
       104        2.0000           -0.3571818              -9.7194 (HOMO)
       105                         -0.2737816              -7.4500 (LUMO)
       106                         -0.2463973              -6.7048
       107                         -0.2449471              -6.6653
       108                         -0.2422047              -6.5907
       109                         -0.2395353              -6.5181
       110                         -0.2222651              -6.0481
       111                         -0.2196650              -5.9774
       112                         -0.2196399              -5.9767
       113                         -0.2022877              -5.5045
       114                         -0.1970052              -5.3608
       115                         -0.1838297              -5.0023
       ...                                ...                  ...
       205                          0.7590708              20.6554
      -------------------------------------------------------------
                  HL-Gap            0.0834003 Eh            2.2694 eV

     #   Z          covCN         q      C6AA      α(0)
     1   6 C        2.920    -0.041    29.023     8.835
     2   6 C        2.924    -0.034    28.839     8.807
     3   6 C        2.910    -0.051    29.275     8.872
     4   6 C        3.076     0.046    26.885     8.501
     5   6 C        3.068    -0.017    28.369     8.734
     6   6 C        2.912    -0.033    28.819     8.803
     7   6 C        3.068    -0.017    28.369     8.734
     8   6 C        2.912    -0.033    28.819     8.803
     9   6 C        2.920    -0.041    29.023     8.834
    10   6 C        2.924    -0.034    28.837     8.806
    11   6 C        2.910    -0.051    29.272     8.872
    12   6 C        3.077     0.046    26.882     8.501
    13   7 N        2.803    -0.044    22.089     6.980
    14   6 C        2.912     0.057    26.721     8.476
    15   6 C        2.926    -0.045    29.124     8.850
    16   6 C        2.908    -0.045    29.124     8.849
    17   6 C        3.086     0.047    26.860     8.496
    18   6 C        3.113    -0.010    28.102     8.684
    19   6 C        2.914    -0.045    29.123     8.849
    20   6 C        3.022    -0.015    28.365     8.736
    21   6 C        2.932    -0.030    28.749     8.793
    22   6 C        2.923    -0.040    28.985     8.829
    23   6 C        2.932    -0.030    28.749     8.793
    24   6 C        3.022    -0.015    28.365     8.736
    25   6 C        3.113    -0.010    28.102     8.684
    26   6 C        2.914    -0.045    29.124     8.849
    27   6 C        2.912     0.057    26.721     8.476
    28   7 N        2.803    -0.044    22.088     6.980
    29   6 C        3.076     0.046    26.885     8.501
    30   6 C        2.910    -0.051    29.275     8.872
    31   6 C        2.924    -0.034    28.839     8.807
    32   6 C        2.920    -0.041    29.023     8.835
    33   6 C        2.912    -0.033    28.819     8.803
    34   6 C        3.068    -0.017    28.369     8.734
    35   6 C        3.068    -0.017    28.369     8.734
    36   6 C        2.912    -0.033    28.819     8.803
    37   6 C        2.920    -0.041    29.023     8.834
    38   6 C        2.924    -0.034    28.837     8.806
    39   6 C        2.910    -0.051    29.272     8.872
    40   6 C        3.076     0.046    26.882     8.501
    41   6 C        2.926    -0.045    29.125     8.850
    42   6 C        2.908    -0.045    29.124     8.849
    43   6 C        3.086     0.047    26.861     8.496
    44   7 N        2.833    -0.027    21.773     6.930
    45   6 C        3.474     0.036    21.959     7.021
    46   1 H        0.926     0.027     2.624     2.533
    47   1 H        0.926     0.028     2.613     2.528
    48   1 H        0.926     0.026     2.647     2.544
    49   1 H        0.926     0.030     2.579     2.512
    50   1 H        0.926     0.030     2.580     2.512
    51   1 H        0.926     0.027     2.624     2.533
    52   1 H        0.926     0.028     2.611     2.527
    53   1 H        0.926     0.026     2.641     2.541
    54   1 H        0.926     0.045     2.385     2.415
    55   1 H        0.926     0.038     2.477     2.461
    56   1 H        0.926     0.046     2.364     2.405
    57   1 H        0.926     0.035     2.510     2.478
    58   1 H        0.926     0.036     2.504     2.475
    59   1 H        0.926     0.035     2.510     2.478
    60   1 H        0.926     0.046     2.364     2.405
    61   1 H        0.926     0.026     2.646     2.544
    62   1 H        0.926     0.028     2.613     2.528
    63   1 H        0.926     0.027     2.624     2.533
    64   1 H        0.926     0.030     2.579     2.512
    65   1 H        0.926     0.030     2.580     2.512
    66   1 H        0.926     0.027     2.623     2.533
    67   1 H        0.926     0.028     2.611     2.527
    68   1 H        0.926     0.026     2.640     2.541
    69   1 H        0.926     0.045     2.385     2.415
    70   1 H        0.926     0.038     2.477     2.461

molecular dipole:
                 x           y           z       tot (Debye)
 q only:       -0.002      -0.111       0.065
   full:       -0.002      -0.033       0.016       0.093

 projected vibrational frequencies (cm⁻¹)
eigval :       -0.00    -0.00    -0.00     0.00     0.00     0.00
eigval :       11.75    17.62    24.03    31.41    33.78    40.31
eigval :       68.94    82.17   102.26   103.23   110.25   125.26
eigval :      134.25   137.89   145.36   148.81   166.75   190.99
eigval :      217.77   236.87   249.80   271.65   271.77   275.73
eigval :      279.02   292.55   299.92   344.85   371.25   380.94
eigval :      391.50   398.24   403.27   403.77   416.20   422.53
eigval :      422.66   435.60   435.69   456.36   480.91   504.86
eigval :      516.12   518.31   519.08   529.54   532.83   539.66
eigval :      541.26   541.29   561.61   568.00   579.86   588.77
eigval :      590.03   609.87   622.03   631.09   631.84   645.96
eigval :      671.09   673.73   673.82   684.64   697.46   703.21
eigval :      705.92   708.64   710.90   712.42   754.00   756.56
eigval :      769.41   769.51   777.12   780.73   780.85   793.93
eigval :      819.58   823.76   847.96   867.33   867.46   871.73
eigval :      872.39   884.21   885.30   886.13   897.68   897.92
eigval :      900.60   901.09   902.84   904.25   904.36   910.48
eigval :      912.42   917.71   919.89   922.94   923.10   923.85
eigval :      924.35   966.95   995.63  1012.33  1012.89  1024.93
eigval :     1070.08  1070.17  1072.60  1073.20  1073.85  1081.07
eigval :     1107.32  1115.00  1121.95  1149.09  1152.43  1152.86
eigval :     1172.86  1176.04  1179.42  1181.45  1181.48  1187.12
eigval :     1191.79  1192.87  1224.67  1231.80  1236.05  1237.36
eigval :     1241.69  1243.19  1254.95  1262.70  1299.24  1299.27
eigval :     1303.85  1304.66  1315.62  1320.69  1336.62  1343.39
eigval :     1353.28  1357.72  1358.83  1361.81  1363.55  1371.70
eigval :     1399.96  1413.15  1417.06  1427.35  1428.21  1430.41
eigval :     1443.57  1452.86  1461.47  1474.84  1477.71  1483.60
eigval :     1488.68  1488.68  1501.22  1560.97  1567.40  1574.60
eigval :     1575.11  1588.39  1589.31  1589.48  1599.29  1599.42
eigval :     1609.77  1609.96  1615.32  1615.89  1641.57  3075.22
eigval :     3075.24  3075.55  3075.58  3076.04  3080.27  3080.30
eigval :     3081.34  3081.39  3087.08  3087.15  3088.73  3088.82
eigval :     3089.74  3091.00  3093.38  3094.56  3094.62  3095.44
eigval :     3096.16  3096.24  3098.90  3099.31  3102.37  3104.05

   temp. (K)  partition function   enthalpy   heat capacity  entropy
                                   cal/mol     cal/K/mol   cal/K/mol   J/K/mol
 298.15  VIB  0.176E+14            18597.035    125.052    111.792
         ROT  0.804E+08              888.752      2.981     39.153
         INT  0.142E+22            19485.787    128.033    150.945
         TR   0.132E+29             1481.254      4.968     44.894
         TOT                       20967.0412   133.0012   195.8391   819.3908

       T/K    H(0)-H(T)+PV         H(T)/Eh          T*S/Eh         G(T)/Eh
   ------------------------------------------------------------------------
    298.15    0.334131E-01    0.565800E+00    0.930495E-01    0.472751E+00
   ------------------------------------------------------------------------

         :::::::::::::::::::::::::::::::::::::::::::::::::::::
         ::                  THERMODYNAMIC                  ::
         :::::::::::::::::::::::::::::::::::::::::::::::::::::
         :: total free energy        -111.098571845605 Eh   ::
         ::.................................................::
         :: total energy             -111.571322582026 Eh   ::
         :: zero point energy           0.532387101815 Eh   ::
         :: G(RRHO) w/o ZPVE           -0.059636365393 Eh   ::
         :: G(RRHO) contrib.            0.472750736421 Eh   ::
         :::::::::::::::::::::::::::::::::::::::::::::::::::::

           -------------------------------------------------
          | TOTAL ENERGY             -111.571322582026 Eh   |
          | TOTAL ENTHALPY           -111.005522373177 Eh   |
          | TOTAL FREE ENERGY        -111.098571845605 Eh   |
          | GRADIENT NORM               0.000039037753 Eh/α |
          | HOMO-LUMO GAP               2.269436392628 eV   |
           -------------------------------------------------

 * finished run on 2025/09/08 at 05:27:56.963
