   * xtb version 6.7.1 (edcfbbe) compiled by 'albert@albert-system' on 2024-07-22

   ID    Z sym.   atoms
    1    6 C      1-12, 14-27, 29-43, 45
    2    7 N      13, 28, 44
    3    1 H      46-70

          program call               : xtb data2507/gas/Cz2ICz/Cz2ICz_gas_T1_crest.xyz --gfn 2 --spinpol --tblite --uhf 2 --ohess vtight --parallel 40 --molden --ceasefiles --namespace data2507/gas/Cz2ICz/Cz2ICz_gas_T1_finalOpt
 * total energy  :  -111.4794653 Eh     change       -0.6791652E-08 Eh
 * total energy  :  -111.4794771 Eh     change       -0.1179547E-04 Eh
 * total energy  :  -111.4794817 Eh     change       -0.4568979E-05 Eh
 * total energy  :  -111.4794819 Eh     change       -0.2876760E-06 Eh
 * total energy  :  -111.4794826 Eh     change       -0.6960604E-06 Eh
 * total energy  :  -111.4794835 Eh     change       -0.8519732E-06 Eh
 * total energy  :  -111.4794846 Eh     change       -0.1114586E-05 Eh
 * total energy  :  -111.4794856 Eh     change       -0.1033330E-05 Eh
 * total energy  :  -111.4794862 Eh     change       -0.5442828E-06 Eh
 * total energy  :  -111.4794865 Eh     change       -0.3302344E-06 Eh
 * total energy  :  -111.4794868 Eh     change       -0.2472658E-06 Eh
 * total energy  :  -111.4794869 Eh     change       -0.1358726E-06 Eh
 * total energy  :  -111.4794874 Eh     change       -0.5552073E-06 Eh
 * total energy  :  -111.4794874 Eh     change        0.6700034E-08 Eh
 * total energy  :  -111.4794875 Eh     change       -0.6635250E-07 Eh
   *** GEOMETRY OPTIMIZATION CONVERGED AFTER 15 ITERATIONS ***

 final structure:
================
70
 xtb: 6.7.1 (edcfbbe)
C            8.03807114578056       -2.74792713292300       -2.26987745771281
C            6.68134258528829       -2.84679328631339       -2.56830403835147
C            5.73446849991977       -2.11726456469843       -1.87238248318245
C            6.17610462428194       -1.28749915698250       -0.85142110874181
C            7.55624716696476       -1.15694960883780       -0.56449756640810
C            8.48798283921051       -1.89809740031079       -1.27649941506455
C            7.66472540999720       -0.17923457873343        0.48297081528202
C            8.73742495413038        0.34772358209871        1.18751854670999
C            8.48451338898361        1.27397223096183        2.18222253987791
C            7.18152467718386        1.65725881051886        2.49038416328848
C            6.09672174692073        1.14555085569233        1.80144255431835
C            6.34593670955807        0.24184616513310        0.77816877556846
N            5.45590910899171       -0.43625363181840       -0.03433037723013
C            4.07204042427147       -0.28480454088715       -0.02788321933215
C            3.25250282278636       -1.44370327507863       -0.02477906925682
C            1.87874195567875       -1.33203755563526       -0.00463939824053
C            1.30818263527242       -0.06960953993080       -0.00429466668412
C            2.14036418187538        1.13527706608238       -0.01010292039340
C            3.51690593762334        0.99112823631015       -0.01561349421731
C            1.26280797846301        2.27258208669001       -0.01217620509525
C            1.24443027392887        3.68334565079917       -0.00972702663283
C            0.00145032165647        4.31832635019109       -0.00082679335734
C           -1.24205736739224        3.68428011631139        0.00782042920799
C           -1.26158012690199        2.27354132057405        0.00948207281455
C           -2.14001214657328        1.13691343586301        0.00717306808975
C           -3.51669483600660        0.99373031418004        0.01398829313168
C           -4.07263698796142       -0.28182460544083        0.02627469060574
N           -5.45646521615898       -0.43318105727876        0.03530782525628
C           -6.34877551459076        0.24454451989922       -0.77502744958254
C           -6.10273913336783        1.15052370440980       -1.79705121538414
C           -7.18946228306562        1.66113221509562       -2.48381738050770
C           -8.49127754820562        1.27458535199636       -2.17480600644600
C           -8.74104304184106        0.34620387526302       -1.18129751525385
C           -7.66639799504075       -0.17960610130850       -0.47887619827452
C           -7.55482237339034       -1.15867699324431        0.56699458526565
C           -8.48423036458106       -1.90290098514604        1.27884088677915
C           -8.03146936213682       -2.75319346416638        2.27053030777342
C           -6.67425719890162       -2.84934995591448        2.56762658399724
C           -5.72968520260467       -2.11679700307323        1.87176575203723
C           -6.17412439769993       -1.28683872372818        0.85216829179077
C           -3.25379304389507       -1.44131716308113        0.02115079095127
C           -1.88002801375871       -1.33064955398622        0.00000503026789
C           -1.30863345024418       -0.06860023487333        0.00032105182937
N           -0.00010057952501        0.32803830983391       -0.00202178873529
C            0.00040832863211        1.70721661467866       -0.00162493130717
H            8.74695442589989       -3.33563275212256       -2.83373666284026
H            6.36143515821557       -3.50244482084037       -3.36430867750471
H            4.68840613498438       -2.18204939350341       -2.12868343195470
H            9.54153761874298       -1.80524344425982       -1.06079891427643
H            9.74585081900938        0.03372629492525        0.96478414324360
H            9.30573556196272        1.69883838467655        2.73982590509728
H            7.01299635653599        2.36534432742188        3.28780217731374
H            5.09022847847518        1.43181709737621        2.06465660665581
H            3.72158703661414       -2.41321505444923        0.01786059764243
H            1.26094887615353       -2.21706447726440        0.02337999248455
H            4.15599496052480        1.86022258553148       -0.05705002223475
H            2.15262258917325        4.26473704969324       -0.01746189095659
H            0.00186420520273        5.40045469212422       -0.00056170876575
H           -2.14976115796992        4.26642991371704        0.01596028509654
H           -4.15508133463896        1.86327711610219        0.05673017717962
H           -5.09720706220257        1.43940506470950       -2.06104988485128
H           -7.02338589604613        2.37095948562491       -3.28020164712497
H           -9.31405902660161        1.69859594930410       -2.73076179296564
H           -9.74852522769848        0.02969382779114       -0.95785213130949
H           -9.53819836637602       -1.81210531001099        1.06428911977648
H           -8.73847985261401       -3.34337793905634        2.83414886142823
H           -6.35211788244365       -3.50526032145046        3.36251593501323
H           -4.68325780580746       -2.17943649004042        2.12711414115230
H           -3.72363397981690       -2.41043048968075       -0.02210569652740
H           -1.26285981633468       -2.21606900601007       -0.02917962702270

 projected vibrational frequencies (cm⁻¹)
eigval :       -0.00     0.00     0.00     0.00     0.00     0.00
eigval :       11.56    19.10    25.22    31.62    37.15    42.41
eigval :       73.81    81.12   102.35   103.01   112.25   128.18
eigval :      128.95   137.59   147.64   155.41   167.46   188.29
eigval :      227.21   232.46   246.57   268.78   271.86   272.99
eigval :      280.28   286.89   291.20   322.23   365.36   375.24
eigval :      383.29   388.95   390.17   397.87   406.51   418.63
eigval :      419.11   435.46   436.42   451.22   479.40   481.60
eigval :      508.18   514.28   515.86   517.51   535.85   535.86
eigval :      537.87   538.97   553.03   565.69   567.08   585.92
eigval :      586.99   593.39   619.46   620.49   623.36   630.53
eigval :      655.74   665.14   667.46   672.95   672.96   684.51
eigval :      685.07   696.34   707.08   707.77   743.63   751.34
eigval :      754.94   767.33   767.33   770.37   774.86   776.22
eigval :      786.44   788.66   797.06   836.62   855.04   858.36
eigval :      867.53   869.85   870.11   877.05   881.62   882.52
eigval :      884.54   890.02   894.82   896.03   900.22   904.21
eigval :      904.42   905.64   905.78   919.82   919.94   920.70
eigval :      920.76   948.05   966.44  1002.39  1009.84  1011.29
eigval :     1016.87  1066.92  1068.77  1069.11  1069.52  1071.55
eigval :     1083.16  1095.99  1106.52  1132.82  1145.55  1145.58
eigval :     1159.74  1163.90  1176.57  1178.14  1178.21  1178.81
eigval :     1184.00  1190.34  1212.88  1216.15  1223.25  1229.27
eigval :     1230.96  1232.62  1234.86  1242.29  1278.97  1279.94
eigval :     1284.77  1286.25  1298.30  1300.88  1316.44  1325.94
eigval :     1338.04  1340.58  1349.30  1349.62  1359.62  1363.42
eigval :     1384.68  1393.68  1399.52  1401.98  1414.40  1414.70
eigval :     1415.05  1428.71  1436.13  1437.69  1453.79  1462.33
eigval :     1462.57  1476.17  1478.50  1482.44  1483.37  1503.97
eigval :     1525.27  1534.88  1562.61  1562.70  1568.96  1577.32
eigval :     1580.33  1580.42  1584.35  1586.94  1633.55  3060.64
eigval :     3079.95  3079.98  3080.55  3080.67  3080.94  3085.47
eigval :     3085.92  3086.05  3087.29  3087.35  3090.22  3090.80
eigval :     3092.87  3093.52  3093.65  3095.29  3095.45  3097.61
eigval :     3099.05  3099.45  3099.72  3102.12  3108.09  3109.04

   temp. (K)  partition function   enthalpy   heat capacity  entropy
                                   cal/mol     cal/K/mol   cal/K/mol   J/K/mol
 298.15  VIB  0.160E+14            18843.227    127.299    112.904
         ROT  0.401E+08              888.752      2.981     37.773
         INT  0.643E+21            19731.980    130.280    150.677
         TR   0.132E+29             1481.254      4.968     44.894
         TOT                       21213.2335   135.2483   195.5714   818.2708

       T/K    H(0)-H(T)+PV         H(T)/Eh          T*S/Eh         G(T)/Eh
   ------------------------------------------------------------------------
    298.15    0.338054E-01    0.561053E+00    0.929223E-01    0.468131E+00
   ------------------------------------------------------------------------

         :::::::::::::::::::::::::::::::::::::::::::::::::::::
         ::                  THERMODYNAMIC                  ::
         :::::::::::::::::::::::::::::::::::::::::::::::::::::
         :: total free energy        -111.011356423724 Eh   ::
         ::.................................................::
         :: total energy             -111.479487486206 Eh   ::
         :: zero point energy           0.527247914130 Eh   ::
         :: G(RRHO) w/o ZPVE           -0.059116851648 Eh   ::
         :: G(RRHO) contrib.            0.468131062482 Eh   ::
         :::::::::::::::::::::::::::::::::::::::::::::::::::::

           -------------------------------------------------
          | TOTAL ENERGY             -111.479487486206 Eh   |
          | TOTAL ENTHALPY           -110.918434132702 Eh   |
          | TOTAL FREE ENERGY        -111.011356423724 Eh   |
          | GRADIENT NORM               0.000070496308 Eh/α |
           -------------------------------------------------

 * finished run on 2025/09/08 at 05:32:02.558
