   * xtb version 6.7.1 (edcfbbe) compiled by 'albert@albert-system' on 2024-07-22

   ID    Z sym.   atoms
    1    6 C      1-12, 14-27, 29-43, 45
    2    7 N      13, 28, 44
    3    1 H      46-70

          program call               : xtb data2507/gas/Cz2ICz/Cz2ICz.xyz --gfn 2 --ohess vtight --parallel 40 --molden --ceasefiles --namespace data2507/gas/Cz2ICz/Cz2ICz_gas_S0_preOpt
          :  Hamiltonian                  GFN2-xTB          :
 * total energy  :  -111.5375022 Eh     change       -0.2203237E-08 Eh
 * total energy  :  -111.5627393 Eh     change       -0.2523705E-01 Eh
 * total energy  :  -111.5690366 Eh     change       -0.6297302E-02 Eh
 * total energy  :  -111.5700321 Eh     change       -0.9955548E-03 Eh
 * total energy  :  -111.5705288 Eh     change       -0.4967013E-03 Eh
 * total energy  :  -111.5707362 Eh     change       -0.2074165E-03 Eh
 * total energy  :  -111.5708685 Eh     change       -0.1322818E-03 Eh
 * total energy  :  -111.5709469 Eh     change       -0.7837797E-04 Eh
 * total energy  :  -111.5709952 Eh     change       -0.4828043E-04 Eh
 * total energy  :  -111.5710411 Eh     change       -0.4595183E-04 Eh
 * total energy  :  -111.5713096 Eh     change       -0.1455900E-05 Eh
 * total energy  :  -111.5713110 Eh     change       -0.1436470E-05 Eh
 * total energy  :  -111.5713127 Eh     change       -0.1721152E-05 Eh
 * total energy  :  -111.5713150 Eh     change       -0.2213560E-05 Eh
 * total energy  :  -111.5713177 Eh     change       -0.2705641E-05 Eh
 * total energy  :  -111.5713197 Eh     change       -0.2016808E-05 Eh
 * total energy  :  -111.5713204 Eh     change       -0.7010549E-06 Eh
 * total energy  :  -111.5713206 Eh     change       -0.2409457E-06 Eh
 * total energy  :  -111.5713206 Eh     change       -0.1041029E-07 Eh
   *** GEOMETRY OPTIMIZATION CONVERGED AFTER 33 ITERATIONS ***

 final structure:
================
70
 xtb: 6.7.1 (edcfbbe)
C            8.08396683516583        3.43155610695738        0.59419823795550
C            6.72816460840428        3.67358695362768        0.80477885650681
C            5.77505748538151        2.70469310254785        0.55668934266074
C            6.20916698852504        1.47597869896231        0.07996895104503
C            7.58490327248554        1.21331165290410       -0.11421706725146
C            8.52394812426617        2.20366698582883        0.14234376356532
C            7.68099754525559       -0.14794544759130       -0.56097654825342
C            8.74598262064822       -0.96191371652132       -0.92394467438496
C            8.48157345875062       -2.25209825436525       -1.33740590880398
C            7.17424286925168       -2.72907537525730       -1.40495033264972
C            6.09831144117753       -1.93892425067408       -1.04879483658584
C            6.35948720996014       -0.64832226676463       -0.61111806359693
N            5.48098127765240        0.34333107520548       -0.22336499881798
C            4.08569520039906        0.21925949613216       -0.14929535185869
C            3.27608055432427        1.16597576603282       -0.78142408933461
C            1.89659149396361        1.08461555346432       -0.72552693018622
C            1.32867174766064        0.02886831560185       -0.03693534293352
C            2.14652620088749       -0.95453487165129        0.60737989183272
C            3.52375557871034       -0.84414403355457        0.55044359227196
C            1.26139779272971       -1.91953690979643        1.23733572950110
C            1.24083151007767       -3.08401994570799        1.99884441703286
C           -0.00000190465622       -3.62222464994994        2.35025075705005
C           -1.24083470932893       -3.08401957307659        1.99884281643285
C           -1.26139966053886       -1.91953645806059        1.23733422298219
C           -2.14652696352274       -0.95453402122867        0.60737745121485
C           -3.52375621649230       -0.84414252620718        0.55043980548266
C           -4.08569469835166        0.21926112604919       -0.14929988325791
N           -5.48098065199550        0.34333349940166       -0.22337030163425
C           -6.20916591294583        1.47598144308901        0.07996361268725
C           -5.77505583136903        2.70469627391483        0.55668238113792
C           -6.72816262098987        3.67359038006595        0.80477215113481
C           -8.08396510053864        3.43155942616180        0.59419333567141
C           -8.52394695306661        2.20366992377966        0.14234046233635
C           -7.58490243800628        1.21331434399326       -0.11422060168039
C           -7.68099739663205       -0.14794319816586       -0.56097856069178
C           -8.74598304089553       -0.96191177210321       -0.92394433953943
C           -8.48157454239590       -2.25209673307084       -1.33740465796638
C           -7.17424405712357       -2.72907392969352       -1.40495059317334
C           -6.09831208459852       -1.93892251615755       -1.04879737521615
C           -6.35948716239910       -0.64832013467107       -0.61112134810093
C           -3.27607898727096        1.16597678691248       -0.78142816336318
C           -1.89659000622002        1.08461602985973       -0.72552947711418
C           -1.32867140591911        0.02886878927428       -0.03693695207858
N           -0.00000001221495       -0.29953323322870        0.17656973744808
C           -0.00000065878544       -1.43742951290167        0.92076357945681
H            8.79752460980916        4.21620417673946        0.79742094505401
H            6.41535106190174        4.63936734771978        1.17378136171648
H            4.72825189547338        2.89588173184527        0.73967594616901
H            9.57576999564663        2.01082128525681       -0.00611299262018
H            9.75776015052145       -0.58719945671088       -0.88578614024754
H            9.29553594537332       -2.90220885579947       -1.62200469666909
H            6.99749987323387       -3.73841337981002       -1.74658497439880
H            5.08761590460541       -2.31211889915336       -1.12050650111057
H            3.74416639724175        1.96747205272676       -1.33233551521770
H            1.28373920829533        1.82428157360226       -1.21661171149661
H            4.15622491802737       -1.56174014689191        1.05021988508174
H            2.14748062049511       -3.57370105545074        2.32019034885285
H           -0.00000242595458       -4.52682539333767        2.94176965174872
H           -2.14748437334699       -3.57370020824805        2.32018790648099
H           -4.15622635991315       -1.56173821648530        1.05021568740558
H           -4.72825002860723        2.89588513138512        0.73966751381797
H           -6.41534857405284        4.63937112090235        1.17377331998526
H           -8.79752261296886        4.21620764852963        0.79741635170330
H           -9.57576902346454        2.01082401858001       -0.00611464293847
H           -9.75776046947663       -0.58719735638035       -0.88578489059187
H           -9.29553746317196       -2.90220757510297       -1.62200164063725
H           -6.99750159235129       -3.73841228266494       -1.74658446742365
H           -5.08761668539830       -2.31211731712257       -1.12051009210692
H           -3.74416386829910        1.96747303899162       -1.33234045358576
H           -1.28373690303494        1.82428161751180       -1.21661389591124

          :  Hamiltonian                  GFN2-xTB          :
         :: gradient norm              0.000116395174 Eh/a0 ::
         :: HOMO-LUMO gap              2.269279643998 eV    ::
         :: SCC energy              -113.683905662663 Eh    ::
         :: -> dispersion             -0.099969709765 Eh    ::
         :: repulsion energy           2.112585026254 Eh    ::

    * Orbital Energies and Occupations

         #    Occupation            Energy/Eh            Energy/eV
      -------------------------------------------------------------
         1        2.0000           -0.6950866             -18.9143
       ...           ...                  ...                  ...
        92        2.0000           -0.4168916             -11.3442
        93        2.0000           -0.4163239             -11.3288
        94        2.0000           -0.4158485             -11.3158
        95        2.0000           -0.4154825             -11.3059
        96        2.0000           -0.4030946             -10.9688
        97        2.0000           -0.4030690             -10.9681
        98        2.0000           -0.3963970             -10.7865
        99        2.0000           -0.3939578             -10.7201
       100        2.0000           -0.3844453             -10.4613
       101        2.0000           -0.3763808             -10.2418
       102        2.0000           -0.3763799             -10.2418
       103        2.0000           -0.3617308              -9.8432
       104        2.0000           -0.3571960              -9.7198 (HOMO)
       105                         -0.2738015              -7.4505 (LUMO)
       106                         -0.2463958              -6.7048
       107                         -0.2449539              -6.6655
       108                         -0.2422093              -6.5909
       109                         -0.2395492              -6.5185
       110                         -0.2222771              -6.0485
       111                         -0.2196436              -5.9768
       112                         -0.2196401              -5.9767
       113                         -0.2022828              -5.5044
       114                         -0.1970091              -5.3609
       115                         -0.1838222              -5.0021
       ...                                ...                  ...
       205                          0.7590394              20.6545
      -------------------------------------------------------------
                  HL-Gap            0.0833945 Eh            2.2693 eV

     #   Z          covCN         q      C6AA      α(0)
     1   6 C        2.920    -0.041    29.024     8.835
     2   6 C        2.924    -0.034    28.839     8.807
     3   6 C        2.910    -0.051    29.275     8.872
     4   6 C        3.076     0.046    26.885     8.501
     5   6 C        3.068    -0.017    28.369     8.734
     6   6 C        2.913    -0.033    28.819     8.803
     7   6 C        3.068    -0.017    28.369     8.734
     8   6 C        2.912    -0.033    28.819     8.803
     9   6 C        2.920    -0.041    29.023     8.834
    10   6 C        2.924    -0.034    28.837     8.806
    11   6 C        2.910    -0.051    29.271     8.872
    12   6 C        3.077     0.046    26.882     8.501
    13   7 N        2.803    -0.044    22.089     6.980
    14   6 C        2.912     0.057    26.720     8.476
    15   6 C        2.926    -0.045    29.124     8.850
    16   6 C        2.908    -0.045    29.124     8.849
    17   6 C        3.086     0.047    26.860     8.496
    18   6 C        3.113    -0.010    28.102     8.684
    19   6 C        2.914    -0.045    29.122     8.849
    20   6 C        3.022    -0.015    28.365     8.736
    21   6 C        2.932    -0.030    28.749     8.793
    22   6 C        2.923    -0.040    28.985     8.829
    23   6 C        2.932    -0.030    28.749     8.793
    24   6 C        3.022    -0.015    28.365     8.736
    25   6 C        3.113    -0.010    28.102     8.684
    26   6 C        2.914    -0.045    29.122     8.849
    27   6 C        2.912     0.057    26.720     8.476
    28   7 N        2.803    -0.044    22.089     6.980
    29   6 C        3.076     0.046    26.885     8.501
    30   6 C        2.910    -0.051    29.275     8.872
    31   6 C        2.924    -0.034    28.839     8.807
    32   6 C        2.920    -0.041    29.024     8.835
    33   6 C        2.913    -0.033    28.819     8.803
    34   6 C        3.068    -0.017    28.369     8.734
    35   6 C        3.068    -0.017    28.369     8.734
    36   6 C        2.912    -0.033    28.819     8.803
    37   6 C        2.920    -0.041    29.023     8.834
    38   6 C        2.924    -0.034    28.837     8.806
    39   6 C        2.910    -0.051    29.271     8.872
    40   6 C        3.077     0.046    26.882     8.501
    41   6 C        2.926    -0.045    29.124     8.850
    42   6 C        2.908    -0.045    29.124     8.849
    43   6 C        3.086     0.047    26.860     8.496
    44   7 N        2.833    -0.027    21.773     6.930
    45   6 C        3.474     0.036    21.957     7.020
    46   1 H        0.926     0.027     2.624     2.533
    47   1 H        0.926     0.028     2.613     2.528
    48   1 H        0.926     0.026     2.647     2.544
    49   1 H        0.926     0.030     2.579     2.512
    50   1 H        0.926     0.030     2.580     2.512
    51   1 H        0.926     0.027     2.624     2.533
    52   1 H        0.926     0.028     2.611     2.527
    53   1 H        0.926     0.026     2.641     2.541
    54   1 H        0.926     0.045     2.385     2.415
    55   1 H        0.926     0.038     2.477     2.461
    56   1 H        0.926     0.046     2.365     2.405
    57   1 H        0.926     0.035     2.510     2.477
    58   1 H        0.926     0.036     2.504     2.475
    59   1 H        0.926     0.035     2.510     2.477
    60   1 H        0.926     0.046     2.365     2.405
    61   1 H        0.926     0.026     2.647     2.544
    62   1 H        0.926     0.028     2.613     2.528
    63   1 H        0.926     0.027     2.624     2.533
    64   1 H        0.926     0.030     2.579     2.512
    65   1 H        0.926     0.030     2.580     2.512
    66   1 H        0.926     0.027     2.624     2.533
    67   1 H        0.926     0.028     2.611     2.527
    68   1 H        0.926     0.026     2.641     2.541
    69   1 H        0.926     0.045     2.385     2.415
    70   1 H        0.926     0.038     2.477     2.461

molecular dipole:
                 x           y           z       tot (Debye)
 q only:       -0.000      -0.114       0.061
   full:       -0.000      -0.036       0.012       0.096

 projected vibrational frequencies (cm⁻¹)
eigval :       -0.00    -0.00    -0.00    -0.00     0.00     0.00
eigval :       11.73    17.54    23.97    32.15    33.63    40.03
eigval :       68.94    82.10   102.15   103.11   111.81   125.35
eigval :      134.74   137.96   145.33   148.66   166.69   191.03
eigval :      217.64   236.78   251.10   271.63   271.73   275.90
eigval :      279.15   292.39   299.82   345.15   371.29   381.03
eigval :      391.46   398.21   403.40   403.69   416.15   422.52
eigval :      422.64   435.56   435.59   456.16   480.90   505.22
eigval :      516.11   518.31   519.12   529.54   532.83   539.68
eigval :      541.26   541.29   561.55   568.01   579.72   588.77
eigval :      590.03   609.72   621.98   631.01   631.88   646.02
eigval :      671.11   673.71   673.78   684.65   697.47   703.49
eigval :      705.93   708.63   710.90   712.42   754.00   756.56
eigval :      769.38   769.48   777.13   780.71   780.83   793.93
eigval :      819.59   823.74   847.93   867.34   867.46   871.69
eigval :      872.35   884.34   885.35   886.01   897.68   897.92
eigval :      900.59   901.07   902.84   904.20   904.30   910.45
eigval :      912.39   917.71   919.88   922.90   923.06   923.80
eigval :      924.28   966.95   995.65  1012.34  1012.89  1024.94
eigval :     1070.05  1070.13  1072.60  1073.18  1073.81  1081.03
eigval :     1107.29  1114.98  1121.93  1149.04  1152.40  1152.82
eigval :     1172.86  1176.03  1179.40  1181.45  1181.47  1187.10
eigval :     1191.74  1192.86  1224.63  1231.79  1236.07  1237.36
eigval :     1241.66  1243.16  1254.96  1262.67  1299.23  1299.27
eigval :     1303.87  1304.70  1315.54  1320.69  1336.63  1343.39
eigval :     1353.24  1357.72  1358.83  1361.82  1363.57  1371.70
eigval :     1399.94  1413.11  1417.06  1427.37  1428.23  1430.41
eigval :     1443.57  1452.88  1461.51  1474.88  1477.72  1483.60
eigval :     1488.70  1488.70  1501.17  1560.95  1567.31  1574.60
eigval :     1575.11  1588.40  1589.33  1589.50  1599.31  1599.44
eigval :     1609.76  1609.87  1615.34  1615.91  1641.57  3075.26
eigval :     3075.26  3075.58  3075.60  3076.06  3080.30  3080.31
eigval :     3081.36  3081.40  3087.11  3087.17  3088.76  3088.85
eigval :     3089.75  3090.99  3093.37  3094.59  3094.65  3095.45
eigval :     3096.20  3096.28  3098.83  3099.24  3102.36  3104.04

   temp. (K)  partition function   enthalpy   heat capacity  entropy
                                   cal/mol     cal/K/mol   cal/K/mol   J/K/mol
 298.15  VIB  0.173E+14            18593.822    125.053    111.758
         ROT  0.803E+08              888.752      2.981     39.153
         INT  0.139E+22            19482.575    128.034    150.910
         TR   0.132E+29             1481.254      4.968     44.894
         TOT                       20963.8284   133.0024   195.8045   819.2462

       T/K    H(0)-H(T)+PV         H(T)/Eh          T*S/Eh         G(T)/Eh
   ------------------------------------------------------------------------
    298.15    0.334080E-01    0.565801E+00    0.930331E-01    0.472767E+00
   ------------------------------------------------------------------------

         :::::::::::::::::::::::::::::::::::::::::::::::::::::
         ::                  THERMODYNAMIC                  ::
         :::::::::::::::::::::::::::::::::::::::::::::::::::::
         :: total free energy        -111.098553184275 Eh   ::
         ::.................................................::
         :: total energy             -111.571320636408 Eh   ::
         :: zero point energy           0.532392522104 Eh   ::
         :: G(RRHO) w/o ZPVE           -0.059625069970 Eh   ::
         :: G(RRHO) contrib.            0.472767452133 Eh   ::
         :::::::::::::::::::::::::::::::::::::::::::::::::::::

           -------------------------------------------------
          | TOTAL ENERGY             -111.571320636408 Eh   |
          | TOTAL ENTHALPY           -111.005520127200 Eh   |
          | TOTAL FREE ENERGY        -111.098553184275 Eh   |
          | GRADIENT NORM               0.000116388291 Eh/α |
          | HOMO-LUMO GAP               2.269278878824 eV   |
           -------------------------------------------------

 * finished run on 2025/09/08 at 05:24:26.703
