   * xtb version 6.7.1 (edcfbbe) compiled by 'albert@albert-system' on 2024-07-22

   ID    Z sym.   atoms
    1    6 C      1-12, 14-27, 29-43, 45
    2    7 N      13, 28, 44
    3    1 H      46-70

          program call               : xtb data2507/gas/Cz2ICz/Cz2ICz_gas_S0_finalOpt.xtbopt.xyz --gfn 2 --spinpol --tblite --uhf 2 --ohess vtight --parallel 40 --molden --ceasefiles --namespace data2507/gas/Cz2ICz/Cz2ICz_gas_T1_preOpt
 * total energy  :  -111.4757119 Eh     change       -0.4036980E-07 Eh
 * total energy  :  -111.4781649 Eh     change       -0.2452966E-02 Eh
 * total energy  :  -111.4790699 Eh     change       -0.9049643E-03 Eh
 * total energy  :  -111.4791749 Eh     change       -0.1050601E-03 Eh
 * total energy  :  -111.4792322 Eh     change       -0.5729873E-04 Eh
 * total energy  :  -111.4792563 Eh     change       -0.2405287E-04 Eh
 * total energy  :  -111.4792780 Eh     change       -0.2171627E-04 Eh
 * total energy  :  -111.4792947 Eh     change       -0.1674393E-04 Eh
 * total energy  :  -111.4793108 Eh     change       -0.1601800E-04 Eh
 * total energy  :  -111.4793236 Eh     change       -0.1286394E-04 Eh
 * total energy  :  -111.4793959 Eh     change       -0.7815217E-06 Eh
 * total energy  :  -111.4793965 Eh     change       -0.6052684E-06 Eh
 * total energy  :  -111.4793968 Eh     change       -0.3427772E-06 Eh
 * total energy  :  -111.4793970 Eh     change       -0.1567930E-06 Eh
 * total energy  :  -111.4793965 Eh     change        0.4460734E-06 Eh
 * total energy  :  -111.4793960 Eh     change        0.5364759E-06 Eh
 * total energy  :  -111.4793966 Eh     change       -0.5960761E-06 Eh
 * total energy  :  -111.4793966 Eh     change        0.8724896E-09 Eh
 * total energy  :  -111.4793967 Eh     change       -0.8256208E-07 Eh
   *** GEOMETRY OPTIMIZATION CONVERGED AFTER 37 ITERATIONS ***

 final structure:
================
70
 xtb: 6.7.1 (edcfbbe)
C            8.05865120718562        3.49294453842290        0.45236660144235
C            6.70447755229636        3.73965907223342        0.66425423945081
C            5.75156970098475        2.75835570633363        0.45919473565245
C            6.18435795288079        1.51506211006271        0.02001576877151
C            7.56204465342492        1.24722003886349       -0.16552755362442
C            8.49995262951417        2.24692585897283        0.04727857611790
C            7.66145216047028       -0.13453018447661       -0.54724600049425
C            8.72807189419703       -0.95714883357399       -0.87949272006058
C            8.46662935640334       -2.26573841505407       -1.24079627375961
C            7.16100051330154       -2.74758596020471       -1.29372629575870
C            6.08214955174343       -1.94607459678208       -0.96676547069461
C            6.34010265249934       -0.64169398104671       -0.56932533049174
N            5.45709582349550        0.36549536435832       -0.22578674266008
C            4.07293477022058        0.23980959708590       -0.14411652308861
C            3.25457792546665        1.22988785268621       -0.74817291925837
C            1.88054788431845        1.13031707342777       -0.70011407268007
C            1.30840439543947        0.05529267654587       -0.03951260299450
C            2.13947769015510       -0.97206042593774        0.59177666470212
C            3.51623981710550       -0.85159172410530        0.51548933613139
C            1.26087848154009       -1.93555790255520        1.19427926207174
C            1.24126584087966       -3.13764698039682        1.93274723492886
C           -0.00231802529881       -3.67629447256461        2.26693813518637
C           -1.24527894146802       -3.13499247293601        1.93468951720879
C           -1.26350380285588       -1.93284677480593        1.19628104716414
C           -2.14097890270002       -0.96742021091004        0.59522814250130
C           -3.51759837934655       -0.84404993081862        0.52094720035381
C           -4.07290926034103        0.24862973689882       -0.13770068932942
N           -5.45685970166074        0.37728368905675       -0.21780566948605
C           -6.18116169412678        1.52863285844965        0.02826635820227
C           -5.74515481313924        2.77060222792866        0.46803325940055
C           -6.69549952433316        3.75433327364470        0.67327640004257
C           -8.05026734479680        3.51128728386044        0.46097245969016
C           -8.49479522285723        2.26657488645790        0.05536456054864
C           -7.55950637406522        1.26446733868525       -0.15755107454995
C           -7.66244452708411       -0.11692570962888       -0.53968396445879
C           -8.73114335125615       -0.93659247221142       -0.87244762298982
C           -8.47308290649652       -2.24577176691361       -1.23407608128172
C           -7.16873702767502       -2.73108185126476       -1.28673021128621
C           -6.08784335234824       -1.93252876330911       -0.95929365493044
C           -6.34242172170292       -0.62753881959610       -0.56167019402030
C           -3.25332756873143        1.23712127417236       -0.74272719440918
C           -1.87948218669434        1.13452313176942       -0.69692329914221
C           -1.30866103563650        0.05811364708868       -0.03740259554641
N           -0.00034450573021       -0.28088995739990        0.17043166611067
C           -0.00103095407981       -1.45369601722236        0.89630608179705
H            8.77244077965990        4.28542218134089        0.62068839432763
H            6.39145457238302        4.71630702730999        1.00192276374049
H            4.70770992650565        2.95251890094394        0.65097672176589
H            9.55166039540768        2.04998555600643       -0.09503727955549
H            9.73840145314403       -0.57764317038253       -0.86110582554780
H            9.28304399981751       -2.92328729256978       -1.49951775801329
H            6.98559880528750       -3.76743113830377       -1.60164292729141
H            5.07343897854757       -2.32315264555418       -1.03430340793740
H            3.72432738717512        2.03272696446794       -1.29276344717775
H            1.26393586272055        1.87387772446623       -1.18230142858200
H            4.15443759465774       -1.57358167973946        1.00221329916473
H            2.14900560622077       -3.63353715225496        2.23767777139359
H           -0.00285028516202       -4.59638560260575        2.83651266126993
H           -2.15358421477650       -3.62891533747545        2.24112338721477
H           -4.15662329586766       -1.56481324733520        1.00840768430137
H           -4.70081265799932        2.96189309435830        0.66010401432439
H           -6.37997543374787        4.73001665203982        1.01141063869349
H           -8.76198874150451        4.30560328563490        0.62939969178835
H           -9.54699768527234        2.07247669431401       -0.08720918620299
H           -9.74046028326241       -0.55438141909990       -0.85429466233056
H           -9.29117239733792       -2.90105335186274       -1.49326673849495
H           -6.99597226208461       -3.75133176592213       -1.59480614781982
H           -5.08013011066310       -2.31229700851574       -1.02663684872869
H           -3.72219923355226        2.04110959247712       -1.28638626803730
H           -1.26199395673582        1.87689605434745       -1.17981789983705

 projected vibrational frequencies (cm⁻¹)
eigval :       -0.00    -0.00    -0.00     0.00     0.00     0.00
eigval :       11.69    18.78    25.55    31.44    38.14    42.40
eigval :       74.21    81.38   102.32   103.66   110.34   128.11
eigval :      130.70   136.76   146.45   156.03   167.78   189.84
eigval :      221.63   241.28   242.11   268.49   270.79   274.54
eigval :      280.15   289.62   290.45   320.79   369.01   372.23
eigval :      377.89   389.25   393.47   395.48   410.26   418.50
eigval :      419.58   435.43   436.77   450.42   480.08   481.02
eigval :      507.98   514.55   515.57   518.58   535.90   536.01
eigval :      537.31   539.94   554.74   561.55   567.45   585.80
eigval :      586.52   597.05   614.41   623.05   627.11   627.23
eigval :      656.04   665.17   667.43   673.02   673.08   685.36
eigval :      685.76   696.14   707.38   707.76   744.36   751.62
eigval :      755.03   767.30   767.83   770.51   774.73   776.73
eigval :      785.00   790.33   797.26   836.28   854.54   858.77
eigval :      867.31   869.74   870.25   878.58   881.11   882.67
eigval :      884.62   890.37   894.78   896.16   900.25   904.51
eigval :      904.59   905.96   906.12   920.18   920.28   921.05
eigval :      921.17   947.62   965.87  1002.30  1009.62  1011.38
eigval :     1015.92  1066.37  1068.95  1069.22  1069.73  1071.91
eigval :     1083.51  1095.49  1106.75  1132.18  1145.86  1145.91
eigval :     1160.00  1165.48  1176.87  1178.52  1178.60  1179.13
eigval :     1184.33  1190.72  1213.17  1215.97  1223.19  1229.48
eigval :     1231.09  1232.93  1235.02  1242.49  1279.71  1280.08
eigval :     1285.01  1286.81  1298.49  1300.63  1316.51  1326.07
eigval :     1337.98  1340.64  1349.30  1349.65  1359.63  1364.31
eigval :     1384.50  1393.79  1399.42  1401.09  1414.82  1414.89
eigval :     1415.22  1428.76  1435.71  1436.34  1453.51  1462.49
eigval :     1462.67  1476.47  1478.53  1482.40  1483.44  1502.56
eigval :     1525.44  1534.75  1562.68  1562.74  1568.78  1577.68
eigval :     1580.46  1580.56  1584.43  1587.82  1633.74  3060.65
eigval :     3080.28  3080.33  3080.83  3080.88  3081.64  3086.15
eigval :     3086.30  3086.74  3087.61  3087.66  3090.40  3091.02
eigval :     3093.03  3093.89  3094.00  3095.53  3095.72  3097.80
eigval :     3099.52  3099.75  3100.17  3101.15  3108.10  3109.13

   temp. (K)  partition function   enthalpy   heat capacity  entropy
                                   cal/mol     cal/K/mol   cal/K/mol   J/K/mol
 298.15  VIB  0.155E+14            18839.100    127.303    112.880
         ROT  0.802E+08              888.752      2.981     39.149
         INT  0.124E+22            19727.852    130.284    152.030
         TR   0.132E+29             1481.254      4.968     44.894
         TOT                       21209.1061   135.2518   196.9240   823.9302

       T/K    H(0)-H(T)+PV         H(T)/Eh          T*S/Eh         G(T)/Eh
   ------------------------------------------------------------------------
    298.15    0.337989E-01    0.561097E+00    0.935650E-01    0.467532E+00
   ------------------------------------------------------------------------

         :::::::::::::::::::::::::::::::::::::::::::::::::::::
         ::                  THERMODYNAMIC                  ::
         :::::::::::::::::::::::::::::::::::::::::::::::::::::
         :: total free energy        -111.011864765128 Eh   ::
         ::.................................................::
         :: total energy             -111.479396681731 Eh   ::
         :: zero point energy           0.527298019642 Eh   ::
         :: G(RRHO) w/o ZPVE           -0.059766103039 Eh   ::
         :: G(RRHO) contrib.            0.467531916603 Eh   ::
         :::::::::::::::::::::::::::::::::::::::::::::::::::::

           -------------------------------------------------
          | TOTAL ENERGY             -111.479396681731 Eh   |
          | TOTAL ENTHALPY           -110.918299800133 Eh   |
          | TOTAL FREE ENERGY        -111.011864765128 Eh   |
          | GRADIENT NORM               0.000057962037 Eh/α |
           -------------------------------------------------

 * finished run on 2025/09/08 at 05:28:04.674
