   * xtb version 6.7.1 (edcfbbe) compiled by 'albert@albert-system' on 2024-07-22

   ID    Z sym.   atoms
    1    6 C      1, 3-14, 16-18, 20-28, 30-35, 37, 39-47, 49-53
    2    8 O      2, 29, 48
    3    7 N      15, 19, 36, 38
    4    1 H      54-85

          program call               : xtb data2507/gas/OCzBN/OCzBN_gas_T1_crest.xyz --gfn 2 --spinpol --tblite --uhf 2 --ohess vtight --parallel 40 --molden --ceasefiles --namespace data2507/gas/OCzBN/OCzBN_gas_T1_finalOpt
 * total energy  :  -138.7137654 Eh     change        0.5875447E-07 Eh
 * total energy  :  -138.7138224 Eh     change       -0.5700607E-04 Eh
 * total energy  :  -138.7138464 Eh     change       -0.2404181E-04 Eh
 * total energy  :  -138.7138483 Eh     change       -0.1826505E-05 Eh
 * total energy  :  -138.7138496 Eh     change       -0.1320912E-05 Eh
 * total energy  :  -138.7138511 Eh     change       -0.1526587E-05 Eh
 * total energy  :  -138.7138532 Eh     change       -0.2127138E-05 Eh
 * total energy  :  -138.7138553 Eh     change       -0.2026622E-05 Eh
 * total energy  :  -138.7138568 Eh     change       -0.1554944E-05 Eh
 * total energy  :  -138.7138587 Eh     change       -0.1862333E-05 Eh
 * total energy  :  -138.7138679 Eh     change       -0.2017282E-05 Eh
 * total energy  :  -138.7138698 Eh     change       -0.1937587E-05 Eh
 * total energy  :  -138.7138715 Eh     change       -0.1665664E-05 Eh
 * total energy  :  -138.7138725 Eh     change       -0.1011286E-05 Eh
 * total energy  :  -138.7138731 Eh     change       -0.6157483E-06 Eh
 * total energy  :  -138.7138736 Eh     change       -0.4937795E-06 Eh
 * total energy  :  -138.7138740 Eh     change       -0.4019372E-06 Eh
 * total energy  :  -138.7138744 Eh     change       -0.3508960E-06 Eh
 * total energy  :  -138.7138744 Eh     change       -0.7608747E-08 Eh
   *** GEOMETRY OPTIMIZATION CONVERGED AFTER 22 ITERATIONS ***

 final structure:
================
85
 xtb: 6.7.1 (edcfbbe)
C           -8.72584505935587        0.14176771122122        1.86413393035882
O           -7.48615124775542       -0.40400290729714        2.24042438483250
C           -6.37256886594679       -0.02808551206443        1.55242871676778
C           -5.17427617987103       -0.61487438001335        2.00270394442041
C           -3.96790094397349       -0.34303348917516        1.40155830140315
C           -3.94995482105467        0.53132945325508        0.32053120872414
C           -5.14586774607419        1.15583850354364       -0.11630370851452
C           -6.36103749992712        0.86906648603686        0.49419140903464
C           -4.77765540824827        2.03367611682711       -1.18594307158559
C           -5.49187855062674        2.89822093819947       -2.00533331126509
C           -4.81486368205823        3.59232364093349       -2.98923239491167
C           -3.44326810257038        3.42160850076055       -3.17362253950754
C           -2.71047100148726        2.57088676149912       -2.36693187302517
C           -3.37579060231512        1.89155196519586       -1.35743954501555
N           -2.89003875678949        0.98203185878582       -0.43622830591866
C           -1.56349520872579        0.58626992608154       -0.30072834941504
C           -0.52592761845055        1.54805658139009       -0.27021788574372
C            0.77535696248098        1.17296279349408       -0.10649752824914
N            1.79438040109495        2.13441923410776       -0.06071898873247
C            2.07357770498495        3.05900250756082       -1.04397734878551
C            1.46227334118998        3.24775758582576       -2.27408713462432
C            1.95099517259373        4.24881711952758       -3.09260781699094
C            3.02703226492564        5.04184665485137       -2.70210546937917
C            3.65567773963779        4.84307757793599       -1.48623512843824
C            3.18358190455402        3.84366192182169       -0.64841475564431
C            3.58436696565224        3.35350210317771        0.64206212161150
C            4.58674666884913        3.72866613887126        1.52465094252454
C            4.68910899702165        3.04722878905839        2.73123092701165
O            5.61943626057859        3.30660026298325        3.68936800648687
C            6.57935116259697        4.30462687418969        3.44496286057798
C            3.78437981222287        2.01740142203998        3.04817512572090
C            2.78730721377888        1.63793849788031        2.18247706152823
C            2.69817584336278        2.29900960656104        0.96143668537024
C            1.14787955335463       -0.22305087408284       -0.01447059495590
C            2.45972479437075       -0.61365428658686        0.12469348524086
N            3.56873557050057       -0.94327556959630        0.24259561970595
C            0.06832994844192       -1.18580770106790       -0.07629815474601
N            0.38895516623514       -2.54693706532628        0.02043735898143
C           -0.07559978012902       -3.41681643443796        0.98356821368476
C           -0.92116077478358       -3.17410265714226        2.05526621600617
C           -1.22386871711884       -4.23114049275467        2.89313466398376
C           -0.69387673464851       -5.50054485606917        2.67667043655958
C            0.16913367163963       -5.74329500129263        1.62339174765692
C            0.48799983750464       -4.69775101036099        0.76969124677841
C            1.33609622944009       -4.57751625998327       -0.38464036572110
C            2.13068028904932       -5.48442720817278       -1.07054668063807
C            2.82118816290308       -5.03782112031322       -2.19058279794869
O            3.63532337196340       -5.81274348645331       -2.95697573628219
C            3.84150926872409       -7.15196827815615       -2.58112717086480
C            2.69599272705553       -3.70423784057766       -2.62121196252936
C            1.91178718789399       -2.79745051147481       -1.95016524980829
C            1.24181097597281       -3.23261592493759       -0.81095821502535
C           -1.23072009893512       -0.78450051836175       -0.18716678971238
H           -9.45945419940687       -0.29870286407457        2.53750898319196
H           -8.98199192015891       -0.11669506018459        0.83140171638546
H           -8.73738311427284        1.23058920685701        1.97955809181946
H           -5.23333402804610       -1.28569563418195        2.84435127956151
H           -3.06041441087633       -0.78803253903398        1.77594346578771
H           -7.25932395350692        1.34906818504671        0.14106891935064
H           -6.55703347054594        3.01901770606776       -1.87643494450701
H           -5.35360677519983        4.26941777187078       -3.63515621000688
H           -2.94435762588755        3.96061026233556       -3.96491896943267
H           -1.65412852397060        2.43113498502084       -2.53246596059427
H           -0.77639825356517        2.59749632337409       -0.31598424045479
H            0.64055647478660        2.62230430820786       -2.58780796987935
H            1.49150248459225        4.41718609723778       -4.05518904586290
H            3.37934921097779        5.81685766506562       -3.36621843502127
H            4.50034622429120        5.44927815949576       -1.19554695990392
H            5.25658346203437        4.53135271031758        1.26178232399809
H            6.11440304344133        5.28865163549580        3.32303057121185
H            7.18118411244489        4.07446266045681        2.56000573232710
H            7.22209485305721        4.31782845285426        4.32379956765833
H            3.90077171380733        1.53023577391623        4.00264869560224
H            2.10002598382924        0.84967060544205        2.44515541305793
H           -1.31815658280585       -2.18722504172663        2.23743897218003
H           -1.88188651066587       -4.06852639988556        3.73366559248994
H           -0.95566346654133       -6.30316544409093        3.34976099437542
H            0.59100840168237       -6.72508565956089        1.46993713537590
H            2.19527726742567       -6.50417671156482       -0.72700897580971
H            4.53789103807217       -7.56004841024401       -3.31199628977374
H            2.90949439957918       -7.72624862882487       -2.61082353797912
H            4.28202363177809       -7.22483080801118       -1.58164502412275
H            3.24241279262903       -3.41387077744049       -3.50382747881062
H            1.82465513771370       -1.78061511415195       -2.29826971841082
H           -2.01422263672154       -1.52497694521438       -0.25023530199715

 projected vibrational frequencies (cm⁻¹)
eigval :       -0.00    -0.00    -0.00     0.00     0.00     0.00
eigval :       10.92    14.52    15.06    19.45    21.11    24.87
eigval :       38.70    45.65    60.13    66.72    70.48    75.32
eigval :       82.63    91.87    92.23    97.23   113.57   118.90
eigval :      128.89   132.94   140.77   145.30   148.32   153.46
eigval :      154.66   174.67   197.22   201.13   202.59   213.70
eigval :      222.79   234.56   247.96   252.87   257.19   261.78
eigval :      263.20   274.92   290.67   299.81   303.17   305.65
eigval :      338.73   358.17   373.09   378.79   382.76   388.73
eigval :      392.85   393.39   399.07   401.05   408.58   419.58
eigval :      423.67   424.58   438.10   459.67   467.78   473.91
eigval :      483.64   486.65   493.34   499.44   502.70   532.08
eigval :      532.97   536.15   553.06   567.35   576.30   582.28
eigval :      584.49   585.04   586.57   595.90   599.18   604.08
eigval :      617.11   628.38   636.61   648.08   667.03   670.59
eigval :      673.16   674.07   698.29   704.61   704.86   709.64
eigval :      721.34   724.61   755.52   764.96   770.21   771.13
eigval :      778.29   803.31   808.40   808.83   836.19   842.03
eigval :      842.17   847.36   854.39   858.64   861.78   863.35
eigval :      864.36   869.82   878.73   886.69   896.41   897.45
eigval :      901.68   901.82   902.21   904.75   913.23   917.95
eigval :      918.31   922.03   925.35   925.84   994.06  1017.94
eigval :     1021.23  1023.29  1024.61  1060.63  1061.65  1062.19
eigval :     1064.17  1066.82  1069.33  1084.44  1114.91  1115.75
eigval :     1119.94  1120.01  1120.81  1130.29  1136.08  1136.66
eigval :     1155.14  1155.67  1156.17  1157.33  1162.77  1172.39
eigval :     1175.83  1177.70  1190.89  1191.06  1191.55  1195.60
eigval :     1224.41  1225.19  1232.65  1235.42  1237.69  1241.93
eigval :     1244.53  1259.03  1265.27  1269.67  1272.29  1287.37
eigval :     1290.48  1294.98  1311.16  1328.49  1349.48  1351.61
eigval :     1354.25  1357.75  1359.24  1364.08  1366.56  1366.77
eigval :     1394.42  1400.07  1400.62  1401.82  1413.36  1417.64
eigval :     1419.13  1428.14  1433.16  1447.68  1459.55  1465.15
eigval :     1465.63  1470.40  1470.47  1470.75  1480.22  1480.37
eigval :     1480.54  1487.23  1487.58  1487.86  1498.46  1536.94
eigval :     1553.91  1556.12  1556.36  1568.19  1574.23  1576.18
eigval :     1577.75  1581.95  1582.14  1589.81  1597.35  1602.73
eigval :     2187.04  2929.37  2929.83  2929.91  2943.93  2945.27
eigval :     2945.38  3027.55  3027.81  3027.88  3078.52  3079.17
eigval :     3079.58  3083.51  3083.91  3085.22  3088.50  3089.25
eigval :     3090.63  3091.05  3093.94  3097.19  3097.74  3100.32
eigval :     3100.73  3104.21  3104.44  3107.70  3108.03  3108.43
eigval :     3116.23  3116.89  3117.21

   temp. (K)  partition function   enthalpy   heat capacity  entropy
                                   cal/mol     cal/K/mol   cal/K/mol   J/K/mol
 298.15  VIB  0.118E+21            26128.074    162.373    162.564
         ROT  0.111E+09              888.752      2.981     39.794
         INT  0.131E+29            27016.827    165.354    202.359
         TR   0.175E+29             1481.254      4.968     45.450
         TOT                       28498.0807   170.3219   247.8081  1036.8291

       T/K    H(0)-H(T)+PV         H(T)/Eh          T*S/Eh         G(T)/Eh
   ------------------------------------------------------------------------
    298.15    0.454146E-01    0.685831E+00    0.117742E+00    0.568089E+00
   ------------------------------------------------------------------------

         :::::::::::::::::::::::::::::::::::::::::::::::::::::
         ::                  THERMODYNAMIC                  ::
         :::::::::::::::::::::::::::::::::::::::::::::::::::::
         :: total free energy        -138.145785053187 Eh   ::
         ::.................................................::
         :: total energy             -138.713874371249 Eh   ::
         :: zero point energy           0.640416361173 Eh   ::
         :: G(RRHO) w/o ZPVE           -0.072327043111 Eh   ::
         :: G(RRHO) contrib.            0.568089318062 Eh   ::
         :::::::::::::::::::::::::::::::::::::::::::::::::::::

           -------------------------------------------------
          | TOTAL ENERGY             -138.713874371249 Eh   |
          | TOTAL ENTHALPY           -138.028043427788 Eh   |
          | TOTAL FREE ENERGY        -138.145785053187 Eh   |
          | GRADIENT NORM               0.000088559030 Eh/α |
           -------------------------------------------------

 * finished run on 2025/08/30 at 17:16:19.938
