   * xtb version 6.7.1 (edcfbbe) compiled by 'albert@albert-system' on 2024-07-22

   ID    Z sym.   atoms
    1    6 C      1, 3-14, 16-18, 20-28, 30-35, 37, 39-47, 49-53
    2    8 O      2, 29, 48
    3    7 N      15, 19, 36, 38
    4    1 H      54-85

          program call               : xtb data2507/gas/OCzBN/OCzBN.xyz --gfn 2 --ohess vtight --parallel 40 --molden --ceasefiles --namespace data2507/gas/OCzBN/OCzBN_gas_S0_preOpt
          :  Hamiltonian                  GFN2-xTB          :
 * total energy  :  -138.7762256 Eh     change       -0.8364083E-08 Eh
 * total energy  :  -138.7938666 Eh     change       -0.1764093E-01 Eh
 * total energy  :  -138.7977703 Eh     change       -0.3903744E-02 Eh
 * total energy  :  -138.7982957 Eh     change       -0.5253746E-03 Eh
 * total energy  :  -138.7986706 Eh     change       -0.3748910E-03 Eh
 * total energy  :  -138.7988618 Eh     change       -0.1912523E-03 Eh
 * total energy  :  -138.7990200 Eh     change       -0.1581608E-03 Eh
 * total energy  :  -138.7991308 Eh     change       -0.1108039E-03 Eh
 * total energy  :  -138.7992258 Eh     change       -0.9498537E-04 Eh
 * total energy  :  -138.7993039 Eh     change       -0.7807054E-04 Eh
 * total energy  :  -138.8001230 Eh     change       -0.2197656E-06 Eh
 * total energy  :  -138.8001233 Eh     change       -0.2362718E-06 Eh
 * total energy  :  -138.8001236 Eh     change       -0.3358301E-06 Eh
 * total energy  :  -138.8001241 Eh     change       -0.4768227E-06 Eh
 * total energy  :  -138.8001246 Eh     change       -0.5699981E-06 Eh
 * total energy  :  -138.8001251 Eh     change       -0.5066294E-06 Eh
 * total energy  :  -138.8001255 Eh     change       -0.3792929E-06 Eh
 * total energy  :  -138.8001258 Eh     change       -0.2753857E-06 Eh
 * total energy  :  -138.8001258 Eh     change       -0.2896741E-08 Eh
   *** GEOMETRY OPTIMIZATION CONVERGED AFTER 68 ITERATIONS ***

 final structure:
================
85
 xtb: 6.7.1 (edcfbbe)
C           -7.70086552593302       -4.12169373615703        1.30284283620642
O           -6.98962272238168       -2.93990731163898        1.57314584160917
C           -5.71641252600420       -2.82608602937915        1.09423784269195
C           -5.07096720167492       -1.62057258125093        1.41083354810909
C           -3.78656373561890       -1.35113061798845        0.99273026421758
C           -3.13491223888999       -2.30891914108815        0.22785030282355
C           -3.76095881290616       -3.53569022561753       -0.06856507695493
C           -5.05771254829262       -3.79824448422308        0.35904109984497
C           -2.80812610923634       -4.31658366688308       -0.80736961072661
C           -2.85495986114426       -5.57899737100829       -1.38380400182296
C           -1.74684693439235       -6.03575052080579       -2.06859440917168
C           -0.61010687231939       -5.24188525322622       -2.19848834712957
C           -0.54010427809300       -3.98231595961274       -1.63384092556677
C           -1.63873072936149       -3.53020413489291       -0.91730157324801
N           -1.84630795231482       -2.31524300536680       -0.28777731652314
C           -0.92641618892524       -1.27527374161969       -0.19352996444836
C           -1.31947502501478        0.03284780581821       -0.46730883583398
C           -0.41330724747883        1.07794988005569       -0.36169507129471
N           -0.83230460960495        2.38230734830080       -0.61778677067074
C           -1.47057821613747        2.81016529601742       -1.76669422450216
C           -1.79805770300670        2.09862001764357       -2.91088200202481
C           -2.41313456907258        2.78393374960814       -3.94154080781311
C           -2.68897151573255        4.14562589117953       -3.84538444709745
C           -2.34537779584550        4.86228973015177       -2.71634815322196
C           -1.72847916791269        4.19599998242091       -1.66579591496109
C           -1.23640470570749        4.61261093915580       -0.38190520630488
C           -1.24651397781275        5.83740389797161        0.27648673143472
C           -0.71890767700937        5.89887162362103        1.55582926922322
O           -0.66023538640112        7.02905404076628        2.32002465506176
C           -1.12986565195957        8.23250495378788        1.76683868127410
C           -0.21075386408062        4.74345024600352        2.16974213544194
C           -0.19529125756992        3.52604877970901        1.52704382161900
C           -0.69043477786230        3.46931601225706        0.23242609995430
C            0.92305309502269        0.81487285602959       -0.00808224217945
C            1.85718311613654        1.86914448432879        0.08353755662140
N            2.61678238786364        2.72538106226176        0.15725103915672
C            1.31942314247457       -0.50969066561907        0.25285738683600
N            2.63854621753930       -0.79714416262599        0.59983902751415
C            3.03987428906333       -1.48907223921123        1.72694995819719
C            2.27685578250255       -2.00352819009004        2.76420103481961
C            2.94007037932235       -2.63206958105599        3.80115258638606
C            4.32848839124825       -2.74027973466526        3.81554682899979
C            5.09320904668217       -2.21094025631959        2.79506914479891
C            4.45034950528723       -1.57648480457438        1.74035360634390
C            4.91346907459352       -0.91990118752236        0.54937030391868
C            6.18274561824847       -0.72769262874673        0.01481613179877
C            6.28992928001074       -0.07703454590799       -1.20336799403972
O            7.46645081651080        0.18202593820101       -1.84650414172361
C            8.66572768597998       -0.19836796497891       -1.22051122255223
C            5.13871072053850        0.35286953888664       -1.88160146241992
C            3.87743726119982        0.16836426531687       -1.36146834840892
C            3.76958802116130       -0.45165371790388       -0.12518973201579
C            0.39118684304782       -1.53769410100188        0.17495073726907
H           -8.67757843822993       -3.99107652074195        1.76603407310052
H           -7.20849431669206       -4.99693677437708        1.73980685430506
H           -7.82951609608062       -4.27694348057245        0.22640408615071
H           -5.61620378457052       -0.90349000376069        2.00320220357338
H           -3.30816548209374       -0.42509538076744        1.27157252797918
H           -5.51450372772743       -4.74424841468258        0.11831742264437
H           -3.74434165700701       -6.18504413883071       -1.30076350936805
H           -1.76118115636769       -7.01571387961510       -2.52139350216231
H            0.23521091454163       -5.61593888109829       -2.75659550445267
H            0.33985062694385       -3.37099109313669       -1.76460989912429
H           -2.33541674354087        0.24180539037430       -0.76303939746215
H           -1.57407412134206        1.04602519797406       -3.00246782220383
H           -2.68206872999894        2.25190028674125       -4.84200736890271
H           -3.17134681188344        4.64537709211966       -4.67204506052436
H           -2.54637145188703        5.92073190773192       -2.64951906315566
H           -1.66606512765117        6.70028698655870       -0.21451634955012
H           -0.57578608429874        8.50255313370013        0.86175697112064
H           -0.96503502476067        8.99236367076348        2.52922251054758
H           -2.19937882293689        8.17979916149829        1.53584209129457
H            0.17110808164336        4.83835548769487        3.17330090917135
H            0.18919230956126        2.65101462066929        2.02815044780230
H            1.20080497850436       -1.91086379010997        2.77090078351820
H            2.36869107925702       -3.04476625104562        4.61932757649804
H            4.80972339798564       -3.23917252086195        4.64339217841961
H            6.17007857021331       -2.28252780197801        2.81531182824670
H            7.04460829223306       -1.09107856529227        0.55038168947247
H            9.46295973918645        0.12349659053039       -1.88879989222775
H            8.72397718063467       -1.28406180518579       -1.08669028377540
H            8.78688376637075        0.29408031141662       -0.24999866530372
H            5.27292701044996        0.83732476697770       -2.83515206558037
H            3.00871655789211        0.49732255100208       -1.91077537993030
H            0.69942178293761       -2.54609663218780        0.40182294037290

          :  Hamiltonian                  GFN2-xTB          :
         :: gradient norm              0.000041529894 Eh/a0 ::
         :: HOMO-LUMO gap              2.130062690360 eV    ::
         :: SCC energy              -141.185775998700 Eh    ::
         :: -> dispersion             -0.120240337241 Eh    ::
         :: repulsion energy           2.385650192014 Eh    ::

    * Orbital Energies and Occupations

         #    Occupation            Energy/Eh            Energy/eV
      -------------------------------------------------------------
         1        2.0000           -0.7170690             -19.5124
       ...           ...                  ...                  ...
       115        2.0000           -0.4207911             -11.4503
       116        2.0000           -0.4197226             -11.4212
       117        2.0000           -0.4179212             -11.3722
       118        2.0000           -0.4177007             -11.3662
       119        2.0000           -0.4034516             -10.9785
       120        2.0000           -0.3975836             -10.8188
       121        2.0000           -0.3973441             -10.8123
       122        2.0000           -0.3849942             -10.4762
       123        2.0000           -0.3785696             -10.3014
       124        2.0000           -0.3783550             -10.2956
       125        2.0000           -0.3660165              -9.9598
       126        2.0000           -0.3597025              -9.7880
       127        2.0000           -0.3589481              -9.7675 (HOMO)
       128                         -0.2806698              -7.6374 (LUMO)
       129                         -0.2577860              -7.0147
       130                         -0.2529326              -6.8826
       131                         -0.2466801              -6.7125
       132                         -0.2448979              -6.6640
       133                         -0.2267454              -6.1701
       134                         -0.2203471              -5.9960
       135                         -0.2199959              -5.9864
       136                         -0.2071100              -5.6357
       137                         -0.2051247              -5.5817
       138                         -0.1933975              -5.2626
       ...                                ...                  ...
       244                          1.1709530              31.8633
      -------------------------------------------------------------
                  HL-Gap            0.0782784 Eh            2.1301 eV

     #   Z          covCN         q      C6AA      α(0)
     1   6 C        3.645     0.039    20.256     6.469
     2   8 O        1.705    -0.272    18.511     5.809
     3   6 C        2.867     0.136    25.026     8.200
     4   6 C        2.925    -0.056    29.379     8.889
     5   6 C        2.909    -0.049    29.216     8.863
     6   6 C        3.071     0.036    27.124     8.539
     7   6 C        3.067    -0.016    28.329     8.728
     8   6 C        2.911    -0.071    29.763     8.946
     9   6 C        3.069    -0.015    28.304     8.724
    10   6 C        2.913    -0.032    28.794     8.799
    11   6 C        2.920    -0.039    28.973     8.827
    12   6 C        2.924    -0.032    28.801     8.801
    13   6 C        2.910    -0.050    29.242     8.867
    14   6 C        3.069     0.046    26.897     8.504
    15   7 N        2.803    -0.039    21.990     6.965
    16   6 C        2.909     0.072    26.389     8.423
    17   6 C        2.925    -0.066    29.641     8.928
    18   6 C        2.915     0.074    26.340     8.416
    19   7 N        2.804    -0.045    22.116     6.985
    20   6 C        3.072     0.047    26.876     8.500
    21   6 C        2.910    -0.051    29.257     8.869
    22   6 C        2.924    -0.033    28.815     8.803
    23   6 C        2.920    -0.040    28.989     8.829
    24   6 C        2.913    -0.032    28.787     8.798
    25   6 C        3.069    -0.014    28.284     8.720
    26   6 C        3.068    -0.015    28.314     8.725
    27   6 C        2.911    -0.070    29.744     8.943
    28   6 C        2.867     0.137    25.005     8.197
    29   8 O        1.705    -0.271    18.498     5.807
    30   6 C        3.645     0.039    20.255     6.469
    31   6 C        2.926    -0.052    29.300     8.877
    32   6 C        2.909    -0.043    29.077     8.842
    33   6 C        3.072     0.039    27.055     8.529
    34   6 C        2.974    -0.018    28.461     8.751
    35   6 C        1.908     0.119    28.167     8.571
    36   7 N        0.911    -0.235    26.160     7.397
    37   6 C        2.915     0.074    26.342     8.416
    38   7 N        2.804    -0.046    22.119     6.985
    39   6 C        3.072     0.047    26.875     8.500
    40   6 C        2.910    -0.051    29.257     8.869
    41   6 C        2.924    -0.033    28.815     8.803
    42   6 C        2.920    -0.040    28.990     8.830
    43   6 C        2.913    -0.032    28.789     8.798
    44   6 C        3.069    -0.014    28.286     8.721
    45   6 C        3.068    -0.015    28.316     8.725
    46   6 C        2.911    -0.070    29.746     8.943
    47   6 C        2.867     0.137    25.007     8.197
    48   8 O        1.705    -0.271    18.501     5.807
    49   6 C        3.645     0.039    20.254     6.469
    50   6 C        2.926    -0.052    29.301     8.877
    51   6 C        2.909    -0.043    29.079     8.842
    52   6 C        3.072     0.039    27.055     8.528
    53   6 C        2.925    -0.066    29.634     8.927
    54   1 H        0.925     0.061     2.186     2.312
    55   1 H        0.924     0.039     2.462     2.454
    56   1 H        0.924     0.039     2.461     2.453
    57   1 H        0.926     0.052     2.299     2.371
    58   1 H        0.926     0.036     2.500     2.472
    59   1 H        0.926     0.039     2.468     2.457
    60   1 H        0.926     0.033     2.548     2.496
    61   1 H        0.926     0.032     2.564     2.504
    62   1 H        0.926     0.033     2.545     2.495
    63   1 H        0.926     0.029     2.603     2.523
    64   1 H        0.926     0.058     2.225     2.332
    65   1 H        0.926     0.024     2.667     2.554
    66   1 H        0.926     0.031     2.571     2.507
    67   1 H        0.926     0.031     2.578     2.511
    68   1 H        0.926     0.033     2.547     2.496
    69   1 H        0.926     0.039     2.465     2.455
    70   1 H        0.924     0.040     2.449     2.447
    71   1 H        0.925     0.061     2.193     2.316
    72   1 H        0.924     0.038     2.480     2.463
    73   1 H        0.926     0.053     2.277     2.360
    74   1 H        0.926     0.031     2.576     2.510
    75   1 H        0.926     0.025     2.665     2.553
    76   1 H        0.926     0.031     2.569     2.507
    77   1 H        0.926     0.031     2.578     2.511
    78   1 H        0.926     0.033     2.548     2.496
    79   1 H        0.926     0.039     2.467     2.456
    80   1 H        0.925     0.060     2.193     2.316
    81   1 H        0.924     0.038     2.481     2.463
    82   1 H        0.924     0.040     2.448     2.447
    83   1 H        0.926     0.053     2.278     2.360
    84   1 H        0.926     0.031     2.577     2.510
    85   1 H        0.926     0.057     2.230     2.335

molecular dipole:
                 x           y           z       tot (Debye)
 q only:       -0.765      -0.974      -0.138
   full:       -1.062      -1.422      -0.221       4.544

 projected vibrational frequencies (cm⁻¹)
eigval :       -0.00    -0.00     0.00     0.00     0.00     0.00
eigval :       13.61    14.26    16.43    17.18    19.96    23.09
eigval :       43.82    47.76    63.04    69.85    71.53    78.11
eigval :       82.85    93.04    94.32    99.90   115.37   122.43
eigval :      131.58   136.39   142.66   146.37   154.98   155.30
eigval :      157.54   174.73   196.19   206.88   208.63   219.53
eigval :      226.39   240.97   249.70   255.58   258.14   266.55
eigval :      267.96   278.28   296.73   301.55   303.68   307.28
eigval :      343.49   364.90   378.19   380.68   384.95   395.67
eigval :      397.42   398.25   400.09   401.79   426.82   428.00
eigval :      428.52   441.98   468.96   470.89   475.78   490.80
eigval :      492.58   497.83   503.05   521.11   527.87   530.82
eigval :      532.32   553.81   556.39   576.14   585.34   586.30
eigval :      586.60   592.36   594.41   600.97   604.18   623.29
eigval :      639.89   645.95   650.17   669.34   669.46   670.54
eigval :      674.86   692.80   704.07   704.40   705.67   714.43
eigval :      723.44   728.62   761.38   774.10   774.34   775.55
eigval :      794.56   805.73   806.04   808.09   848.98   849.90
eigval :      850.00   857.73   859.20   861.90   865.57   869.11
eigval :      872.44   881.83   894.26   900.25   902.74   902.87
eigval :      903.19   903.45   907.51   914.82   921.86   922.42
eigval :      924.57   925.55   926.39   929.21  1018.86  1023.09
eigval :     1023.84  1034.93  1046.65  1065.82  1066.16  1067.53
eigval :     1072.55  1072.79  1074.56  1101.39  1123.08  1123.41
eigval :     1123.48  1123.49  1144.85  1145.63  1145.73  1150.37
eigval :     1158.18  1158.51  1158.57  1164.99  1179.27  1180.88
eigval :     1181.06  1189.89  1191.33  1191.71  1193.47  1194.67
eigval :     1221.14  1235.39  1237.24  1242.83  1247.57  1249.18
eigval :     1256.06  1272.53  1277.07  1285.75  1302.31  1309.03
eigval :     1316.08  1318.65  1338.68  1350.34  1355.15  1355.19
eigval :     1355.57  1361.28  1362.26  1363.61  1400.99  1401.63
eigval :     1402.05  1410.91  1418.36  1421.40  1424.15  1425.22
eigval :     1427.15  1445.84  1452.74  1468.03  1472.49  1472.75
eigval :     1472.76  1476.15  1476.74  1479.13  1484.33  1484.82
eigval :     1484.87  1491.14  1491.48  1491.52  1524.77  1559.16
eigval :     1572.47  1573.75  1574.30  1585.28  1586.51  1587.00
eigval :     1602.27  1602.40  1603.27  1616.79  1617.94  1618.26
eigval :     2361.06  2924.23  2924.35  2926.14  2940.53  2940.61
eigval :     2940.94  3026.08  3026.11  3027.47  3075.81  3075.91
eigval :     3080.00  3081.34  3081.36  3084.21  3088.02  3088.05
eigval :     3088.70  3088.72  3091.20  3091.78  3097.18  3097.26
eigval :     3098.89  3110.04  3110.14  3111.07  3111.16  3111.91
eigval :     3114.39  3116.22  3116.31

   temp. (K)  partition function   enthalpy   heat capacity  entropy
                                   cal/mol     cal/K/mol   cal/K/mol   J/K/mol
 298.15  VIB  0.510E+20            25773.929    160.773    160.188
         ROT  0.110E+09              888.752      2.981     39.781
         INT  0.562E+28            26662.681    163.754    199.969
         TR   0.175E+29             1481.254      4.968     45.450
         TOT                       28143.9353   168.7223   245.4190  1026.8331

       T/K    H(0)-H(T)+PV         H(T)/Eh          T*S/Eh         G(T)/Eh
   ------------------------------------------------------------------------
    298.15    0.448502E-01    0.689694E+00    0.116606E+00    0.573087E+00
   ------------------------------------------------------------------------

         :::::::::::::::::::::::::::::::::::::::::::::::::::::
         ::                  THERMODYNAMIC                  ::
         :::::::::::::::::::::::::::::::::::::::::::::::::::::
         :: total free energy        -138.227038569120 Eh   ::
         ::.................................................::
         :: total energy             -138.800125806687 Eh   ::
         :: zero point energy           0.644843504494 Eh   ::
         :: G(RRHO) w/o ZPVE           -0.071756266927 Eh   ::
         :: G(RRHO) contrib.            0.573087237567 Eh   ::
         :::::::::::::::::::::::::::::::::::::::::::::::::::::

           -------------------------------------------------
          | TOTAL ENERGY             -138.800125806687 Eh   |
          | TOTAL ENTHALPY           -138.110432086452 Eh   |
          | TOTAL FREE ENERGY        -138.227038569120 Eh   |
          | GRADIENT NORM               0.000041499493 Eh/α |
          | HOMO-LUMO GAP               2.130062415198 eV   |
           -------------------------------------------------

 * finished run on 2025/08/30 at 16:57:49.795
