   * xtb version 6.7.1 (edcfbbe) compiled by 'albert@albert-system' on 2024-07-22

   ID    Z sym.   atoms
    1    6 C      1, 3-14, 16-18, 20-28, 30-35, 37, 39-47, 49-53
    2    8 O      2, 29, 48
    3    7 N      15, 19, 36, 38
    4    1 H      54-85

          program call               : xtb data2507/gas/OCzBN/OCzBN_gas_S0_finalOpt.xtbopt.xyz --gfn 2 --spinpol --tblite --uhf 2 --ohess vtight --parallel 40 --molden --ceasefiles --namespace data2507/gas/OCzBN/OCzBN_gas_T1_preOpt
 * total energy  :  -138.7087033 Eh     change        0.8331142E-08 Eh
 * total energy  :  -138.7121205 Eh     change       -0.3417125E-02 Eh
 * total energy  :  -138.7134305 Eh     change       -0.1310029E-02 Eh
 * total energy  :  -138.7135335 Eh     change       -0.1030290E-03 Eh
 * total energy  :  -138.7136056 Eh     change       -0.7205664E-04 Eh
 * total energy  :  -138.7136223 Eh     change       -0.1669921E-04 Eh
 * total energy  :  -138.7136404 Eh     change       -0.1806949E-04 Eh
 * total energy  :  -138.7136467 Eh     change       -0.6373534E-05 Eh
 * total energy  :  -138.7136498 Eh     change       -0.3106119E-05 Eh
 * total energy  :  -138.7136524 Eh     change       -0.2563900E-05 Eh
 * total energy  :  -138.7136924 Eh     change       -0.3599986E-06 Eh
 * total energy  :  -138.7136927 Eh     change       -0.2254276E-06 Eh
 * total energy  :  -138.7136929 Eh     change       -0.1981987E-06 Eh
 * total energy  :  -138.7136930 Eh     change       -0.1498334E-06 Eh
 * total energy  :  -138.7136932 Eh     change       -0.1520017E-06 Eh
 * total energy  :  -138.7136933 Eh     change       -0.1701183E-06 Eh
 * total energy  :  -138.7136935 Eh     change       -0.1481581E-06 Eh
 * total energy  :  -138.7136936 Eh     change       -0.1550319E-06 Eh
 * total energy  :  -138.7136937 Eh     change       -0.2983512E-08 Eh
   *** GEOMETRY OPTIMIZATION CONVERGED AFTER 41 ITERATIONS ***

 final structure:
================
85
 xtb: 6.7.1 (edcfbbe)
C           -7.81469194293097       -4.05436075330102        0.72082250933643
O           -6.55050991766634       -3.93190954757179        1.32346850106605
C           -5.63815843515015       -3.09246340317749        0.75996246061886
C           -4.40416615305349       -3.02304228953639        1.43486993471163
C           -3.37841120549504       -2.22731138428588        0.98199097207706
C           -3.58015757070961       -1.48433334991920       -0.17598182696312
C           -4.83123558745219       -1.52020663655980       -0.84259117689975
C           -5.85999015817437       -2.33132568757670       -0.37867635462548
C           -4.73220493925138       -0.60565623794295       -1.94022444366217
C           -5.60918294112665       -0.21361158487384       -2.94307694049486
C           -5.17023491522523        0.68737421788021       -3.89392307109527
C           -3.86804218102429        1.18520944189602       -3.86451227700593
C           -2.97799801130278        0.81492392773028       -2.87303018574684
C           -3.42029451311766       -0.06529365757664       -1.89596063415986
N           -2.74024241537761       -0.60088075731078       -0.81805481527325
C           -1.42877567347861       -0.30890627076638       -0.45782579266422
C           -0.97324377675692        1.03106797748220       -0.43328107503701
C            0.32327686790124        1.33220462545761       -0.13164503197218
N            0.74809082485442        2.66402638575389       -0.05137222912632
C            1.85436190536248        3.19958927889585       -0.67685593787070
C            2.73159966176426        2.60963879176579       -1.57486353001360
C            3.75853369851646        3.38471878383981       -2.07842575804025
C            3.90363023895337        4.72113844752426       -1.71553799814559
C            3.01360298651631        5.32421680482871       -0.84596514809665
C            1.97730582759375        4.56452455694473       -0.32409477503372
C            0.88284967824331        4.85419266689570        0.56065794443853
C            0.48888213058915        6.00472567794816        1.22910530846671
C           -0.63506925306209        5.94225807246135        2.04275281910682
O           -1.13887407306193        6.99035785152651        2.75177170931755
C           -0.48353938359479        8.23199949394784        2.67430419600783
C           -1.34046098297763        4.73471640659464        2.19083402732545
C           -0.96038385009366        3.58886681008863        1.53211355387013
C            0.15127834031394        3.65146518395822        0.69837127916870
C            1.27467609380036        0.28559883419123        0.17994145946640
C            2.51722430076781        0.57216571120215        0.69825954646802
N            3.57549210603707        0.80519409053645        1.11929199873075
C            0.79252007121567       -1.07871173935990        0.10961873631208
N            1.69616435780817       -2.11449134832948        0.37522341427018
C            1.53722650461434       -3.10476513853954        1.32186965023531
C            0.50263712281815       -3.30634632087817        2.22278927234390
C            0.59751945636153       -4.37927229045738        3.08919581244553
C            1.69904750288704       -5.23094947663758        3.06870714673129
C            2.74700642022573       -5.01954945401257        2.19134287993778
C            2.67390791580656       -3.94886884453313        1.31272957736027
C            3.55677373590045       -3.42715064419779        0.30587778855109
C            4.80087117862129       -3.82828487079798       -0.15842866672853
C            5.38743196014405       -3.09784765886919       -1.18463069596062
O            6.60028811973460       -3.37342191330654       -1.73562317286419
C            7.34883865714884       -4.44502708353870       -1.21716678394267
C            4.71882424588719       -1.99523443968308       -1.74695080528670
C            3.48624993783347       -1.59070473105861       -1.29500080401192
C            2.90941757412529       -2.29728871366696       -0.24493800108384
C           -0.51423630839684       -1.35126807950674       -0.17553144107026
H           -8.36476441537506       -4.76954784982496        1.33036997780061
H           -7.73697184546302       -4.43588054992814       -0.30257184171487
H           -8.35027730468859       -3.09933503152539        0.71271671756485
H           -4.29109134391509       -3.61472153931208        2.32873075640143
H           -2.44981645167662       -2.17291585394849        1.52668301071945
H           -6.80172787831545       -2.34710415202883       -0.90297797756058
H           -6.61218173333698       -0.61161498442346       -2.97937077334970
H           -5.83806783189845        1.00385974189004       -4.68117530589986
H           -3.54589177764010        1.86912756536642       -4.63527747096299
H           -1.96535436314718        1.18786328824710       -2.87489842225121
H           -1.67329574473240        1.82761392696106       -0.63534019024975
H            2.61924606049028        1.57951976727645       -1.87320960847030
H            4.46140123627884        2.94508173476082       -2.76982579274496
H            4.72055618869429        5.29444482837021       -2.12757790722475
H            3.11980369532452        6.36490754458838       -0.57877437207983
H            1.05995005757825        6.91122254133744        1.11101542475877
H            0.54549368535475        8.16687228764976        3.04238822611253
H           -1.05186879213870        8.90617048376780        3.31316051604006
H           -0.47964370240099        8.62133781109173        1.65086750018888
H           -2.19514666173075        4.73517406990981        2.84803100412229
H           -1.50420291640687        2.66762391445779        1.67222101121969
H           -0.34236892303488       -2.63643250248714        2.25817561218715
H           -0.19673898113803       -4.55819293523941        3.79841958848529
H            1.73696858216824       -6.06128104100781        3.75779130125610
H            3.60847871124812       -5.67014884322186        2.19257321438133
H            5.28217032184209       -4.68767281647971        0.27956249352438
H            8.27721499521673       -4.45926299841597       -1.78599059207464
H            6.82944731643644       -5.39993390732328       -1.35000551135037
H            7.57656030854620       -4.29912793370081       -0.15644832673726
H            5.21022742588633       -1.47381185928305       -2.55233545182218
H            2.98311571883527       -0.75147039139181       -1.74720169648427
H           -0.84270338748784       -2.37693174930977       -0.25268016969658

 projected vibrational frequencies (cm⁻¹)
eigval :       -0.00    -0.00     0.00     0.00     0.00     0.00
eigval :       12.80    13.99    16.53    19.54    20.93    23.78
eigval :       39.41    53.72    55.58    67.18    69.63    78.40
eigval :       82.89    92.16    94.36    98.81   114.55   117.20
eigval :      127.08   129.83   142.28   143.81   145.73   153.39
eigval :      156.06   174.60   195.58   198.20   204.68   213.68
eigval :      226.08   233.60   245.01   254.55   261.11   261.66
eigval :      264.87   276.74   291.44   299.70   300.30   305.44
eigval :      337.47   358.48   371.87   377.39   380.76   389.41
eigval :      392.36   394.18   396.61   401.10   406.09   420.29
eigval :      422.46   424.22   436.51   464.87   466.11   475.18
eigval :      483.64   486.39   493.45   499.23   503.33   531.98
eigval :      532.95   537.98   549.21   572.60   576.27   579.41
eigval :      582.57   585.23   586.20   597.51   598.80   601.39
eigval :      619.37   623.17   631.09   654.30   667.30   671.61
eigval :      672.76   677.84   698.48   704.35   704.86   706.27
eigval :      721.35   724.56   755.05   766.97   768.32   769.77
eigval :      777.67   803.78   806.15   809.71   836.83   839.44
eigval :      842.48   851.11   854.14   859.50   860.58   861.30
eigval :      863.17   870.27   880.30   887.12   895.80   896.33
eigval :      900.57   902.12   904.58   908.18   916.52   917.27
eigval :      918.10   921.83   922.61   927.15   993.93  1016.38
eigval :     1020.39  1022.16  1025.66  1060.59  1061.70  1062.48
eigval :     1067.04  1068.12  1069.05  1087.21  1110.80  1115.16
eigval :     1120.02  1120.62  1120.79  1131.55  1134.09  1137.11
eigval :     1155.24  1155.49  1156.32  1158.10  1158.97  1174.88
eigval :     1176.96  1177.44  1190.60  1191.61  1192.03  1196.26
eigval :     1217.79  1227.18  1231.67  1233.06  1236.27  1242.16
eigval :     1243.52  1258.48  1265.44  1268.85  1272.97  1283.92
eigval :     1289.62  1303.00  1311.83  1323.11  1351.47  1352.39
eigval :     1353.59  1356.80  1358.21  1363.49  1364.25  1367.74
eigval :     1395.00  1400.45  1400.95  1402.11  1414.49  1417.96
eigval :     1418.14  1426.76  1433.84  1448.23  1459.63  1464.65
eigval :     1465.57  1470.28  1470.59  1470.74  1480.29  1480.69
eigval :     1480.97  1487.08  1487.62  1487.85  1496.05  1536.21
eigval :     1550.61  1556.39  1557.47  1568.15  1571.63  1575.35
eigval :     1577.52  1581.55  1583.10  1585.29  1596.41  1601.97
eigval :     2188.20  2929.36  2930.18  2930.34  2943.84  2944.63
eigval :     2945.76  3027.48  3027.55  3027.89  3078.90  3080.20
eigval :     3080.36  3084.39  3085.29  3086.97  3090.33  3091.20
eigval :     3092.60  3093.13  3094.49  3094.89  3098.83  3099.12
eigval :     3101.47  3103.58  3103.72  3108.43  3108.82  3110.07
eigval :     3114.08  3116.97  3117.11

   temp. (K)  partition function   enthalpy   heat capacity  entropy
                                   cal/mol     cal/K/mol   cal/K/mol   J/K/mol
 298.15  VIB  0.892E+20            26123.353    162.523    162.398
         ROT  0.111E+09              888.752      2.981     39.793
         INT  0.989E+28            27012.106    165.504    202.191
         TR   0.175E+29             1481.254      4.968     45.450
         TOT                       28493.3595   170.4717   247.6405  1036.1280

       T/K    H(0)-H(T)+PV         H(T)/Eh          T*S/Eh         G(T)/Eh
   ------------------------------------------------------------------------
    298.15    0.454071E-01    0.685799E+00    0.117662E+00    0.568137E+00
   ------------------------------------------------------------------------

         :::::::::::::::::::::::::::::::::::::::::::::::::::::
         ::                  THERMODYNAMIC                  ::
         :::::::::::::::::::::::::::::::::::::::::::::::::::::
         :: total free energy        -138.145556252983 Eh   ::
         ::.................................................::
         :: total energy             -138.713693691920 Eh   ::
         :: zero point energy           0.640392387765 Eh   ::
         :: G(RRHO) w/o ZPVE           -0.072254948828 Eh   ::
         :: G(RRHO) contrib.            0.568137438937 Eh   ::
         :::::::::::::::::::::::::::::::::::::::::::::::::::::

           -------------------------------------------------
          | TOTAL ENERGY             -138.713693691920 Eh   |
          | TOTAL ENTHALPY           -138.027894245569 Eh   |
          | TOTAL FREE ENERGY        -138.145556252983 Eh   |
          | GRADIENT NORM               0.000086360364 Eh/α |
           -------------------------------------------------

 * finished run on 2025/08/30 at 17:05:38.641
