   * xtb version 6.7.1 (edcfbbe) compiled by 'albert@albert-system' on 2024-07-22

   ID    Z sym.   atoms
    1    6 C      1, 3-14, 16-18, 20-28, 30-35, 37, 39-47, 49-53
    2    8 O      2, 29, 48
    3    7 N      15, 19, 36, 38
    4    1 H      54-85

          program call               : xtb data2507/gas/OCzBN/OCzBN_gas_S0_crest.xyz --gfn 2 --ohess vtight --parallel 40 --molden --ceasefiles --namespace data2507/gas/OCzBN/OCzBN_gas_S0_finalOpt
          :  Hamiltonian                  GFN2-xTB          :
 * total energy  :  -138.8016837 Eh     change       -0.7475791E-08 Eh
 * total energy  :  -138.8016844 Eh     change       -0.7620005E-06 Eh
 * total energy  :  -138.8016853 Eh     change       -0.8777214E-06 Eh
 * total energy  :  -138.8016876 Eh     change       -0.2268903E-05 Eh
 * total energy  :  -138.8016908 Eh     change       -0.3170841E-05 Eh
 * total energy  :  -138.8016926 Eh     change       -0.1820265E-05 Eh
 * total energy  :  -138.8016935 Eh     change       -0.9626704E-06 Eh
 * total energy  :  -138.8016947 Eh     change       -0.1137980E-05 Eh
 * total energy  :  -138.8016959 Eh     change       -0.1194093E-05 Eh
 * total energy  :  -138.8016964 Eh     change       -0.5724997E-06 Eh
 * total energy  :  -138.8016980 Eh     change       -0.2189969E-06 Eh
 * total energy  :  -138.8016982 Eh     change       -0.1688763E-06 Eh
 * total energy  :  -138.8016984 Eh     change       -0.2039190E-06 Eh
 * total energy  :  -138.8016986 Eh     change       -0.1995145E-06 Eh
 * total energy  :  -138.8016988 Eh     change       -0.2202876E-06 Eh
 * total energy  :  -138.8016991 Eh     change       -0.2809650E-06 Eh
 * total energy  :  -138.8016993 Eh     change       -0.2271779E-06 Eh
 * total energy  :  -138.8016994 Eh     change       -0.1008883E-06 Eh
 * total energy  :  -138.8016994 Eh     change       -0.1234440E-08 Eh
   *** GEOMETRY OPTIMIZATION CONVERGED AFTER 22 ITERATIONS ***

 final structure:
================
85
 xtb: 6.7.1 (edcfbbe)
C           -7.81889152967219       -3.99129455760246        0.77752100429878
O           -6.55033969150032       -3.89220849705718        1.37449226425854
C           -5.62892087208760       -3.06218498461389        0.80391243209083
C           -4.39024506920807       -3.01221725645224        1.46189018929295
C           -3.35642882421732       -2.22624033572263        1.00404335890795
C           -3.56043372282350       -1.48060654269498       -0.14815332134462
C           -4.80970352218814       -1.49979828004555       -0.79908423357204
C           -5.84890482344232       -2.29468750745287       -0.32844421859758
C           -4.71175926579504       -0.58667381966038       -1.90341266488511
C           -5.59537122537427       -0.20741193608948       -2.90521364011721
C           -5.16732927617893        0.69321353330772       -3.85959832657287
C           -3.86985317317858        1.19831496316950       -3.83352290461974
C           -2.97294017741767        0.83572414891096       -2.84654357903257
C           -3.40678843799158       -0.04478505294181       -1.86606071378572
N           -2.71636905184534       -0.59189709915653       -0.79809099377690
C           -1.39771297172987       -0.30953758954953       -0.45074670065044
C           -0.96132757346245        1.01266196764848       -0.40415934161422
C            0.35671629971254        1.31071473011826       -0.08785466895286
N            0.76937708197289        2.63878596762972       -0.02318507406358
C            1.88343513453917        3.18435701222366       -0.63675951228451
C            2.78423172835753        2.60142167638528       -1.51407330476899
C            3.79982987602304        3.39055251920428       -2.01786540590169
C            3.91219484745810        4.73530738186702       -1.67478305370875
C            2.99634377530593        5.33089047578817       -0.83122006007039
C            1.96848457944847        4.55604759597170       -0.31049343933431
C            0.85218666600269        4.84503920662979        0.54631328467598
C            0.43561618155828        6.00631765947204        1.18742236690873
C           -0.69968031966223        5.94888761736831        1.97954766971136
O           -1.22797398910012        7.00736184349112        2.66242434807417
C           -0.57759207384522        8.24997549341270        2.57169846955974
C           -1.39349398915189        4.73918697740543        2.13622464749544
C           -0.98853959020156        3.58246402100033        1.50712931501912
C            0.13302230989928        3.64287894015551        0.69266566122605
C            1.25779254684215        0.26878088236649        0.19841181076673
C            2.55401007337677        0.55894911946315        0.67461326637152
N            3.58479847634500        0.79181250339991        1.12059949633567
C            0.81916707879478       -1.06682492880707        0.12857136897052
N            1.71315450569340       -2.10703602798266        0.37440424815323
C            1.53164741260771       -3.13568864097064        1.27996127252637
C            0.48429791743981       -3.36463770352786        2.15840418700171
C            0.56306660102733       -4.46740991390345        2.98718686013332
C            1.66387749366359       -5.31968503399931        2.95667816356894
C            2.72431255699753       -5.07910777251590        2.10586566853096
C            2.66592699818874       -3.97832499231956        1.26149666658674
C            3.56944185019267       -3.42884807097209        0.28925833230590
C            4.81601820998024       -3.83714779400677       -0.17188008459280
C            5.42636898104433       -3.08900418348605       -1.16524335935821
O            6.64765549304466       -3.36588993555073       -1.70945736877789
C            7.36955903235324       -4.46042738469712       -1.20355301029850
C            4.78091675894010       -1.96480773158541       -1.70289452043886
C            3.54651723660512       -1.55380882489306       -1.25342558610426
C            2.94960715291001       -2.27714907158567       -0.23189751649094
C           -0.50306190882979       -1.34505267855874       -0.18667637135440
H           -8.37714161726868       -4.70092269589786        1.38610893574774
H           -7.75270132813921       -4.36899512168326       -0.24832187414910
H           -8.34011089665705       -3.02810326151537        0.77705086379003
H           -4.27223219793150       -3.61113565437024        2.35055311541486
H           -2.42394630021878       -2.18868208285472        1.54372095569663
H           -6.79488221224442       -2.29149388245306       -0.84484368467131
H           -6.59388762329800       -0.61627427064619       -2.93667543786572
H           -5.83933836273939        1.00362286043475       -4.64547788510647
H           -3.55451528958864        1.88574142653577       -4.60424434931564
H           -1.96374407537214        1.21835266642053       -2.85568289120695
H           -1.65077864767169        1.81606337922362       -0.60950401022770
H            2.70004493249748        1.56610606390223       -1.80613489315445
H            4.51925726362432        2.95433625345624       -2.69427414626521
H            4.72237323486727        5.31879547101704       -2.08560429694619
H            3.07078366736840        6.37864613227469       -0.58217079096630
H            1.00295417475553        6.91394872282782        1.06182744082341
H            0.44534296775835        8.19818923193126        2.95922567025328
H           -1.16030279711860        8.93396244758638        3.18678741927113
H           -0.55713157592332        8.61959617605436        1.54091207032157
H           -2.26112628792655        4.74064480520541        2.77630590100168
H           -1.52818675566504        2.66063871599834        1.66154661852482
H           -0.36065378849709       -2.69524458165432        2.20941016489317
H           -0.24381997500620       -4.66870057574681        3.67599997428893
H            1.68914206176428       -6.17250990554781        3.61829819500929
H            3.58650444069822       -5.72852723791004        2.09798147390277
H            5.27282381472256       -4.71975436738415        0.24522210949229
H            8.30886734658072       -4.47489172677262       -1.75424488155071
H            6.83966451858645       -5.40458082607074       -1.36995295833038
H            7.57874766281685       -4.34476297586001       -0.13495485784975
H            5.28616747193510       -1.42703920382874       -2.48877862275848
H            3.06445448086451       -0.69774795311716       -1.69878444825091
H           -0.82458619749766       -2.37143723994352       -0.26901926992030

          :  Hamiltonian                  GFN2-xTB          :
         :: gradient norm              0.000041034730 Eh/a0 ::
         :: HOMO-LUMO gap              2.164481199798 eV    ::
         :: SCC energy              -141.188659055844 Eh    ::
         :: -> dispersion             -0.122243871056 Eh    ::
         :: repulsion energy           2.386959612802 Eh    ::

    * Orbital Energies and Occupations

         #    Occupation            Energy/Eh            Energy/eV
      -------------------------------------------------------------
         1        2.0000           -0.7166610             -19.5013
       ...           ...                  ...                  ...
       115        2.0000           -0.4207007             -11.4478
       116        2.0000           -0.4198204             -11.4239
       117        2.0000           -0.4187902             -11.3959
       118        2.0000           -0.4176643             -11.3652
       119        2.0000           -0.4028815             -10.9630
       120        2.0000           -0.3979849             -10.8297
       121        2.0000           -0.3975658             -10.8183
       122        2.0000           -0.3844763             -10.4621
       123        2.0000           -0.3792750             -10.3206
       124        2.0000           -0.3788946             -10.3102
       125        2.0000           -0.3653502              -9.9417
       126        2.0000           -0.3616745              -9.8417
       127        2.0000           -0.3593373              -9.7781 (HOMO)
       128                         -0.2797941              -7.6136 (LUMO)
       129                         -0.2574173              -7.0047
       130                         -0.2524166              -6.8686
       131                         -0.2473368              -6.7304
       132                         -0.2452681              -6.6741
       133                         -0.2261828              -6.1547
       134                         -0.2207160              -6.0060
       135                         -0.2204931              -5.9999
       136                         -0.2062313              -5.6118
       137                         -0.2050468              -5.5796
       138                         -0.1939319              -5.2772
       ...                                ...                  ...
       244                          1.1705382              31.8520
      -------------------------------------------------------------
                  HL-Gap            0.0795432 Eh            2.1645 eV

     #   Z          covCN         q      C6AA      α(0)
     1   6 C        3.645     0.039    20.254     6.469
     2   8 O        1.705    -0.272    18.512     5.809
     3   6 C        2.867     0.136    25.029     8.201
     4   6 C        2.925    -0.056    29.380     8.889
     5   6 C        2.910    -0.048    29.198     8.860
     6   6 C        3.071     0.036    27.119     8.539
     7   6 C        3.067    -0.016    28.333     8.728
     8   6 C        2.911    -0.071    29.762     8.946
     9   6 C        3.069    -0.015    28.303     8.723
    10   6 C        2.913    -0.032    28.795     8.799
    11   6 C        2.920    -0.039    28.974     8.827
    12   6 C        2.924    -0.032    28.801     8.801
    13   6 C        2.910    -0.050    29.241     8.867
    14   6 C        3.070     0.046    26.895     8.503
    15   7 N        2.802    -0.039    21.994     6.965
    16   6 C        2.909     0.072    26.391     8.424
    17   6 C        2.925    -0.067    29.674     8.933
    18   6 C        2.915     0.074    26.346     8.417
    19   7 N        2.803    -0.044    22.083     6.979
    20   6 C        3.070     0.049    26.830     8.493
    21   6 C        2.910    -0.044    29.083     8.843
    22   6 C        2.924    -0.029    28.733     8.790
    23   6 C        2.920    -0.038    28.941     8.822
    24   6 C        2.913    -0.031    28.775     8.796
    25   6 C        3.070    -0.014    28.284     8.720
    26   6 C        3.068    -0.014    28.300     8.723
    27   6 C        2.911    -0.070    29.751     8.944
    28   6 C        2.867     0.136    25.037     8.202
    29   8 O        1.705    -0.273    18.529     5.812
    30   6 C        3.645     0.039    20.252     6.468
    31   6 C        2.926    -0.056    29.388     8.890
    32   6 C        2.909    -0.049    29.223     8.864
    33   6 C        3.072     0.037    27.102     8.536
    34   6 C        2.975    -0.019    28.479     8.754
    35   6 C        1.909     0.119    28.165     8.571
    36   7 N        0.911    -0.238    26.227     7.407
    37   6 C        2.916     0.074    26.345     8.417
    38   7 N        2.803    -0.044    22.088     6.980
    39   6 C        3.072     0.047    26.867     8.499
    40   6 C        2.910    -0.049    29.220     8.864
    41   6 C        2.924    -0.032    28.806     8.802
    42   6 C        2.920    -0.040    28.983     8.828
    43   6 C        2.913    -0.031    28.784     8.798
    44   6 C        3.070    -0.014    28.281     8.720
    45   6 C        3.068    -0.015    28.305     8.724
    46   6 C        2.911    -0.070    29.738     8.942
    47   6 C        2.867     0.137    25.007     8.197
    48   8 O        1.705    -0.271    18.500     5.807
    49   6 C        3.645     0.039    20.255     6.469
    50   6 C        2.926    -0.053    29.314     8.879
    51   6 C        2.910    -0.043    29.063     8.840
    52   6 C        3.073     0.039    27.048     8.527
    53   6 C        2.923    -0.066    29.638     8.928
    54   1 H        0.925     0.061     2.187     2.313
    55   1 H        0.924     0.039     2.463     2.454
    56   1 H        0.924     0.039     2.462     2.454
    57   1 H        0.926     0.052     2.300     2.372
    58   1 H        0.926     0.035     2.522     2.483
    59   1 H        0.926     0.038     2.471     2.458
    60   1 H        0.926     0.033     2.549     2.496
    61   1 H        0.926     0.031     2.565     2.505
    62   1 H        0.926     0.033     2.548     2.496
    63   1 H        0.926     0.029     2.606     2.524
    64   1 H        0.926     0.058     2.226     2.333
    65   1 H        0.926     0.022     2.708     2.573
    66   1 H        0.926     0.035     2.511     2.478
    67   1 H        0.926     0.033     2.549     2.496
    68   1 H        0.926     0.033     2.544     2.494
    69   1 H        0.926     0.039     2.462     2.454
    70   1 H        0.924     0.039     2.456     2.451
    71   1 H        0.925     0.060     2.195     2.317
    72   1 H        0.924     0.038     2.469     2.457
    73   1 H        0.926     0.050     2.315     2.379
    74   1 H        0.926     0.033     2.539     2.492
    75   1 H        0.926     0.023     2.686     2.563
    76   1 H        0.926     0.032     2.553     2.499
    77   1 H        0.926     0.031     2.571     2.507
    78   1 H        0.926     0.033     2.546     2.495
    79   1 H        0.926     0.039     2.463     2.454
    80   1 H        0.925     0.061     2.192     2.316
    81   1 H        0.924     0.038     2.479     2.462
    82   1 H        0.924     0.040     2.446     2.446
    83   1 H        0.926     0.053     2.288     2.365
    84   1 H        0.926     0.028     2.620     2.531
    85   1 H        0.926     0.057     2.238     2.340

molecular dipole:
                 x           y           z       tot (Debye)
 q only:       -0.968      -0.209      -0.557
   full:       -1.358      -0.295      -0.750       4.014

 projected vibrational frequencies (cm⁻¹)
eigval :       -0.00    -0.00    -0.00     0.00     0.00     0.00
eigval :       13.18    14.33    17.43    20.07    21.69    25.40
eigval :       38.76    56.14    56.62    67.64    70.83    78.75
eigval :       86.25    93.09    95.71   102.21   116.11   120.44
eigval :      127.63   132.57   141.56   144.36   146.61   155.28
eigval :      159.55   175.25   199.41   200.50   207.71   219.27
eigval :      231.18   237.70   252.40   258.10   263.83   265.58
eigval :      269.35   277.24   299.81   300.68   302.29   306.27
eigval :      341.37   365.60   378.04   380.91   384.06   395.09
eigval :      396.77   397.61   401.53   403.14   424.75   426.29
eigval :      428.16   436.51   468.54   472.17   477.43   491.38
eigval :      494.75   496.80   502.32   521.39   527.23   530.77
eigval :      534.06   553.61   556.47   578.10   585.49   586.24
eigval :      586.41   593.87   597.53   599.56   613.24   617.02
eigval :      625.55   639.82   663.97   669.56   669.65   670.62
eigval :      675.64   690.81   704.04   704.53   705.56   710.60
eigval :      726.59   728.59   761.40   770.13   771.76   774.99
eigval :      795.59   803.27   804.96   807.19   845.13   845.68
eigval :      849.16   857.61   858.65   863.24   864.48   865.17
eigval :      867.02   879.06   892.75   896.32   898.27   901.80
eigval :      902.21   904.21   907.00   913.16   920.20   921.23
eigval :      923.47   925.01   927.17   929.92  1019.59  1021.78
eigval :     1023.86  1034.01  1047.24  1065.30  1065.57  1067.36
eigval :     1071.08  1072.98  1074.66  1100.80  1123.12  1123.47
eigval :     1123.49  1123.54  1139.87  1142.93  1146.14  1149.57
eigval :     1157.78  1158.22  1158.45  1164.90  1178.00  1179.23
eigval :     1181.13  1188.62  1190.92  1192.95  1193.35  1194.38
eigval :     1221.02  1233.67  1234.45  1241.45  1247.34  1247.53
eigval :     1255.08  1272.78  1275.19  1285.23  1301.25  1310.36
eigval :     1314.37  1320.13  1339.40  1348.15  1355.27  1355.51
eigval :     1356.28  1361.50  1362.46  1363.15  1401.10  1401.81
eigval :     1402.13  1410.86  1418.56  1420.41  1423.70  1425.40
eigval :     1425.89  1445.19  1452.77  1467.44  1472.56  1472.61
eigval :     1472.64  1476.63  1477.05  1478.80  1484.35  1484.68
eigval :     1484.85  1491.32  1491.50  1491.84  1523.85  1557.85
eigval :     1572.87  1573.77  1574.56  1585.59  1587.18  1587.80
eigval :     1602.51  1603.91  1604.39  1617.42  1617.66  1619.09
eigval :     2361.06  2925.22  2926.08  2926.38  2941.20  2941.29
eigval :     2941.33  3026.23  3026.39  3027.26  3079.29  3079.93
eigval :     3080.73  3083.92  3084.38  3084.82  3087.79  3090.67
eigval :     3091.04  3091.51  3092.39  3098.34  3098.81  3100.12
eigval :     3100.88  3109.80  3110.44  3111.09  3111.46  3112.94
eigval :     3113.41  3115.45  3115.51

   temp. (K)  partition function   enthalpy   heat capacity  entropy
                                   cal/mol     cal/K/mol   cal/K/mol   J/K/mol
 298.15  VIB  0.405E+20            25788.242    160.873    160.103
         ROT  0.111E+09              888.752      2.981     39.787
         INT  0.448E+28            26676.994    163.854    199.890
         TR   0.175E+29             1481.254      4.968     45.450
         TOT                       28158.2480   168.8224   245.3397  1026.5014

       T/K    H(0)-H(T)+PV         H(T)/Eh          T*S/Eh         G(T)/Eh
   ------------------------------------------------------------------------
    298.15    0.448730E-01    0.689620E+00    0.116569E+00    0.573051E+00
   ------------------------------------------------------------------------

         :::::::::::::::::::::::::::::::::::::::::::::::::::::
         ::                  THERMODYNAMIC                  ::
         :::::::::::::::::::::::::::::::::::::::::::::::::::::
         :: total free energy        -138.228648111309 Eh   ::
         ::.................................................::
         :: total energy             -138.801699443042 Eh   ::
         :: zero point energy           0.644747121733 Eh   ::
         :: G(RRHO) w/o ZPVE           -0.071695790000 Eh   ::
         :: G(RRHO) contrib.            0.573051331733 Eh   ::
         :::::::::::::::::::::::::::::::::::::::::::::::::::::

           -------------------------------------------------
          | TOTAL ENERGY             -138.801699443042 Eh   |
          | TOTAL ENTHALPY           -138.112079296802 Eh   |
          | TOTAL FREE ENERGY        -138.228648111309 Eh   |
          | GRADIENT NORM               0.000040991847 Eh/α |
          | HOMO-LUMO GAP               2.164481097289 eV   |
           -------------------------------------------------

 * finished run on 2025/08/30 at 17:05:25.173
