   * xtb version 6.7.1 (edcfbbe) compiled by 'albert@albert-system' on 2024-07-22

   ID    Z sym.   atoms
    1    6 C      1-4, 6-43
    2    7 N      5
    3    1 H      44-70

          program call               : xtb data2507/gas/3CzAnN/3CzAnN_gas_S0_crest.xyz --gfn 2 --ohess vtight --parallel 40 --molden --ceasefiles --namespace data2507/gas/3CzAnN/3CzAnN_gas_S0_finalOpt
          :  Hamiltonian                  GFN2-xTB          :
 * total energy  :  -106.6675372 Eh     change       -0.3285521E-08 Eh
 * total energy  :  -106.6675377 Eh     change       -0.5645598E-06 Eh
 * total energy  :  -106.6675383 Eh     change       -0.5843709E-06 Eh
 * total energy  :  -106.6675397 Eh     change       -0.1342770E-05 Eh
 * total energy  :  -106.6675412 Eh     change       -0.1566017E-05 Eh
 * total energy  :  -106.6675419 Eh     change       -0.6846253E-06 Eh
 * total energy  :  -106.6675421 Eh     change       -0.1864186E-06 Eh
 * total energy  :  -106.6675424 Eh     change       -0.3404627E-06 Eh
 * total energy  :  -106.6675432 Eh     change       -0.7820363E-06 Eh
 * total energy  :  -106.6675440 Eh     change       -0.7920244E-06 Eh
 * total energy  :  -106.6675445 Eh     change       -0.5217517E-06 Eh
 * total energy  :  -106.6675450 Eh     change       -0.4625453E-06 Eh
 * total energy  :  -106.6675454 Eh     change       -0.4350255E-06 Eh
 * total energy  :  -106.6675457 Eh     change       -0.2498272E-06 Eh
 * total energy  :  -106.6675457 Eh     change       -0.4249164E-07 Eh
   *** GEOMETRY OPTIMIZATION CONVERGED AFTER 15 ITERATIONS ***

 final structure:
================
70
 xtb: 6.7.1 (edcfbbe)
C           -8.25861254221939       -2.50765865820432       -1.38661629521804
C           -8.30292120752220       -1.14395018322520       -1.62450701267579
C           -7.30064480690890       -0.31962167490641       -1.14792574322905
C           -6.24681097555978       -0.85884806556423       -0.41580652109232
N           -5.23101494436675       -0.02657396674026        0.07466770728020
C           -5.41511289959044        1.13365139775392        0.80069656494044
C           -6.59021856783372        1.71848302606871        1.25062288815340
C           -6.48985932992525        2.88131177288400        1.99006522322006
C           -5.25366369174675        3.45146391945015        2.28669585344659
C           -4.08004367293581        2.86147925441166        1.86265858402904
C           -4.15543135102283        1.69160465130987        1.11850345236585
C           -3.16767893100341        0.82024441550270        0.54667027709222
C           -1.78148262059263        0.85002995107995        0.50699106090312
C           -1.10545745072631       -0.15927862489692       -0.16234345136830
C            0.37182599851417       -0.15689826436129       -0.21763054548874
C            1.09726515174785       -1.14738968116862        0.45986169846766
C            0.45125332186448       -2.14503231528339        1.23658355478583
C            1.16165242903634       -3.11598516139006        1.87203011313655
C            2.56623579343041       -3.15366901134748        1.76532346066759
C            3.22594583782552       -2.20241480168848        1.05033145254880
C            2.52540171168109       -1.15688521260204        0.39290517661997
C            3.19521537493642       -0.15534545274435       -0.32386298241291
C            4.67181493785942       -0.15434602638360       -0.38716230650433
C            5.31764817330294       -0.44470295122084       -1.60829023241367
C            6.67987265307029       -0.45301414468018       -1.69201165458930
C            7.47699926325286       -0.16707258550068       -0.56331925308702
C            8.88579529256256       -0.16384310581169       -0.61736909736556
C            9.62659080348010        0.11769955329188        0.49621856223474
C            8.99234525093122        0.40798411504867        1.71458591196623
C            7.62854040990401        0.41264426219933        1.79945337737269
C            6.83528510104463        0.12714012339740        0.66829552048012
C            5.42750425070865        0.12354463242929        0.72451031605985
C            2.47129037602604        0.84577102940472       -0.98650987282178
C            3.12140981456035        1.89315258493330       -1.69116411053971
C            2.41038724814163        2.84710478338985       -2.35126892849735
C            1.00177244029013        2.80947931624795       -2.35256279452698
C            0.34029385154731        1.83590960410194       -1.66985186069768
C            1.04233534960190        0.83595309475456       -0.94658684238248
C           -1.82243874601704       -1.17876559641314       -0.80062145872561
C           -3.20178242657376       -1.22470477129829       -0.77816046917591
C           -3.87484422258971       -0.22867037459823       -0.08478688100513
C           -6.20629147334965       -2.22889905691724       -0.17337410640426
C           -7.20756215886152       -3.04651447471447       -0.66336883902803
H           -9.04102975793586       -3.14866525358378       -1.76379367936846
H           -9.11842197550868       -0.72008217704074       -2.19167699599171
H           -7.31988643089977        0.74084619891686       -1.35052700489599
H           -7.55224347604263        1.27537568471758        1.04136293336902
H           -7.39049621236617        3.35719514242361        2.34923828374623
H           -5.21826674132522        4.36276645193293        2.86495548384656
H           -3.12079875000597        3.29330565425528        2.10545207044151
H           -1.23284772512764        1.64366276939884        0.99220765247104
H           -0.62520509428507       -2.11627846760466        1.31775220486464
H            0.65522577740472       -3.86729230272720        2.46042639056173
H            3.11402534919153       -3.94235620857893        2.26025522167465
H            4.30264661577749       -2.23104253411113        0.97112269209861
H            4.71075936053963       -0.66717322044747       -2.47446854784478
H            7.16925975341092       -0.67973389176827       -2.62891308656558
H            9.36928792406295       -0.38832456335843       -1.55783950540557
H           10.70583219029896        0.11895501308829        0.44770072305669
H            9.59365347984974        0.62789646671162        2.58482066277840
H            7.13510559881071        0.63515807019208        2.73510491595619
H            4.94072440258702        0.35141991534931        1.66292105675484
H            4.20111889523650        1.92204655367602       -1.69135817332397
H            2.91962327747069        3.63798417081709       -2.88252359233410
H            0.45262742780147        3.56306010121802       -2.89808873109480
H           -0.73921550101883        1.80852025875517       -1.67082189032539
H           -1.27287914856112       -1.94094045719988       -1.33398500957555
H           -3.73630462478355       -2.00682302310730       -1.29598875086619
H           -5.39715832263775       -2.64232257586673        0.41004480775968
H           -7.17101069301945       -4.10883517645675       -0.47218489860808

          :  Hamiltonian                  GFN2-xTB          :
         :: gradient norm              0.000100893133 Eh/a0 ::
         :: HOMO-LUMO gap              2.083753234012 eV    ::
         :: SCC energy              -108.748790092167 Eh    ::
         :: -> dispersion             -0.099442427635 Eh    ::
         :: repulsion energy           2.081244364880 Eh    ::

    * Orbital Energies and Occupations

         #    Occupation            Energy/Eh            Energy/eV
      -------------------------------------------------------------
         1        2.0000           -0.6755344             -18.3822
       ...           ...                  ...                  ...
        88        2.0000           -0.4140002             -11.2655
        89        2.0000           -0.4124851             -11.2243
        90        2.0000           -0.4121019             -11.2139
        91        2.0000           -0.4101717             -11.1613
        92        2.0000           -0.4015916             -10.9279
        93        2.0000           -0.4006557             -10.9024
        94        2.0000           -0.3967096             -10.7950
        95        2.0000           -0.3942197             -10.7273
        96        2.0000           -0.3936798             -10.7126
        97        2.0000           -0.3771129             -10.2618
        98        2.0000           -0.3757060             -10.2235
        99        2.0000           -0.3618744              -9.8471
       100        2.0000           -0.3516231              -9.5682 (HOMO)
       101                         -0.2750465              -7.4844 (LUMO)
       102                         -0.2564270              -6.9777
       103                         -0.2451548              -6.6710
       104                         -0.2344289              -6.3791
       105                         -0.2331550              -6.3445
       106                         -0.2262874              -6.1576
       107                         -0.2255602              -6.1378
       108                         -0.2208373              -6.0093
       109                         -0.2153207              -5.8592
       110                         -0.1914902              -5.2107
       111                         -0.1867809              -5.0826
       ...                                ...                  ...
       199                          0.7481173              20.3573
      -------------------------------------------------------------
                  HL-Gap            0.0765765 Eh            2.0838 eV

     #   Z          covCN         q      C6AA      α(0)
     1   6 C        2.919    -0.033    28.826     8.804
     2   6 C        2.920    -0.028    28.698     8.785
     3   6 C        2.922    -0.042    29.051     8.839
     4   6 C        2.913     0.065    26.543     8.448
     5   7 N        2.802    -0.045    22.099     6.982
     6   6 C        3.076     0.047    26.871     8.499
     7   6 C        2.910    -0.051    29.266     8.871
     8   6 C        2.924    -0.033    28.830     8.805
     9   6 C        2.920    -0.041    29.014     8.833
    10   6 C        2.912    -0.033    28.813     8.802
    11   6 C        3.068    -0.017    28.366     8.733
    12   6 C        3.066    -0.018    28.391     8.737
    13   6 C        2.917    -0.036    28.905     8.816
    14   6 C        2.977     0.004    27.926     8.668
    15   6 C        2.978    -0.005    28.145     8.702
    16   6 C        2.984     0.006    27.891     8.663
    17   6 C        2.918    -0.034    28.858     8.809
    18   6 C        2.914    -0.031    28.773     8.796
    19   6 C        2.914    -0.031    28.766     8.795
    20   6 C        2.917    -0.035    28.870     8.811
    21   6 C        2.984     0.006    27.884     8.662
    22   6 C        2.978    -0.008    28.204     8.711
    23   6 C        2.973     0.015    27.676     8.629
    24   6 C        2.920    -0.033    28.811     8.802
    25   6 C        2.916    -0.037    28.911     8.817
    26   6 C        2.987     0.011    27.772     8.645
    27   6 C        2.918    -0.035    28.874     8.812
    28   6 C        2.916    -0.031    28.768     8.795
    29   6 C        2.916    -0.030    28.753     8.793
    30   6 C        2.918    -0.035    28.880     8.813
    31   6 C        2.986     0.012    27.742     8.640
    32   6 C        2.923    -0.040    28.993     8.830
    33   6 C        2.984     0.006    27.880     8.661
    34   6 C        2.917    -0.035    28.864     8.810
    35   6 C        2.914    -0.031    28.763     8.795
    36   6 C        2.914    -0.031    28.769     8.795
    37   6 C        2.917    -0.034    28.858     8.809
    38   6 C        2.984     0.006    27.890     8.663
    39   6 C        2.928    -0.036    28.903     8.817
    40   6 C        2.908    -0.052    29.293     8.875
    41   6 C        3.076     0.045    26.916     8.506
    42   6 C        2.922    -0.042    29.050     8.839
    43   6 C        2.920    -0.028    28.698     8.785
    44   1 H        0.926     0.035     2.516     2.481
    45   1 H        0.926     0.036     2.503     2.474
    46   1 H        0.926     0.041     2.441     2.443
    47   1 H        0.926     0.027     2.628     2.535
    48   1 H        0.926     0.029     2.605     2.524
    49   1 H        0.926     0.028     2.618     2.530
    50   1 H        0.926     0.031     2.572     2.508
    51   1 H        0.926     0.032     2.561     2.503
    52   1 H        0.926     0.031     2.570     2.507
    53   1 H        0.926     0.027     2.635     2.538
    54   1 H        0.926     0.027     2.630     2.536
    55   1 H        0.926     0.030     2.582     2.513
    56   1 H        0.926     0.030     2.587     2.515
    57   1 H        0.926     0.030     2.584     2.514
    58   1 H        0.926     0.029     2.596     2.519
    59   1 H        0.926     0.028     2.610     2.527
    60   1 H        0.926     0.028     2.608     2.525
    61   1 H        0.926     0.030     2.587     2.515
    62   1 H        0.925     0.030     2.582     2.513
    63   1 H        0.926     0.030     2.583     2.513
    64   1 H        0.926     0.027     2.629     2.536
    65   1 H        0.926     0.027     2.628     2.535
    66   1 H        0.926     0.032     2.562     2.503
    67   1 H        0.926     0.030     2.586     2.515
    68   1 H        0.926     0.028     2.616     2.529
    69   1 H        0.926     0.040     2.445     2.445
    70   1 H        0.926     0.036     2.502     2.474

molecular dipole:
                 x           y           z       tot (Debye)
 q only:       -0.541      -0.290      -0.187
   full:       -0.592      -0.338      -0.217       1.819

 projected vibrational frequencies (cm⁻¹)
eigval :       -0.00    -0.00    -0.00     0.00     0.00     0.00
eigval :       11.87    12.28    18.41    25.77    40.20    44.79
eigval :       59.61    63.18    68.42    72.06   101.09   111.42
eigval :      133.69   134.58   135.00   144.65   166.42   174.35
eigval :      188.40   210.71   214.71   232.08   247.15   268.98
eigval :      294.15   315.67   336.50   349.33   358.24   367.70
eigval :      380.72   390.22   393.20   398.84   400.92   413.47
eigval :      430.07   440.65   446.48   450.53   459.13   462.97
eigval :      478.16   488.30   496.66   531.73   535.22   548.69
eigval :      550.83   577.02   581.15   585.06   589.13   595.80
eigval :      609.81   610.87   618.24   635.02   649.10   651.58
eigval :      670.26   685.06   687.64   693.12   708.07   724.31
eigval :      724.51   739.94   757.48   763.41   771.53   775.78
eigval :      776.14   782.10   798.36   821.17   823.50   835.13
eigval :      869.77   873.32   874.00   875.62   880.30   884.56
eigval :      885.67   886.69   890.55   898.85   901.41   906.02
eigval :      913.85   914.74   918.46   919.37   922.14   922.45
eigval :      924.59   927.85   928.35   929.06   932.80   933.45
eigval :      934.16   962.87   995.59   998.25  1031.10  1071.80
eigval :     1079.30  1080.67  1081.87  1082.65  1118.10  1119.61
eigval :     1133.84  1135.19  1144.67  1156.00  1173.21  1178.41
eigval :     1179.22  1181.28  1181.47  1181.80  1184.63  1188.83
eigval :     1197.12  1201.97  1228.06  1228.22  1231.49  1238.38
eigval :     1245.66  1258.43  1259.56  1264.33  1275.12  1280.95
eigval :     1303.79  1318.26  1320.79  1330.83  1343.44  1350.89
eigval :     1352.17  1361.50  1369.74  1383.79  1385.13  1398.77
eigval :     1418.27  1418.80  1426.85  1429.77  1432.80  1437.00
eigval :     1443.05  1459.05  1477.50  1484.35  1484.95  1493.27
eigval :     1501.92  1527.17  1530.51  1542.64  1561.54  1565.07
eigval :     1582.75  1584.74  1596.52  1598.91  1606.56  1608.71
eigval :     1611.48  1614.88  1622.87  3065.80  3067.36  3069.28
eigval :     3071.64  3071.81  3072.11  3076.24  3077.91  3078.87
eigval :     3078.92  3079.06  3079.21  3080.97  3081.73  3081.95
eigval :     3086.06  3088.94  3089.07  3089.26  3089.61  3090.11
eigval :     3091.10  3092.97  3093.94  3094.15  3096.05  3099.33

   temp. (K)  partition function   enthalpy   heat capacity  entropy
                                   cal/mol     cal/K/mol   cal/K/mol   J/K/mol
 298.15  VIB  0.136E+15            18767.196    123.221    115.244
         ROT  0.621E+08              888.752      2.981     38.642
         INT  0.845E+22            19655.948    126.202    153.886
         TR   0.123E+29             1481.254      4.968     44.756
         TOT                       21137.2022   131.1701   198.6418   831.1174

       T/K    H(0)-H(T)+PV         H(T)/Eh          T*S/Eh         G(T)/Eh
   ------------------------------------------------------------------------
    298.15    0.336843E-01    0.574865E+00    0.943811E-01    0.480483E+00
   ------------------------------------------------------------------------

         :::::::::::::::::::::::::::::::::::::::::::::::::::::
         ::                  THERMODYNAMIC                  ::
         :::::::::::::::::::::::::::::::::::::::::::::::::::::
         :: total free energy        -106.187062294567 Eh   ::
         ::.................................................::
         :: total energy             -106.667545727271 Eh   ::
         :: zero point energy           0.541180298271 Eh   ::
         :: G(RRHO) w/o ZPVE           -0.060696865568 Eh   ::
         :: G(RRHO) contrib.            0.480483432703 Eh   ::
         :::::::::::::::::::::::::::::::::::::::::::::::::::::

           -------------------------------------------------
          | TOTAL ENERGY             -106.667545727271 Eh   |
          | TOTAL ENTHALPY           -106.092681153131 Eh   |
          | TOTAL FREE ENERGY        -106.187062294567 Eh   |
          | GRADIENT NORM               0.000100891582 Eh/α |
          | HOMO-LUMO GAP               2.083753096764 eV   |
           -------------------------------------------------

 * finished run on 2025/07/20 at 14:26:05.564
