   * xtb version 6.7.1 (edcfbbe) compiled by 'albert@albert-system' on 2024-07-22

   ID    Z sym.   atoms
    1    6 C      1-4, 6-43
    2    7 N      5
    3    1 H      44-70

          program call               : xtb data2507/gas/3CzAnN/3CzAnN.xyz --gfn 2 --ohess vtight --parallel 40 --molden --ceasefiles --namespace data2507/gas/3CzAnN/3CzAnN_gas_S0_preOpt
          :  Hamiltonian                  GFN2-xTB          :
 * total energy  :  -106.6458935 Eh     change       -0.4128680E-09 Eh
 * total energy  :  -106.6619313 Eh     change       -0.1603781E-01 Eh
 * total energy  :  -106.6658825 Eh     change       -0.3951197E-02 Eh
 * total energy  :  -106.6663551 Eh     change       -0.4726813E-03 Eh
 * total energy  :  -106.6666159 Eh     change       -0.2607203E-03 Eh
 * total energy  :  -106.6666869 Eh     change       -0.7103271E-04 Eh
 * total energy  :  -106.6667484 Eh     change       -0.6150437E-04 Eh
 * total energy  :  -106.6667893 Eh     change       -0.4085772E-04 Eh
 * total energy  :  -106.6668376 Eh     change       -0.4830686E-04 Eh
 * total energy  :  -106.6668668 Eh     change       -0.2925758E-04 Eh
 * total energy  :  -106.6668900 Eh     change       -0.1161108E-05 Eh
 * total energy  :  -106.6668911 Eh     change       -0.1155114E-05 Eh
 * total energy  :  -106.6668922 Eh     change       -0.1103315E-05 Eh
 * total energy  :  -106.6668934 Eh     change       -0.1140356E-05 Eh
 * total energy  :  -106.6668944 Eh     change       -0.1042065E-05 Eh
 * total energy  :  -106.6668951 Eh     change       -0.7200244E-06 Eh
 * total energy  :  -106.6668957 Eh     change       -0.5351600E-06 Eh
 * total energy  :  -106.6668962 Eh     change       -0.4858527E-06 Eh
 * total energy  :  -106.6668962 Eh     change       -0.7201479E-08 Eh
   *** GEOMETRY OPTIMIZATION CONVERGED AFTER 22 ITERATIONS ***

 final structure:
================
70
 xtb: 6.7.1 (edcfbbe)
C           -8.37624460775146        2.56129283993057        0.60871482837501
C           -8.36599552831933        1.33405845339233        1.25060574828051
C           -7.32717534886633        0.44609399836212        1.04184747903528
C           -6.29135997203208        0.77987205860971        0.17403012410399
N           -5.24076757325178       -0.12104100242257       -0.04853723002639
C           -5.37647068493831       -1.45199579676106       -0.39047861733115
C           -6.52620620436088       -2.19079053665320       -0.63101216744360
C           -6.37769931071669       -3.51708359067705       -0.98839549536289
C           -5.11892947451030       -4.10098369277000       -1.11445235184692
C           -3.97093198456205       -3.36509042915421       -0.90078932081063
C           -4.09475997471554       -2.02969544426533       -0.54078146204614
C           -3.14402526686580       -0.98836725597576       -0.27021707810869
C           -1.75730688792923       -0.94828925165186       -0.24605917268161
C           -1.12655863543494        0.24148607291259        0.08050596167233
C            0.35371938927624        0.31358366222725        0.10412339073026
C            1.05073413173900        0.66399676376656       -1.05854774020143
C            0.37506604642804        0.96823348241506       -2.26937710477798
C            1.06344850018306        1.30838329988971       -3.39257761501264
C            2.47224404984701        1.36439533249214       -3.37539701341414
C            3.15803880691450        1.07810819301501       -2.23568112664676
C            2.47884039471747        0.71972329198861       -1.04164584151603
C            3.17181540516188        0.42195028475257        0.13780459320585
C            4.65244567394071        0.46680623218853        0.15105248573245
C            5.31181631203707        1.66953646218660        0.47929998334721
C            6.67549765253247        1.73327586823603        0.49424656068241
C            7.45698925866560        0.60066180951867        0.18245026791268
C            8.86673730281101        0.63393524694598        0.18738876292118
C            9.59261127878747       -0.48238964588841       -0.12027496138120
C            8.94225845208771       -1.68308925045424       -0.44662882106413
C            7.57747221573931       -1.74772100805707       -0.46019526944629
C            6.79935355603592       -0.61325060350389       -0.14784380707808
C            5.39064347808347       -0.64791156076270       -0.15465390034485
C            2.47534340523647        0.08041233322419        1.30318170258626
C            3.15106550954024       -0.21780097179278        2.51557792752028
C            2.46186756180041       -0.54911888312280        3.64096284188849
C            1.05302015324410       -0.60445296995555        3.62364142359317
C            0.36780488310523       -0.32655458325554        2.48152564521222
C            1.04713565823166        0.02520474855688        1.28572358294524
C           -1.88220709958879        1.37538895374289        0.39676431808138
C           -3.26283790904450        1.35769082618667        0.37875906922336
C           -3.89363525190183        0.17327892255650        0.02572847592088
C           -6.30528785400325        2.01194673994965       -0.47352406269199
C           -7.34275736303258        2.89777224505862       -0.24969424343066
H           -9.18732075848757        3.25351605735198        0.77700675316053
H           -9.16751122002536        1.06937153663319        1.92435145170204
H           -7.30438896713459       -0.50236791522464        1.55753096692653
H           -7.50580406922727       -1.74347688766503       -0.55408788420019
H           -7.25781422833075       -4.11381142870661       -1.17801289584789
H           -5.04578693390409       -5.14179599195921       -1.39279663196575
H           -2.99457840392611       -3.81164792543393       -1.01415072637847
H           -1.17501649180421       -1.82864566904559       -0.47396051085975
H           -0.70428388646706        0.92365497695007       -2.27852293951224
H            0.53716827221657        1.53835275239872       -4.30760106383467
H            3.00112349939345        1.63674460774783       -4.27716640333002
H            4.23757374069801        1.11975669164054       -2.21993459719477
H            4.71568494814092        2.53872733538994        0.71807160429135
H            7.17765506870759        2.65693520518957        0.74595378497211
H            9.36269634584612        1.56084924343077        0.43935354988695
H           10.67244673767263       -0.44992074052886       -0.11487864840097
H            9.53203976751803       -2.55577072093787       -0.68712149042224
H            7.07152587657519       -2.66945225073653       -0.71081185069384
H            4.89013690101693       -1.57262236491521       -0.40689737993164
H            4.23063976877437       -0.17503135543319        2.52585636282585
H            2.98802580466384       -0.77287603504610        4.55757017122947
H            0.52397642075560       -0.87001340582204        4.52734443037777
H           -0.71157859749635       -0.36797423718844        2.46412925821417
H           -1.36356868868437        2.28465281062071        0.66415148240820
H           -3.82941555335849        2.23796203810486        0.64271228327008
H           -5.50979343154288        2.26139519098755       -1.15979826179076
H           -7.34864706591395        3.85202183721689       -0.75546058520807

          :  Hamiltonian                  GFN2-xTB          :
         :: gradient norm              0.000062500795 Eh/a0 ::
         :: HOMO-LUMO gap              2.191403680270 eV    ::
         :: SCC energy              -108.749483599712 Eh    ::
         :: -> dispersion             -0.099102926981 Eh    ::
         :: repulsion energy           2.082587432159 Eh    ::

    * Orbital Energies and Occupations

         #    Occupation            Energy/Eh            Energy/eV
      -------------------------------------------------------------
         1        2.0000           -0.6751390             -18.3715
       ...           ...                  ...                  ...
        88        2.0000           -0.4134451             -11.2504
        89        2.0000           -0.4129465             -11.2368
        90        2.0000           -0.4121400             -11.2149
        91        2.0000           -0.4102411             -11.1632
        92        2.0000           -0.4016850             -10.9304
        93        2.0000           -0.4000430             -10.8857
        94        2.0000           -0.3976969             -10.8219
        95        2.0000           -0.3946069             -10.7378
        96        2.0000           -0.3939225             -10.7192
        97        2.0000           -0.3768931             -10.2558
        98        2.0000           -0.3755326             -10.2188
        99        2.0000           -0.3598365              -9.7917
       100        2.0000           -0.3545412              -9.6476 (HOMO)
       101                         -0.2740086              -7.4562 (LUMO)
       102                         -0.2572014              -6.9988
       103                         -0.2449643              -6.6658
       104                         -0.2341632              -6.3719
       105                         -0.2328622              -6.3365
       106                         -0.2265926              -6.1659
       107                         -0.2256394              -6.1400
       108                         -0.2202852              -5.9943
       109                         -0.2157833              -5.8718
       110                         -0.1892823              -5.1506
       111                         -0.1865688              -5.0768
       ...                                ...                  ...
       199                          0.7483524              20.3637
      -------------------------------------------------------------
                  HL-Gap            0.0805326 Eh            2.1914 eV

     #   Z          covCN         q      C6AA      α(0)
     1   6 C        2.919    -0.033    28.827     8.805
     2   6 C        2.920    -0.028    28.699     8.785
     3   6 C        2.922    -0.042    29.053     8.839
     4   6 C        2.913     0.065    26.542     8.448
     5   7 N        2.802    -0.045    22.106     6.983
     6   6 C        3.076     0.047    26.870     8.499
     7   6 C        2.910    -0.051    29.268     8.871
     8   6 C        2.924    -0.033    28.831     8.805
     9   6 C        2.920    -0.041    29.016     8.833
    10   6 C        2.912    -0.033    28.812     8.802
    11   6 C        3.068    -0.017    28.367     8.733
    12   6 C        3.067    -0.018    28.383     8.736
    13   6 C        2.917    -0.037    28.911     8.817
    14   6 C        2.978     0.005    27.915     8.667
    15   6 C        2.979    -0.005    28.138     8.701
    16   6 C        2.985     0.006    27.888     8.663
    17   6 C        2.917    -0.033    28.834     8.805
    18   6 C        2.914    -0.030    28.760     8.794
    19   6 C        2.914    -0.030    28.755     8.793
    20   6 C        2.917    -0.034    28.844     8.807
    21   6 C        2.985     0.006    27.883     8.662
    22   6 C        2.979    -0.007    28.192     8.709
    23   6 C        2.974     0.015    27.662     8.627
    24   6 C        2.919    -0.033    28.813     8.802
    25   6 C        2.917    -0.036    28.901     8.816
    26   6 C        2.987     0.010    27.776     8.645
    27   6 C        2.918    -0.035    28.873     8.811
    28   6 C        2.916    -0.031    28.768     8.795
    29   6 C        2.916    -0.030    28.751     8.793
    30   6 C        2.918    -0.035    28.878     8.812
    31   6 C        2.986     0.012    27.736     8.639
    32   6 C        2.924    -0.040    28.996     8.830
    33   6 C        2.985     0.006    27.882     8.662
    34   6 C        2.917    -0.034    28.844     8.807
    35   6 C        2.914    -0.030    28.754     8.793
    36   6 C        2.914    -0.030    28.758     8.794
    37   6 C        2.917    -0.033    28.834     8.805
    38   6 C        2.985     0.006    27.887     8.662
    39   6 C        2.928    -0.037    28.911     8.818
    40   6 C        2.909    -0.052    29.286     8.874
    41   6 C        3.076     0.044    26.924     8.507
    42   6 C        2.922    -0.042    29.052     8.839
    43   6 C        2.920    -0.028    28.699     8.785
    44   1 H        0.926     0.035     2.518     2.482
    45   1 H        0.926     0.036     2.504     2.475
    46   1 H        0.926     0.041     2.442     2.444
    47   1 H        0.926     0.027     2.629     2.536
    48   1 H        0.926     0.029     2.607     2.525
    49   1 H        0.926     0.028     2.620     2.531
    50   1 H        0.926     0.031     2.573     2.509
    51   1 H        0.926     0.030     2.582     2.513
    52   1 H        0.926     0.030     2.582     2.513
    53   1 H        0.926     0.027     2.625     2.533
    54   1 H        0.926     0.027     2.623     2.533
    55   1 H        0.926     0.029     2.599     2.521
    56   1 H        0.926     0.029     2.601     2.522
    57   1 H        0.926     0.030     2.580     2.512
    58   1 H        0.926     0.029     2.595     2.519
    59   1 H        0.926     0.028     2.609     2.526
    60   1 H        0.926     0.029     2.606     2.524
    61   1 H        0.926     0.030     2.585     2.514
    62   1 H        0.925     0.029     2.597     2.520
    63   1 H        0.926     0.029     2.599     2.521
    64   1 H        0.926     0.027     2.622     2.532
    65   1 H        0.926     0.027     2.623     2.533
    66   1 H        0.926     0.031     2.579     2.511
    67   1 H        0.926     0.029     2.605     2.524
    68   1 H        0.926     0.028     2.615     2.529
    69   1 H        0.926     0.040     2.446     2.445
    70   1 H        0.926     0.036     2.504     2.474

molecular dipole:
                 x           y           z       tot (Debye)
 q only:       -0.509       0.327       0.085
   full:       -0.561       0.380       0.097       1.741

 projected vibrational frequencies (cm⁻¹)
eigval :       -0.00    -0.00    -0.00    -0.00    -0.00     0.00
eigval :      -18.93   -10.54    12.09    16.87    36.62    44.90
eigval :       56.14    64.70    66.78    68.86    98.81   104.27
eigval :      128.31   129.46   135.48   141.40   160.28   171.51
eigval :      184.93   208.69   209.95   228.03   247.56   264.99
eigval :      291.23   316.26   332.09   349.48   358.81   362.80
eigval :      380.75   389.85   392.23   396.99   400.50   413.40
eigval :      429.66   442.54   443.67   448.07   458.18   462.07
eigval :      478.08   487.31   496.24   531.27   534.72   547.54
eigval :      550.30   578.89   580.51   584.91   588.73   596.25
eigval :      611.08   612.02   613.87   636.04   648.77   651.77
eigval :      670.28   685.19   687.54   692.07   708.13   724.21
eigval :      724.65   740.15   756.48   763.44   770.41   775.33
eigval :      775.81   782.46   798.36   819.00   822.31   832.39
eigval :      869.41   873.51   873.57   875.17   875.38   881.87
eigval :      883.21   886.77   890.55   898.40   901.02   905.49
eigval :      912.11   914.19   917.09   917.49   921.87   922.16
eigval :      922.44   927.34   927.65   928.85   932.85   933.37
eigval :      934.21   962.72   995.44   998.25  1031.06  1071.87
eigval :     1077.59  1078.52  1079.37  1080.72  1118.15  1119.60
eigval :     1133.63  1135.33  1144.10  1155.35  1172.36  1178.04
eigval :     1179.11  1179.69  1180.50  1181.29  1183.71  1188.07
eigval :     1195.88  1201.71  1225.92  1227.60  1230.59  1237.52
eigval :     1245.25  1256.32  1259.19  1265.99  1274.97  1280.31
eigval :     1303.78  1318.25  1322.79  1330.42  1342.35  1350.66
eigval :     1352.30  1361.43  1369.78  1383.82  1386.15  1398.24
eigval :     1418.17  1419.93  1427.06  1430.62  1432.76  1437.17
eigval :     1444.78  1460.18  1479.18  1484.62  1485.50  1496.23
eigval :     1502.57  1527.08  1535.29  1545.29  1561.72  1565.81
eigval :     1582.80  1584.92  1596.57  1599.90  1608.51  1608.76
eigval :     1612.16  1615.71  1623.52  3065.94  3067.71  3069.54
eigval :     3071.31  3071.39  3072.49  3076.15  3076.52  3076.58
eigval :     3078.37  3078.95  3079.20  3080.87  3081.77  3082.49
eigval :     3085.30  3085.62  3086.99  3089.12  3089.47  3090.15
eigval :     3090.74  3091.05  3091.85  3094.04  3096.06  3099.20

   temp. (K)  partition function   enthalpy   heat capacity  entropy
                                   cal/mol     cal/K/mol   cal/K/mol   J/K/mol
 298.15  VIB  0.343E+15            18866.929    123.164    116.485
         ROT  0.621E+08              888.752      2.981     38.639
         INT  0.213E+23            19755.681    126.144    155.124
         TR   0.123E+29             1481.254      4.968     44.756
         TOT                       21236.9352   131.1126   199.8797   836.2966

       T/K    H(0)-H(T)+PV         H(T)/Eh          T*S/Eh         G(T)/Eh
   ------------------------------------------------------------------------
    298.15    0.338432E-01    0.574709E+00    0.949693E-01    0.479739E+00
   ------------------------------------------------------------------------

         :::::::::::::::::::::::::::::::::::::::::::::::::::::
         ::                  THERMODYNAMIC                  ::
         :::::::::::::::::::::::::::::::::::::::::::::::::::::
         :: total free energy        -106.187156709319 Eh   ::
         ::.................................................::
         :: total energy             -106.666896167552 Eh   ::
         :: zero point energy           0.540865536235 Eh   ::
         :: G(RRHO) w/o ZPVE           -0.061126078001 Eh   ::
         :: G(RRHO) contrib.            0.479739458234 Eh   ::
         :::::::::::::::::::::::::::::::::::::::::::::::::::::

           -------------------------------------------------
          | TOTAL ENERGY             -106.666896167552 Eh   |
          | TOTAL ENTHALPY           -106.092187420906 Eh   |
          | TOTAL FREE ENERGY        -106.187156709319 Eh   |
          | GRADIENT NORM               0.000062496205 Eh/α |
          | HOMO-LUMO GAP               2.191403680976 eV   |
           -------------------------------------------------

 * finished run on 2025/07/20 at 14:23:10.456
