   * xtb version 6.7.1 (edcfbbe) compiled by 'albert@albert-system' on 2024-07-22

   ID    Z sym.   atoms
    1    6 C      1-4, 6-43
    2    7 N      5
    3    1 H      44-70

          program call               : xtb data2507/gas/3CzAnN/3CzAnN_gas_S0_finalOpt.xtbopt.xyz --gfn 2 --spinpol --tblite --uhf 2 --ohess vtight --parallel 40 --molden --ceasefiles --namespace data2507/gas/3CzAnN/3CzAnN_gas_T1_preOpt
 * total energy  :  -106.5955137 Eh     change       -0.2112719E-07 Eh
 * total energy  :  -106.6017927 Eh     change       -0.6279009E-02 Eh
 * total energy  :  -106.6032415 Eh     change       -0.1448773E-02 Eh
 * total energy  :  -106.6033591 Eh     change       -0.1176051E-03 Eh
 * total energy  :  -106.6034594 Eh     change       -0.1002828E-03 Eh
 * total energy  :  -106.6035086 Eh     change       -0.4918058E-04 Eh
 * total energy  :  -106.6035776 Eh     change       -0.6900811E-04 Eh
 * total energy  :  -106.6036603 Eh     change       -0.8274750E-04 Eh
 * total energy  :  -106.6037455 Eh     change       -0.8513553E-04 Eh
 * total energy  :  -106.6038339 Eh     change       -0.8846666E-04 Eh
 * total energy  :  -106.6048328 Eh     change       -0.1963033E-06 Eh
 * total energy  :  -106.6048330 Eh     change       -0.1966795E-06 Eh
 * total energy  :  -106.6048331 Eh     change       -0.1484306E-06 Eh
 * total energy  :  -106.6048333 Eh     change       -0.1547154E-06 Eh
 * total energy  :  -106.6048334 Eh     change       -0.1265435E-06 Eh
 * total energy  :  -106.6048335 Eh     change       -0.1184272E-06 Eh
 * total energy  :  -106.6048336 Eh     change       -0.1277901E-06 Eh
 * total energy  :  -106.6048339 Eh     change       -0.2491599E-06 Eh
 * total energy  :  -106.6048339 Eh     change       -0.1187701E-08 Eh
   *** GEOMETRY OPTIMIZATION CONVERGED AFTER 68 ITERATIONS ***

 final structure:
================
70
 xtb: 6.7.1 (edcfbbe)
C           -8.19955439094379       -2.80381833677134       -0.99966155284021
C           -8.27403196302125       -1.49347235148277       -1.44220385154393
C           -7.29300089698372       -0.58320093090070       -1.09566009730219
C           -6.23009889254414       -0.98080994823961       -0.28964357074810
N           -5.23535324964190       -0.06022550197606        0.06864730275371
C           -5.45004333990607        1.19320445554438        0.60990386390818
C           -6.64030970142509        1.81157770114354        0.96380392056905
C           -6.56997078078365        3.07585476799910        1.51785129765741
C           -5.34883423723280        3.71293471255739        1.72533240452099
C           -4.15945540703680        3.09256778570355        1.39730754395133
C           -4.20504998949822        1.82186283826626        0.84094920079261
C           -3.19422015293913        0.89660093710321        0.40770483931972
C           -1.81192328588609        0.95518095551624        0.36512723855083
C           -1.09735289352397       -0.13259889339036       -0.13501416029960
C            0.36226649838331       -0.10420022928912       -0.18463810280849
C            1.11558158543956       -1.14167339999920        0.44992876606342
C            0.49546155175423       -2.14465301696754        1.19824385112024
C            1.22318624431291       -3.19753012078515        1.74947144884055
C            2.58505157820314       -3.26342530783457        1.55628565708388
C            3.23652513133838       -2.24448795604941        0.86378642931029
C            2.53839486007908       -1.15003026546521        0.34892703291206
C            3.20845144208484       -0.06119862855378       -0.29351345205757
C            4.66548192117105       -0.04361806031964       -0.37503742259779
C            5.30175052978999        0.06632782351660       -1.63644884237984
C            6.66027782730618        0.06948018607956       -1.74115849075008
C            7.48042403973451       -0.01678771127888       -0.59370424241692
C            8.88573720621600       -0.00570251236027       -0.66814080134592
C            9.64662908941706       -0.08888673704755        0.46654923753767
C            9.03266461595848       -0.18770219161809        1.72434218114544
C            7.66995803525886       -0.20354887157273        1.82947095409943
C            6.85682335986732       -0.11994396721358        0.67825821184875
C            5.45308541327795       -0.13711646536388        0.75542613386593
C            2.45665657266767        1.01240456564245       -0.86760209451832
C            3.08346508891058        2.13346842782348       -1.41587058276979
C            2.35354485089868        3.13807280721144       -2.04895477022318
C            0.98433036426510        3.02943155971214       -2.14800595328536
C            0.32941756158050        1.95017080914136       -1.55772325031482
C            1.03142552578773        0.96138457436071       -0.86444250669501
C           -1.79817143054758       -1.25749314829925       -0.60678675841782
C           -3.17393558500518       -1.32803874250012       -0.58665235604137
C           -3.87629210530581       -0.25279526722446       -0.05633584044002
C           -6.15877179586247       -2.29687486632143        0.15794346555965
C           -7.13938461675293       -3.20223927675426       -0.20242971432737
H           -8.96556009738827       -3.51258438340251       -1.27555373463656
H           -9.09634308348722       -1.17981020291502       -2.06806025185909
H           -7.33526233953459        0.43326422035460       -1.45756242466861
H           -7.59102792842506        1.31984842202192        0.82297549567046
H           -7.48296313103482        3.57951866589927        1.79930842476394
H           -5.33661759293225        4.70213305735039        2.15808457662855
H           -3.21155899226115        3.57856974845764        1.57254030113642
H           -1.28786069818644        1.82043486787833        0.74250795229700
H           -0.57106422255635       -2.10409035689152        1.35866432350174
H            0.70996010955951       -3.96169170651542        2.31434542716038
H            3.15728169695515       -4.09150892359021        1.94746213471004
H            4.30422051620608       -2.30943070784273        0.72043073696151
H            4.68462456595477        0.11256238845573       -2.52240429697672
H            7.13292520737162        0.13355916238293       -2.71144109581205
H            9.35410294703942        0.07133110624502       -1.63945702451950
H           10.72494708125941       -0.07831963245135        0.40211632363518
H            9.64815231111284       -0.25100259850214        2.61010885232393
H            7.19239085335416       -0.28119704274037        2.79609460615102
H            4.98653399707726       -0.19160016694760        1.72937527103021
H            4.15628395588274        2.23001897914953       -1.34744411890842
H            2.87051057591355        3.98801310801922       -2.46903784751576
H            0.40887718297667        3.78129439098368       -2.66756364804469
H           -0.74389795972516        1.87812814417007       -1.64496190345199
H           -1.23246473972950       -2.07422930914938       -1.03082795252082
H           -3.68777033439517       -2.18892446642904       -0.98752731999735
H           -5.34281591905631       -2.59788257471842        0.79791163190642
H           -7.07951107326704       -4.22197263869393        0.14804539035612

 projected vibrational frequencies (cm⁻¹)
eigval :       -0.00    -0.00     0.00     0.00     0.00     0.00
eigval :       10.23    15.87    21.15    34.85    39.97    48.81
eigval :       58.26    62.44    69.04    75.88   102.25   118.02
eigval :      131.98   135.69   141.15   150.34   172.49   177.47
eigval :      191.16   212.70   229.41   234.09   247.76   273.64
eigval :      294.88   313.79   332.20   344.68   356.98   365.16
eigval :      377.19   380.65   388.74   394.91   399.23   409.35
eigval :      417.52   422.11   432.83   450.51   460.35   471.53
eigval :      477.32   486.43   495.67   527.89   536.12   545.97
eigval :      550.92   565.21   576.95   581.26   583.98   592.03
eigval :      600.45   608.93   616.71   621.11   643.81   645.75
eigval :      669.76   672.96   683.04   689.93   707.13   715.02
eigval :      721.48   724.37   747.97   755.67   760.50   763.37
eigval :      775.93   776.20   795.78   816.48   824.67   834.84
eigval :      845.10   849.25   870.18   872.09   878.99   880.62
eigval :      884.14   885.01   888.64   893.62   896.27   898.00
eigval :      902.30   905.91   906.40   907.50   913.57   921.67
eigval :      922.20   922.79   926.23   931.54   933.58   934.29
eigval :      945.50   962.18   993.77   997.99  1029.05  1071.75
eigval :     1079.61  1080.57  1101.53  1105.16  1114.18  1114.84
eigval :     1118.39  1125.63  1142.99  1154.67  1173.07  1175.66
eigval :     1177.44  1179.59  1179.96  1181.23  1181.94  1183.96
eigval :     1184.69  1201.69  1218.52  1228.09  1229.51  1234.88
eigval :     1245.68  1253.29  1260.42  1261.10  1272.15  1274.84
eigval :     1288.73  1299.29  1304.34  1318.24  1326.84  1332.36
eigval :     1341.32  1359.28  1364.95  1367.50  1373.51  1375.47
eigval :     1378.38  1394.43  1409.50  1420.74  1425.41  1427.49
eigval :     1431.35  1436.83  1445.48  1461.98  1477.50  1482.18
eigval :     1484.32  1486.87  1494.39  1519.18  1531.60  1545.35
eigval :     1551.62  1559.25  1580.76  1581.74  1586.16  1591.17
eigval :     1595.24  1604.15  1609.16  3064.52  3066.93  3068.79
eigval :     3071.60  3074.56  3075.02  3077.65  3078.63  3078.67
eigval :     3079.98  3081.29  3081.98  3083.11  3083.76  3083.98
eigval :     3088.32  3088.66  3090.30  3090.63  3091.67  3093.93
eigval :     3094.43  3094.85  3096.75  3096.88  3097.65  3100.14

   temp. (K)  partition function   enthalpy   heat capacity  entropy
                                   cal/mol     cal/K/mol   cal/K/mol   J/K/mol
 298.15  VIB  0.676E+14            18812.222    124.335    114.927
         ROT  0.625E+08              888.752      2.981     38.653
         INT  0.422E+22            19700.974    127.316    153.580
         TR   0.123E+29             1481.254      4.968     44.756
         TOT                       21182.2284   132.2843   198.3357   829.8366

       T/K    H(0)-H(T)+PV         H(T)/Eh          T*S/Eh         G(T)/Eh
   ------------------------------------------------------------------------
    298.15    0.337560E-01    0.572550E+00    0.942357E-01    0.478314E+00
   ------------------------------------------------------------------------

         :::::::::::::::::::::::::::::::::::::::::::::::::::::
         ::                  THERMODYNAMIC                  ::
         :::::::::::::::::::::::::::::::::::::::::::::::::::::
         :: total free energy        -106.126519961244 Eh   ::
         ::.................................................::
         :: total energy             -106.604833871101 Eh   ::
         :: zero point energy           0.538793576263 Eh   ::
         :: G(RRHO) w/o ZPVE           -0.060479666407 Eh   ::
         :: G(RRHO) contrib.            0.478313909856 Eh   ::
         :::::::::::::::::::::::::::::::::::::::::::::::::::::

           -------------------------------------------------
          | TOTAL ENERGY             -106.604833871101 Eh   |
          | TOTAL ENTHALPY           -106.032284265266 Eh   |
          | TOTAL FREE ENERGY        -106.126519961244 Eh   |
          | GRADIENT NORM               0.000026493396 Eh/α |
           -------------------------------------------------

 * finished run on 2025/07/20 at 14:26:13.844
