   * xtb version 6.7.1 (edcfbbe) compiled by 'albert@albert-system' on 2024-07-22

   ID    Z sym.   atoms
    1    6 C      1-4, 6-43
    2    7 N      5
    3    1 H      44-70

          program call               : xtb data2507/gas/3CzAnN/3CzAnN_gas_T1_crest.xyz --gfn 2 --spinpol --tblite --uhf 2 --ohess vtight --parallel 40 --molden --ceasefiles --namespace data2507/gas/3CzAnN/3CzAnN_gas_T1_finalOpt
 * total energy  :  -106.6047314 Eh     change       -0.8089515E-08 Eh
 * total energy  :  -106.6047725 Eh     change       -0.4107380E-04 Eh
 * total energy  :  -106.6047851 Eh     change       -0.1263198E-04 Eh
 * total energy  :  -106.6047892 Eh     change       -0.4078728E-05 Eh
 * total energy  :  -106.6047939 Eh     change       -0.4762141E-05 Eh
 * total energy  :  -106.6047986 Eh     change       -0.4658096E-05 Eh
 * total energy  :  -106.6048048 Eh     change       -0.6257314E-05 Eh
 * total energy  :  -106.6048116 Eh     change       -0.6746747E-05 Eh
 * total energy  :  -106.6048158 Eh     change       -0.4247645E-05 Eh
 * total energy  :  -106.6048181 Eh     change       -0.2265534E-05 Eh
 * total energy  :  -106.6048325 Eh     change       -0.8103344E-06 Eh
 * total energy  :  -106.6048327 Eh     change       -0.1642833E-06 Eh
 * total energy  :  -106.6048329 Eh     change       -0.2399489E-06 Eh
 * total energy  :  -106.6048332 Eh     change       -0.2353108E-06 Eh
 * total energy  :  -106.6048333 Eh     change       -0.1399654E-06 Eh
 * total energy  :  -106.6048335 Eh     change       -0.1498495E-06 Eh
 * total energy  :  -106.6048336 Eh     change       -0.1967457E-06 Eh
 * total energy  :  -106.6048338 Eh     change       -0.1442109E-06 Eh
 * total energy  :  -106.6048339 Eh     change       -0.6923111E-07 Eh
   *** GEOMETRY OPTIMIZATION CONVERGED AFTER 31 ITERATIONS ***

 final structure:
================
70
 xtb: 6.7.1 (edcfbbe)
C           -8.19223943558074       -2.68888822635259       -1.31674399875034
C           -8.27790929162468       -1.33436087099664       -1.59293155058377
C           -7.29898865059380       -0.46740723447637       -1.14421898815026
C           -6.22687742907735       -0.95474785188593       -0.40230491328213
N           -5.23425414290355       -0.07967054208201        0.06064727604159
C           -5.45047289814356        1.09225598381253        0.76067295774973
C           -6.64115628295782        1.65628530611519        1.19477949649907
C           -6.57230909187046        2.83890615404558        1.90683388635923
C           -5.35216555516747        3.44752115969028        2.19122208036051
C           -4.16223505881088        2.87803691334507        1.78271412356902
C           -4.20630765518743        1.68957169216190        1.06725415857187
C           -3.19443342338864        0.83135146369054        0.51470219495899
C           -1.81235154445959        0.89786284961172        0.47773625217880
C           -1.09658691349268       -0.11329359157683       -0.16241182383743
C            0.36271408090307       -0.07784966074967       -0.20720861240028
C            1.11592173623195       -1.19392850097878        0.27660062704673
C            0.49614410240620       -2.29201805722519        0.87717130619579
C            1.22358364319661       -3.41274216882652        1.27294715359052
C            2.58512815996548       -3.45176792229082        1.07020263779559
C            3.23658446747468       -2.34501897643497        0.52921550348933
C            2.53875232261309       -1.18801171698216        0.17597634935355
C            3.20951774445885       -0.01838253210885       -0.30304170851711
C            4.66670458850143        0.01146993474842       -0.37453628210887
C            5.30940068360187        0.30357401961643       -1.60326753782302
C            6.66844607914211        0.32140622281509       -1.69950634805330
C            7.48291438947921        0.06780324840414       -0.57295932058222
C            8.88856938735034        0.08770448012668       -0.63817725138310
C            9.64375218303897       -0.16247175664125        0.47562692572949
C            9.02348065794175       -0.44392496836325        1.70232951724397
C            7.66025911689976       -0.47243411248187        1.79757865156317
C            6.85292253122430       -0.21954430736668        0.66719095513228
C            5.44888082678190       -0.24612339842803        0.73417217317411
C            2.45787866350607        1.12483601561872       -0.72191849530758
C            3.08455491976203        2.31282556704304       -1.10446934847759
C            2.35520986457026        3.39511499343047       -1.59365974520656
C            0.98667809692561        3.29906190070855       -1.71360489313839
C            0.33161069820421        2.14701287919749       -1.28266888491758
C            1.03269193117773        1.07227908270202       -0.73075290398625
C           -1.79679472269450       -1.16703563263564       -0.77805710483400
C           -3.17221628723415       -1.24345425696737       -0.76318509445468
C           -3.87523986002510       -0.24964501557710       -0.09320603356655
C           -6.14410415145962       -2.31570115582899       -0.12208049945104
C           -7.12273774777808       -3.17599563583469       -0.58380237077071
H           -8.95677999989521       -3.36308239101273       -1.67194300040135
H           -9.10750978884874       -0.95113208578519       -2.16840074771456
H           -7.35022459876047        0.58573223424358       -1.37704633410977
H           -7.59107489706707        1.18406609812897        0.99444106333019
H           -7.48571294108582        3.29954503022414        2.25318159760345
H           -5.34110530611011        4.37282651526793        2.74766222735708
H           -3.21504922474205        3.34023003169102        2.01644502768325
H           -1.28923571199044        1.70661279098074        0.96556541444520
H           -0.57000683616947       -2.27386676245230        1.04390500390443
H            0.71036794294726       -4.24874757382765        1.72474776116909
H            3.15703034584259       -4.32754584286980        1.33873632519166
H            4.30410571664316       -2.38946690585891        0.37703663664491
H            4.69687895808000        0.47809022308625       -2.47633929010060
H            7.14594292175733        0.52599285872449       -2.64771244097429
H            9.36183843858285        0.30572043108016       -1.58540371543912
H           10.72238526813652       -0.14443765343898        0.41856228288217
H            9.63451064640678       -0.63797672472676        2.57204545746620
H            7.17781950329991       -0.69036931023881        2.74003221219144
H            4.97750157632227       -0.44149351522834        1.68750763477826
H            4.15683936232912        2.40053549540922       -1.01819897172373
H            2.87204993238700        4.29642437674513       -1.88800639581490
H            0.41188733300315        4.11516800416540       -2.12587536230313
H           -0.74113531297411        2.08616531252636       -1.38424723019655
H           -1.23081497760041       -1.91849339505134       -1.30895518928027
H           -3.68557918068826       -2.04526281251204       -1.27254560559802
H           -5.32067009628005       -2.68813718419193        0.46886826072494
H           -7.05404628333388       -4.23084305107043       -0.36278483303524

 projected vibrational frequencies (cm⁻¹)
eigval :       -0.00    -0.00    -0.00     0.00     0.00     0.00
eigval :       10.26    15.99    21.23    34.91    40.19    48.93
eigval :       58.22    62.48    69.07    76.04   102.36   118.27
eigval :      132.18   135.83   141.29   151.13   172.63   177.69
eigval :      191.20   212.77   229.86   234.19   247.75   274.06
eigval :      294.95   313.84   332.20   344.88   357.08   365.20
eigval :      377.18   380.61   388.71   394.95   399.33   409.48
eigval :      417.89   422.16   432.98   450.55   460.47   471.64
eigval :      477.32   486.45   495.72   527.94   536.13   545.94
eigval :      551.04   565.26   576.95   581.31   584.03   592.02
eigval :      600.47   609.00   616.77   621.12   643.82   645.78
eigval :      669.72   673.11   683.02   689.99   707.11   715.10
eigval :      721.45   724.41   748.13   755.66   760.65   763.35
eigval :      775.89   776.17   795.80   816.54   824.83   834.91
eigval :      845.39   849.69   870.12   872.07   879.05   880.64
eigval :      884.15   885.02   888.63   893.71   896.49   898.19
eigval :      902.30   905.97   906.50   907.59   913.55   922.00
eigval :      922.21   923.01   926.21   931.81   933.54   934.24
eigval :      945.61   962.14   993.80   997.99  1029.04  1071.80
eigval :     1079.62  1080.60  1101.58  1105.16  1114.18  1114.82
eigval :     1118.29  1125.68  1143.02  1154.71  1173.13  1175.75
eigval :     1177.48  1179.63  1180.04  1181.25  1181.97  1183.99
eigval :     1184.75  1201.71  1218.57  1228.07  1229.56  1234.88
eigval :     1245.80  1253.22  1260.20  1261.15  1272.12  1274.86
eigval :     1288.72  1299.02  1304.37  1318.23  1326.82  1332.50
eigval :     1341.30  1359.28  1364.85  1367.25  1373.53  1375.41
eigval :     1378.26  1394.47  1409.47  1420.94  1425.49  1427.37
eigval :     1431.40  1437.09  1445.43  1461.88  1477.36  1482.21
eigval :     1484.38  1486.99  1494.44  1519.14  1531.46  1545.24
eigval :     1551.48  1559.07  1580.77  1581.81  1586.06  1591.11
eigval :     1595.28  1604.14  1609.14  3064.55  3066.96  3068.84
eigval :     3071.70  3074.67  3075.08  3077.69  3078.59  3078.67
eigval :     3080.11  3081.34  3081.97  3083.18  3083.85  3084.03
eigval :     3088.38  3088.69  3090.28  3090.71  3091.79  3094.03
eigval :     3094.55  3095.14  3096.83  3096.97  3097.70  3100.18

   temp. (K)  partition function   enthalpy   heat capacity  entropy
                                   cal/mol     cal/K/mol   cal/K/mol   J/K/mol
 298.15  VIB  0.650E+14            18806.395    124.333    114.868
         ROT  0.625E+08              888.752      2.981     38.653
         INT  0.406E+22            19695.147    127.314    153.521
         TR   0.123E+29             1481.254      4.968     44.756
         TOT                       21176.4010   132.2823   198.2766   829.5892

       T/K    H(0)-H(T)+PV         H(T)/Eh          T*S/Eh         G(T)/Eh
   ------------------------------------------------------------------------
    298.15    0.337467E-01    0.572564E+00    0.942076E-01    0.478356E+00
   ------------------------------------------------------------------------

         :::::::::::::::::::::::::::::::::::::::::::::::::::::
         ::                  THERMODYNAMIC                  ::
         :::::::::::::::::::::::::::::::::::::::::::::::::::::
         :: total free energy        -106.126477443574 Eh   ::
         ::.................................................::
         :: total energy             -106.604833895511 Eh   ::
         :: zero point energy           0.538817306676 Eh   ::
         :: G(RRHO) w/o ZPVE           -0.060460854738 Eh   ::
         :: G(RRHO) contrib.            0.478356451938 Eh   ::
         :::::::::::::::::::::::::::::::::::::::::::::::::::::

           -------------------------------------------------
          | TOTAL ENERGY             -106.604833895511 Eh   |
          | TOTAL ENTHALPY           -106.032269845712 Eh   |
          | TOTAL FREE ENERGY        -106.126477443574 Eh   |
          | GRADIENT NORM               0.000044638198 Eh/α |
           -------------------------------------------------

 * finished run on 2025/07/20 at 14:29:18.725
