   * xtb version 6.7.1 (edcfbbe) compiled by 'albert@albert-system' on 2024-07-22

   ID    Z sym.   atoms
    1    6 C      1-19, 21-43, 45-55, 57-59, 61-72
    2    7 N      20, 44, 56, 60
    3    1 H      73-138

          program call               : xtb data2507/toluene/TCz-3PA-TCz/TCz-3PA-TCz_toluene_S0_finalOpt.xtbopt.xyz --gfn 2 --uhf 2 --gbsa toluene --ohess vtight --parallel 40 --molden --ceasefiles --namespace data2507/toluene/TCz-3PA-TCz/TCz-3PA-TCz_toluene_T1_preOpt
      * Solvation model:               GBSA
        Solvent                        toluene
        Solvent mass                       9.2140E+01 g/mol
          :  Hamiltonian                  GFN2-xTB          :
 * total energy  :  -191.1063080 Eh     change        0.8142734E-08 Eh
 * total energy  :  -191.1094601 Eh     change       -0.3152156E-02 Eh
 * total energy  :  -191.1105224 Eh     change       -0.1062242E-02 Eh
 * total energy  :  -191.1106866 Eh     change       -0.1642594E-03 Eh
 * total energy  :  -191.1107741 Eh     change       -0.8751266E-04 Eh
 * total energy  :  -191.1108066 Eh     change       -0.3249812E-04 Eh
 * total energy  :  -191.1108459 Eh     change       -0.3921707E-04 Eh
 * total energy  :  -191.1108715 Eh     change       -0.2565208E-04 Eh
 * total energy  :  -191.1108910 Eh     change       -0.1945334E-04 Eh
 * total energy  :  -191.1109064 Eh     change       -0.1543026E-04 Eh
 * total energy  :  -191.1115518 Eh     change       -0.1130460E-05 Eh
 * total energy  :  -191.1115532 Eh     change       -0.1394712E-05 Eh
 * total energy  :  -191.1115549 Eh     change       -0.1671176E-05 Eh
 * total energy  :  -191.1115567 Eh     change       -0.1820550E-05 Eh
 * total energy  :  -191.1115582 Eh     change       -0.1502580E-05 Eh
 * total energy  :  -191.1115594 Eh     change       -0.1198399E-05 Eh
 * total energy  :  -191.1115605 Eh     change       -0.1079636E-05 Eh
 * total energy  :  -191.1115615 Eh     change       -0.9836738E-06 Eh
 * total energy  :  -191.1115615 Eh     change       -0.1830313E-07 Eh
   *** GEOMETRY OPTIMIZATION CONVERGED AFTER 122 ITERATIONS ***

 final structure:
================
138
 xtb: 6.7.1 (edcfbbe)
C            8.89823583778763        8.00889272722866       -2.99353734639403
C            9.76597444897666        7.33231171400575       -1.92785040591969
C            9.72608546175038        8.19759660430324       -0.65927161572004
C           11.20492453272418        7.25626067426982       -2.46031380632605
C            9.29035245135239        5.92812556964488       -1.58808922003332
C            9.97490618840376        5.18082987305890       -0.63112658105024
C            9.58624648669210        3.89954567998619       -0.29760636670587
C            8.48282141420296        3.30526825109359       -0.90678311807070
C            8.06236864397019        1.94005867257229       -0.56483478994685
C            9.02025821569878        0.93776467418367       -0.35922674565765
C            8.66945728123694       -0.36416067557937       -0.06393931192728
C            7.31851672766679       -0.67184968844119        0.02502812115573
C            6.33572880531858        0.33308347047456       -0.14086962618030
C            6.70947980457262        1.62997641195061       -0.44412259949505
C            5.05982419896423       -0.30531320769090        0.06673196746615
C            3.75996928004595        0.15337765413663        0.02944098161287
C            2.70338649510993       -0.75258880018463        0.24445613924093
C            1.33318980717719       -0.35524756876510        0.22413485674301
C            0.88385589932064        0.97854960281124        0.35631928372094
N           -0.36389859161645        1.30797376550052        0.41954246246453
C           -1.34781095738808        0.35608760162708        0.31909789929258
C           -2.71590463792033        0.76330147958307        0.30352298365445
C           -3.01633501462097        2.13578914961928        0.50304379980310
C           -4.30197655353048        2.61162401273763        0.54925931341273
C           -5.34700987900133        1.70505846470422        0.37982970328602
C           -5.07716540506028        0.33876150561589        0.12063272242179
C           -3.78096954504342       -0.13223136594266        0.09033309718255
C           -6.35736588815459       -0.29297023355185       -0.07821997290807
C           -6.74056105044101       -1.59183057751733       -0.36111302944406
C           -8.09472689424238       -1.89268332821547       -0.48862971401042
C           -8.52383182316599       -3.25844517854934       -0.81626391901133
C           -7.88190853503795       -4.36852218522247       -0.27004296355081
C           -8.28383241739150       -5.64906321645144       -0.58988506721555
C           -9.33875896052154       -5.88744684742787       -1.46919875006781
C           -9.73848018894556       -7.31827707330022       -1.79531522641206
C           -8.54405149116914       -8.03462697495615       -2.44340407962001
C          -10.13387199291566       -8.03818773174196       -0.49719089913622
C          -10.92373952331990       -7.39514814493644       -2.76259703167352
C           -9.97607256405603       -4.77741044724751       -2.01172062396249
C           -9.58019093899836       -3.49146632658723       -1.69216530187620
C           -9.04545613673225       -0.87934706127312       -0.30102133836828
C           -8.68602946535779        0.42148506856963       -0.01302969365902
C           -7.33290074858369        0.72102848144973        0.07511078163395
N           -6.70880733493456        1.91852490320424        0.35187324111184
C           -7.35046795098124        3.14240830686021        0.59370397108013
C           -8.30605380341347        3.62954810742715       -0.28958268956427
C           -8.93861662703722        4.83429435718299       -0.04000530217563
C           -8.63820307983365        5.59262932323911        1.08622940053551
C           -9.30891609522444        6.92206160203541        1.39487487039420
C          -10.04783739052539        6.80794474113689        2.73685868162549
C          -10.32294466141709        7.33505333516396        0.32377759208174
C           -8.23455508560242        8.01642184947213        1.48390995571552
C           -7.67484585086915        5.09010389273913        1.96003076760214
C           -7.03958327060648        3.88761147936785        1.72728291502846
C           -0.89717148661022       -0.97984579684468        0.21630758235719
N            0.35052858063243       -1.31270989942273        0.17114537999600
C            3.01388622833500       -2.11863160652000        0.46994427232140
C            4.30310045268574       -2.58317057426293        0.51588095156097
C            5.34018779751685       -1.66764908699384        0.33991445057228
N            6.70228224863174       -1.87087112079652        0.31564426409251
C            7.35077689714294       -3.08750771008067        0.57473858204110
C            7.03824887904941       -3.82220409431034        1.71475034508004
C            7.67611318684800       -5.02055942138365        1.96154641566644
C            8.64368847607862       -5.52888791066396        1.09586380370992
C            9.31432967525907       -6.85518123357630        1.41759152667078
C           10.04068444415119       -6.73402169854120        2.76577533454489
C           10.33888476041987       -7.27165270419478        0.35792443523011
C            8.24038144035587       -7.95038958218564        1.50169781658194
C            8.94649876782731       -4.78028049774984       -0.03638489106603
C            8.31156841553318       -3.57991257040250       -0.30009641487379
C            7.79215398276943        4.04935905202930       -1.85879816514214
C            8.19008672813925        5.33105230573075       -2.19283837165540
H            8.91535921066216        7.44907984445738       -3.92606248307149
H            7.86906596507899        8.10838706201251       -2.65556384497001
H            9.28367518281631        9.00675225861166       -3.19406541763850
H            8.71299463245585        8.23865283072143       -0.26339878133158
H           10.37754026531332        7.79936496408798        0.11381621093332
H           10.04877963462405        9.21141682341637       -0.88754127488367
H           11.24419980836292        6.62929910805111       -3.34924919125555
H           11.88048156204559        6.83825274074732       -1.71898658613482
H           11.55995543626195        8.25071707345215       -2.72303935493654
H           10.83281308949121        5.60280217061536       -0.12867526321637
H           10.13276828526385        3.35813733761272        0.46154617461701
H           10.06600733350158        1.18940604614289       -0.45627956457476
H            9.42669825122740       -1.11665197223127        0.09538068332790
H            5.96087863970818        2.39895634258140       -0.56290654320772
H            3.56138305058714        1.19214961711403       -0.18423145160870
H            1.59884377634009        1.77898641085402        0.49160290363340
H           -2.18417205667848        2.80993487078568        0.63536437216781
H           -4.49559594083834        3.66217411754138        0.70644173271293
H           -3.59731667462772       -1.17479797567434       -0.11686206839596
H           -5.99490005874305       -2.35959555829108       -0.50351766033319
H           -7.07145416337099       -4.22513672156493        0.43061397525309
H           -7.75926632200748       -6.47807938506116       -0.13802339275011
H           -7.68824662458982       -8.06243130961923       -1.77430493473387
H           -8.24643633072860       -7.52060516419091       -3.35557196970979
H           -8.81295360328700       -9.05835878126477       -2.69581768718789
H           -9.30320191203695       -8.08084266049251        0.20192873305564
H          -10.95903553547721       -7.51777173972402       -0.01449335907894
H          -10.44780294396807       -9.05705500435131       -0.71504198891283
H          -11.80553644270397       -6.91857152959172       -2.33996224135470
H          -10.68448750569633       -6.92486718247862       -3.71382234993374
H          -11.16592372426723       -8.43844368102681       -2.95597184075145
H          -10.79544059605130       -4.89821813752458       -2.70190311669241
H          -10.08707976011202       -2.65437019157049       -2.15088972963216
H          -10.09379817406266       -1.13186415290930       -0.36132660434335
H           -9.43816018446588        1.17897503184258        0.14756834113080
H           -8.54119799537767        3.06954450864371       -1.18279492653935
H           -9.67097628397281        5.17621472610229       -0.75256939430893
H           -9.36348918481326        6.57758459523135        3.54876586483089
H          -10.54770806735184        7.74604987699406        2.96854500618554
H          -10.79736066844793        6.02027674028952        2.68862408701665
H           -9.84356860125978        7.45016031167036       -0.64576004897384
H          -11.12669807011315        6.60686287297695        0.24209131227941
H          -10.76484712199106        8.29180912702025        0.59484892124180
H           -7.68318646746817        8.08014456000426        0.54768983934771
H           -8.69958022092939        8.98090496481622        1.67668543381566
H           -7.52682247159257        7.81552298508389        2.28335834189528
H           -7.41281384706507        5.64039312331503        2.85073017604599
H           -6.31005956121294        3.51110876561168        2.42926910837476
H           -1.61036231199422       -1.78874438184592        0.13328773470461
H            2.18636451882354       -2.79922883851606        0.59911121716123
H            4.50756338401385       -3.63211004889367        0.67027962462066
H            6.30533451310292       -3.44071810044509        2.41045857357269
H            7.41210810439213       -5.56314553867168        2.85634952768666
H            9.34843281788874       -6.50421897922627        3.57108852759933
H           10.54208151628220       -7.66949677177326        3.00467527185712
H           10.78763074404240       -5.94367086971462        2.72186810032038
H           11.14095645735719       -6.54134477861386        0.27854691897355
H           10.78142759946945       -8.22523750293105        0.63891406454433
H            9.86844524139362       -7.39468429591342       -0.61499198075276
H            7.69954323344625       -8.02084128644953        0.55982468824653
H            7.52352030994228       -7.74509802575320        2.29187282634219
H            8.70440828051322       -8.91301404433313        1.70577738879128
H            9.68223339374125       -5.12716158014040       -0.74300047229634
H            8.54775360535173       -3.02859442926428       -1.19838952915329
H            6.94343469594857        3.61024508540839       -2.36423893712486
H            7.62272724740208        5.85841775337823       -2.94276147643163

          :  Hamiltonian                  GFN2-xTB          :
         :: gradient norm              0.000065983897 Eh/a0 ::
         :: HOMO-LUMO gap              0.737893792215 eV    ::
         :: SCC energy              -194.506074489393 Eh    ::
         :: -> dispersion             -0.172887481267 Eh    ::
         :: -> Gsolv                  -0.079640522352 Eh    ::
         :: repulsion energy           3.394512973302 Eh    ::

    * Orbital Energies and Occupations

         #    Occupation            Energy/Eh            Energy/eV
      -------------------------------------------------------------
         1        2.0000           -0.6781232             -18.4527
       ...           ...                  ...                  ...
       168        2.0000           -0.4027554             -10.9595
       169        2.0000           -0.4012803             -10.9194
       170        2.0000           -0.3981165             -10.8333
       171        2.0000           -0.3978139             -10.8251
       172        2.0000           -0.3921013             -10.6696
       173        2.0000           -0.3873767             -10.5411
       174        2.0000           -0.3863092             -10.5120
       175        2.0000           -0.3787301             -10.3058
       176        2.0000           -0.3718412             -10.1183
       177        2.0000           -0.3612533              -9.8302
       178        1.8239           -0.3532146              -9.6115
       179        1.1762           -0.3502837              -9.5317
       180        1.0000           -0.2761493              -7.5144 (HOMO)
       181        0.0000           -0.2490325              -6.7765 (LUMO)
       182                         -0.2448094              -6.6616
       183                         -0.2436377              -6.6297
       184                         -0.2396629              -6.5216
       185                         -0.2382321              -6.4826
       186                         -0.2306722              -6.2769
       187                         -0.2271840              -6.1820
       188                         -0.2265644              -6.1651
       189                         -0.2234136              -6.0794
       190                         -0.2158619              -5.8739
       191                         -0.2155380              -5.8651
       ...                                ...                  ...
       354                          0.7485593              20.3693
      -------------------------------------------------------------
                  HL-Gap            0.0271168 Eh            0.7379 eV

     #   Z          covCN         q      C6AA      α(0)
     1   6 C        3.761    -0.107    22.585     6.775
     2   6 C        3.902     0.025    20.101     6.373
     3   6 C        3.761    -0.104    22.542     6.768
     4   6 C        3.761    -0.105    22.543     6.768
     5   6 C        2.973     0.007    27.871     8.660
     6   6 C        2.926    -0.037    28.922     8.819
     7   6 C        2.923    -0.039    28.958     8.825
     8   6 C        2.976     0.004    27.924     8.668
     9   6 C        2.975     0.000    28.013     8.682
    10   6 C        2.928    -0.039    28.973     8.827
    11   6 C        2.908    -0.050    29.231     8.865
    12   6 C        3.074     0.045    26.914     8.506
    13   6 C        3.063    -0.018    28.384     8.737
    14   6 C        2.918    -0.038    28.934     8.821
    15   6 C        3.058    -0.015    28.331     8.729
    16   6 C        2.914    -0.049    29.228     8.865
    17   6 C        2.972    -0.007    28.186     8.708
    18   6 C        2.936     0.046    26.976     8.518
    19   6 C        2.876     0.057    26.717     8.473
    20   7 N        1.844    -0.223    26.722     7.661
    21   6 C        2.936     0.046    26.975     8.518
    22   6 C        2.971    -0.008    28.210     8.712
    23   6 C        2.929    -0.040    29.003     8.832
    24   6 C        2.906    -0.049    29.213     8.862
    25   6 C        3.076     0.039    27.043     8.526
    26   6 C        3.058    -0.016    28.352     8.732
    27   6 C        2.914    -0.051    29.257     8.870
    28   6 C        3.063    -0.018    28.398     8.739
    29   6 C        2.918    -0.038    28.944     8.822
    30   6 C        2.975    -0.000    28.033     8.685
    31   6 C        2.976     0.004    27.925     8.668
    32   6 C        2.924    -0.038    28.954     8.824
    33   6 C        2.926    -0.037    28.922     8.819
    34   6 C        2.973     0.006    27.876     8.660
    35   6 C        3.902     0.025    20.101     6.373
    36   6 C        3.761    -0.104    22.538     6.768
    37   6 C        3.761    -0.104    22.541     6.768
    38   6 C        3.761    -0.107    22.588     6.775
    39   6 C        2.924    -0.041    29.031     8.836
    40   6 C        2.924    -0.039    28.965     8.826
    41   6 C        2.928    -0.040    28.983     8.829
    42   6 C        2.908    -0.050    29.245     8.867
    43   6 C        3.074     0.045    26.908     8.505
    44   7 N        2.801    -0.033    21.872     6.946
    45   6 C        2.913     0.058    26.700     8.473
    46   6 C        2.921    -0.044    29.103     8.847
    47   6 C        2.925    -0.038    28.950     8.824
    48   6 C        2.972     0.010    27.799     8.649
    49   6 C        3.902     0.026    20.079     6.369
    50   6 C        3.761    -0.106    22.577     6.773
    51   6 C        3.761    -0.109    22.631     6.782
    52   6 C        3.761    -0.106    22.578     6.774
    53   6 C        2.927    -0.034    28.840     8.807
    54   6 C        2.920    -0.044    29.089     8.844
    55   6 C        2.876     0.057    26.713     8.473
    56   7 N        1.843    -0.225    26.753     7.665
    57   6 C        2.929    -0.039    28.980     8.828
    58   6 C        2.905    -0.048    29.194     8.860
    59   6 C        3.076     0.040    27.029     8.524
    60   7 N        2.801    -0.030    21.820     6.938
    61   6 C        2.913     0.058    26.705     8.474
    62   6 C        2.920    -0.044    29.083     8.844
    63   6 C        2.927    -0.034    28.836     8.806
    64   6 C        2.972     0.010    27.789     8.647
    65   6 C        3.902     0.026    20.077     6.369
    66   6 C        3.761    -0.106    22.579     6.774
    67   6 C        3.761    -0.109    22.633     6.782
    68   6 C        3.761    -0.106    22.579     6.774
    69   6 C        2.925    -0.038    28.945     8.823
    70   6 C        2.921    -0.044    29.097     8.846
    71   6 C        2.925    -0.038    28.954     8.824
    72   6 C        2.924    -0.041    29.026     8.835
    73   1 H        0.925     0.036     2.508     2.477
    74   1 H        0.925     0.035     2.512     2.478
    75   1 H        0.925     0.037     2.483     2.464
    76   1 H        0.925     0.032     2.555     2.499
    77   1 H        0.925     0.037     2.494     2.470
    78   1 H        0.925     0.039     2.465     2.455
    79   1 H        0.925     0.033     2.551     2.497
    80   1 H        0.925     0.037     2.493     2.469
    81   1 H        0.925     0.039     2.464     2.455
    82   1 H        0.926     0.030     2.590     2.517
    83   1 H        0.926     0.028     2.614     2.528
    84   1 H        0.926     0.036     2.506     2.475
    85   1 H        0.926     0.035     2.510     2.478
    86   1 H        0.926     0.032     2.552     2.498
    87   1 H        0.926     0.025     2.658     2.550
    88   1 H        0.925     0.042     2.424     2.435
    89   1 H        0.926     0.042     2.422     2.434
    90   1 H        0.926     0.033     2.537     2.491
    91   1 H        0.926     0.023     2.684     2.562
    92   1 H        0.926     0.032     2.564     2.504
    93   1 H        0.926     0.026     2.643     2.542
    94   1 H        0.926     0.029     2.605     2.524
    95   1 H        0.925     0.036     2.502     2.474
    96   1 H        0.925     0.032     2.555     2.499
    97   1 H        0.925     0.039     2.464     2.455
    98   1 H        0.925     0.036     2.499     2.472
    99   1 H        0.925     0.033     2.550     2.497
   100   1 H        0.925     0.039     2.465     2.455
   101   1 H        0.925     0.036     2.504     2.474
   102   1 H        0.925     0.036     2.507     2.476
   103   1 H        0.925     0.037     2.483     2.464
   104   1 H        0.926     0.037     2.494     2.469
   105   1 H        0.926     0.028     2.613     2.528
   106   1 H        0.926     0.035     2.518     2.482
   107   1 H        0.926     0.034     2.525     2.485
   108   1 H        0.926     0.039     2.458     2.452
   109   1 H        0.926     0.048     2.346     2.395
   110   1 H        0.925     0.038     2.476     2.461
   111   1 H        0.925     0.041     2.433     2.439
   112   1 H        0.925     0.034     2.527     2.486
   113   1 H        0.925     0.037     2.482     2.464
   114   1 H        0.925     0.038     2.481     2.463
   115   1 H        0.925     0.040     2.453     2.449
   116   1 H        0.925     0.034     2.530     2.488
   117   1 H        0.925     0.041     2.435     2.440
   118   1 H        0.925     0.038     2.475     2.460
   119   1 H        0.926     0.041     2.440     2.443
   120   1 H        0.926     0.038     2.470     2.458
   121   1 H        0.925     0.042     2.426     2.436
   122   1 H        0.926     0.042     2.427     2.436
   123   1 H        0.926     0.035     2.518     2.482
   124   1 H        0.926     0.039     2.463     2.454
   125   1 H        0.926     0.041     2.434     2.440
   126   1 H        0.925     0.038     2.474     2.460
   127   1 H        0.925     0.041     2.432     2.439
   128   1 H        0.925     0.034     2.526     2.485
   129   1 H        0.925     0.038     2.479     2.462
   130   1 H        0.925     0.040     2.452     2.449
   131   1 H        0.925     0.038     2.481     2.463
   132   1 H        0.925     0.034     2.529     2.487
   133   1 H        0.925     0.038     2.474     2.460
   134   1 H        0.925     0.041     2.434     2.440
   135   1 H        0.926     0.049     2.338     2.391
   136   1 H        0.926     0.040     2.450     2.447
   137   1 H        0.926     0.027     2.635     2.539
   138   1 H        0.926     0.036     2.502     2.473

molecular dipole:
                 x           y           z       tot (Debye)
 q only:        0.281      -0.017       0.227
   full:        0.287      -0.022       0.259       0.985

 projected vibrational frequencies (cm⁻¹)
eigval :       -0.00    -0.00    -0.00    -0.00     0.00     0.00
eigval :        2.59     4.84     7.84    14.64    16.92    17.21
eigval :       19.96    20.26    21.85    24.17    25.06    30.54
eigval :       36.97    39.96    50.37    51.10    54.50    60.70
eigval :       65.86    69.60    76.55    76.76    81.72    92.32
eigval :       93.86    96.86   107.43   114.03   122.16   123.68
eigval :      136.21   146.73   154.20   158.62   160.44   163.91
eigval :      171.65   173.03   184.30   186.46   192.16   206.24
eigval :      208.68   211.46   213.78   217.50   223.13   225.03
eigval :      229.33   236.32   248.08   251.59   252.85   257.70
eigval :      266.93   287.64   293.92   297.30   302.91   313.30
eigval :      313.92   314.25   314.55   314.93   317.42   321.97
eigval :      326.80   338.52   350.78   355.27   361.97   362.86
eigval :      364.58   367.06   371.03   376.73   380.58   381.89
eigval :      383.36   383.53   385.27   390.02   391.64   395.62
eigval :      400.46   407.15   410.53   416.47   424.55   428.07
eigval :      433.04   439.33   447.66   448.57   454.41   456.91
eigval :      461.29   462.80   469.60   475.36   478.79   499.13
eigval :      529.45   532.73   535.58   539.80   547.50   554.41
eigval :      555.95   564.70   567.10   575.23   576.18   586.52
eigval :      591.95   598.57   602.43   606.77   607.06   615.08
eigval :      620.25   622.51   623.80   629.15   637.15   670.58
eigval :      671.20   673.56   682.39   692.03   696.82   699.26
eigval :      699.77   700.73   704.00   704.59   725.61   748.41
eigval :      751.86   756.45   764.40   767.36   800.46   803.97
eigval :      805.76   809.07   818.02   820.12   820.40   830.41
eigval :      831.11   834.05   836.55   853.03   863.33   866.09
eigval :      870.41   873.75   874.04   878.48   878.56   879.81
eigval :      879.98   884.00   888.57   903.22   904.28   904.32
eigval :      905.95   908.31   908.59   916.47   922.87   924.60
eigval :      924.65   928.52   933.35   934.01   934.30   937.22
eigval :      938.76   939.22   958.43   958.74   958.89   959.88
eigval :      960.38   961.42   961.47   961.62   962.51   963.55
eigval :      963.67   963.98   994.04   995.28  1014.55  1015.10
eigval :     1024.63  1027.08  1033.52  1033.65  1033.93  1034.40
eigval :     1034.46  1034.57  1034.70  1035.03  1044.12  1044.80
eigval :     1076.96  1077.17  1112.97  1128.20  1138.62  1139.65
eigval :     1141.27  1143.57  1144.36  1146.06  1147.00  1148.84
eigval :     1154.77  1156.46  1161.10  1182.76  1183.88  1195.18
eigval :     1208.03  1208.13  1217.39  1218.10  1218.72  1222.95
eigval :     1224.68  1224.81  1225.05  1225.06  1230.73  1231.28
eigval :     1231.35  1231.83  1232.02  1233.38  1241.53  1242.79
eigval :     1265.68  1268.12  1272.88  1276.16  1281.08  1282.13
eigval :     1283.26  1283.89  1284.56  1287.33  1287.48  1292.15
eigval :     1306.42  1308.01  1316.34  1316.48  1318.41  1318.99
eigval :     1333.19  1341.07  1343.49  1344.04  1348.19  1349.87
eigval :     1376.72  1378.12  1395.31  1395.39  1397.57  1397.66
eigval :     1401.46  1402.63  1402.90  1402.99  1405.98  1406.18
eigval :     1408.11  1408.13  1415.95  1422.96  1423.61  1425.96
eigval :     1426.49  1426.60  1426.71  1436.56  1450.16  1457.07
eigval :     1467.75  1468.40  1477.37  1486.40  1486.90  1487.27
eigval :     1487.56  1488.27  1488.40  1489.30  1489.90  1491.83
eigval :     1491.96  1494.58  1494.73  1498.91  1499.35  1500.38
eigval :     1501.03  1501.84  1502.29  1507.68  1507.93  1510.25
eigval :     1510.70  1510.76  1511.07  1511.67  1515.80  1516.02
eigval :     1517.59  1518.01  1519.99  1521.29  1558.92  1559.12
eigval :     1564.33  1564.56  1568.17  1568.45  1572.30  1574.48
eigval :     1582.94  1588.76  1595.70  1596.51  1605.83  1606.30
eigval :     3019.10  3019.12  3019.90  3019.99  3021.12  3021.31
eigval :     3021.81  3021.90  3023.17  3023.19  3024.59  3024.79
eigval :     3025.18  3025.34  3025.99  3026.03  3026.99  3027.03
eigval :     3029.21  3029.41  3030.10  3030.47  3031.89  3031.96
eigval :     3035.15  3035.39  3036.77  3036.86  3041.48  3042.82
eigval :     3043.55  3043.71  3044.55  3044.77  3046.37  3047.01
eigval :     3047.97  3048.27  3066.86  3067.03  3069.21  3069.98
eigval :     3079.35  3080.22  3080.26  3080.56  3080.65  3081.57
eigval :     3081.75  3082.07  3084.32  3084.47  3084.97  3085.20
eigval :     3088.50  3090.08  3091.24  3092.44  3093.47  3093.82
eigval :     3098.75  3099.74  3106.96  3107.73  3116.33  3116.77

   temp. (K)  partition function   enthalpy   heat capacity  entropy
                                   cal/mol     cal/K/mol   cal/K/mol   J/K/mol
 298.15  VIB  0.839E+34            40640.922    246.738    256.665
         ROT  0.748E+09              888.752      2.981     43.587
         INT  0.628E+43            41529.675    249.719    300.252
         TR   0.279E+29             1481.254      4.968     46.374
         TOT                       43010.9287   254.6871   346.6255  1450.2810

       T/K    H(0)-H(T)+PV         H(T)/Eh          T*S/Eh         G(T)/Eh
   ------------------------------------------------------------------------
    298.15    0.685423E-01    0.119854E+01    0.164693E+00    0.103385E+01
   ------------------------------------------------------------------------

         :::::::::::::::::::::::::::::::::::::::::::::::::::::
         ::                  THERMODYNAMIC                  ::
         :::::::::::::::::::::::::::::::::::::::::::::::::::::
         :: total free energy        -190.077715073077 Eh   ::
         ::.................................................::
         :: total energy             -191.111561521048 Eh   ::
         :: zero point energy           1.129997124646 Eh   ::
         :: G(RRHO) w/o ZPVE           -0.096150676675 Eh   ::
         :: G(RRHO) contrib.            1.033846447971 Eh   ::
         :::::::::::::::::::::::::::::::::::::::::::::::::::::

           -------------------------------------------------
          | TOTAL ENERGY             -191.111561521048 Eh   |
          | TOTAL ENTHALPY           -189.913022118542 Eh   |
          | TOTAL FREE ENERGY        -190.077715073077 Eh   |
          | GRADIENT NORM               0.000069235542 Eh/α |
          | HOMO-LUMO GAP               0.737886529829 eV   |
           -------------------------------------------------

 * finished run on 2025/09/05 at 03:45:28.101
