   * xtb version 6.7.1 (edcfbbe) compiled by 'albert@albert-system' on 2024-07-22

   ID    Z sym.   atoms
    1    6 C      1-19, 21-43, 45-55, 57-59, 61-72
    2    7 N      20, 44, 56, 60
    3    1 H      73-138

          program call               : xtb data2507/toluene/TCz-3PA-TCz/TCz-3PA-TCz_toluene_T1_crest.xyz --gfn 2 --uhf 2 --gbsa toluene --ohess vtight --parallel 40 --molden --ceasefiles --namespace data2507/toluene/TCz-3PA-TCz/TCz-3PA-TCz_toluene_T1_finalOpt
      * Solvation model:               GBSA
        Solvent                        toluene
        Solvent mass                       9.2140E+01 g/mol
          :  Hamiltonian                  GFN2-xTB          :
 * total energy  :  -191.1118280 Eh     change       -0.1567543E-08 Eh
 * total energy  :  -191.1119158 Eh     change       -0.8785687E-04 Eh
 * total energy  :  -191.1119734 Eh     change       -0.5760959E-04 Eh
 * total energy  :  -191.1119837 Eh     change       -0.1029281E-04 Eh
 * total energy  :  -191.1119909 Eh     change       -0.7131735E-05 Eh
 * total energy  :  -191.1119944 Eh     change       -0.3584566E-05 Eh
 * total energy  :  -191.1120021 Eh     change       -0.7633321E-05 Eh
 * total energy  :  -191.1120068 Eh     change       -0.4689015E-05 Eh
 * total energy  :  -191.1120105 Eh     change       -0.3768165E-05 Eh
 * total energy  :  -191.1120136 Eh     change       -0.3089580E-05 Eh
 * total energy  :  -191.1120225 Eh     change       -0.2001310E-05 Eh
 * total energy  :  -191.1120246 Eh     change       -0.2109327E-05 Eh
 * total energy  :  -191.1120265 Eh     change       -0.1963887E-05 Eh
 * total energy  :  -191.1120279 Eh     change       -0.1331715E-05 Eh
 * total energy  :  -191.1120288 Eh     change       -0.9336898E-06 Eh
 * total energy  :  -191.1120296 Eh     change       -0.7552880E-06 Eh
 * total energy  :  -191.1120302 Eh     change       -0.6342306E-06 Eh
 * total energy  :  -191.1120307 Eh     change       -0.5082467E-06 Eh
 * total energy  :  -191.1120307 Eh     change       -0.2251946E-07 Eh
   *** GEOMETRY OPTIMIZATION CONVERGED AFTER 22 ITERATIONS ***

 final structure:
================
138
 xtb: 6.7.1 (edcfbbe)
C           11.65182730519805        7.05833099803034        0.15450892017717
C           10.18143701948680        7.06166757174266       -0.28995838268018
C           10.07940143104186        7.54650243638511       -1.74413250503372
C            9.41708652626102        8.04974033176466        0.59652887361767
C            9.63287292618953        5.64592205064810       -0.19933724967272
C            8.55394980671434        5.29830938005809        0.60552040550380
C            8.08330382688501        3.99886009903945        0.65749146384362
C            8.67678758692081        2.98659325052135       -0.09078269852477
C            8.17654328658999        1.60659920506946       -0.03595181413996
C            9.07510438770637        0.53075437003390       -0.01707983513739
C            8.64952855352071       -0.78135060476186        0.03026077280385
C            7.28246302956691       -1.02432349507747        0.04340780775497
C            6.35854482032051        0.04743056803521        0.04645957622019
C            6.80734011400596        1.35545145359260        0.00686466086290
C            5.04642821135529       -0.54541781396160        0.10878123913171
C            3.77482646484180       -0.01219202913348        0.11833294397375
C            2.66380045187367       -0.87613089688400        0.16694663008194
C            1.31724672281620       -0.40641207644198        0.19362404917321
C            0.92461776543434        0.93331700629766       -0.03697794186551
N           -0.30706493055050        1.31254360135567       -0.11778457858097
C           -1.33224871148101        0.41365693317457        0.04368038558362
C           -2.67936136518568        0.88128233124725        0.05237305657239
C           -2.91253741883838        2.28151134358842        0.06161674235017
C           -4.17333167786070        2.81984514500370        0.06063054289348
C           -5.26240757889283        1.94904008153377        0.06988337712559
C           -5.06175928033818        0.54642665784023        0.03049384538686
C           -3.78952084793731        0.01465797402624        0.02819911653265
C           -6.37533771042461       -0.04598501057103       -0.01117075048856
C           -6.82554120222581       -1.35368187131166       -0.04623874680499
C           -8.19561578586050       -1.60403297119880       -0.06667442285870
C           -8.69859716908356       -2.98314987554521       -0.11787471959330
C           -8.09097323066191       -4.00086735318572        0.61515305824839
C           -8.56753463854357       -5.29460087568067        0.56178350576409
C           -9.66442406608354       -5.63918951009122       -0.22618765476578
C          -10.14834910818035       -7.08091645159662       -0.25299327023673
C           -9.00815989613473       -7.98363742104842       -0.74772806527886
C          -10.56119289017797       -7.49670256204843        1.16705985216389
C          -11.35204016078773       -7.28337974897255       -1.17842545421707
C          -10.26585608224675       -4.62113374992761       -0.95737178261349
C           -9.79644905279956       -3.32132353994306       -0.90345127979336
C           -9.09308889936098       -0.52785338206877       -0.02918184598258
C           -8.66605061529557        0.78397288558625        0.01176505594427
C           -7.29896263517890        1.02614389188927       -0.00043265075741
N           -6.61261458380960        2.22138020203924        0.04933942002245
C           -7.18895323829685        3.49969216356097        0.08667666794210
C           -8.15711026300156        3.86768735756398       -0.84298088978437
C           -8.71168957313986        5.13055167827134       -0.80056508595461
C           -8.32522707697025        6.07094327305905        0.15353340761101
C           -8.96115305227183        7.45224341513986        0.14572880237521
C           -8.42673686937830        8.35456743348290        1.26205740719647
C          -10.47901360654614        7.30752692805475        0.33191158639398
C           -8.66450165679353        8.12915507565745       -1.20110697587787
C           -7.35689878297332        5.68686801086399        1.07483489086749
C           -6.79706985365913        4.42228804943994        1.04930792162003
C           -0.93982175862942       -0.92394044879342        0.28584499520978
N            0.29216536430987       -1.30243394954566        0.36900031243906
C            2.89656723006333       -2.27630570096780        0.18125606507272
C            4.15706801614428       -2.81636757216627        0.17493068399361
C            5.24739917545309       -1.94765161867639        0.15111615888602
N            6.59764392744742       -2.21960348638478        0.10770120204218
C            7.17840056536559       -3.49696670437468        0.11587134923999
C            6.82385576207587       -4.42926496914425        1.08331958927651
C            7.39202140929532       -5.69046496797619        1.08004571867373
C            8.33224549131936       -6.06108085948373        0.12469180475949
C            8.97832522173972       -7.43720067321263        0.08663779706312
C           10.49867961998220       -7.28078840538920        0.24028954047786
C            8.65746782550916       -8.10247897490148       -1.26044320803340
C            8.47662541304648       -8.35636251534383        1.20441665379491
C            8.68163620792459       -5.11090760565636       -0.83385958705430
C            8.11743232846361       -3.85166295449232       -0.84805910297941
C            9.76059488481218        3.32973079167482       -0.89682451747342
C           10.22187852110525        4.62906062093890       -0.94886283301113
H           11.73481250902180        6.69767272190364        1.17813785765800
H           12.25675569847710        6.41836959318690       -0.48203756843240
H           12.05879356512963        8.06648783567763        0.10928900168255
H           10.66360600549361        6.92053721264187       -2.41313235432422
H            9.04292328907722        7.52545194476100       -2.07584538758669
H           10.44726695725247        8.56738530186971       -1.82487548272507
H            9.47946578922573        7.76517746940676        1.64458796017275
H            8.37098224504959        8.10977587570503        0.30430143382695
H            9.85232482135940        9.04174190314687        0.49157843110578
H            8.06027721639320        6.04028166641273        1.21233850290240
H            7.25354578118651        3.76319970362201        1.30896450002316
H           10.13500632416123        0.73853301029562       -0.01394914122910
H            9.36204740517187       -1.59136653065114        0.06872787577639
H            6.10166130015111        2.17244022740849       -0.00991647335399
H            3.64485698007307        1.05812703232955        0.08568480722185
H            1.67021337004802        1.69078636225632       -0.23692310223958
H           -2.04733765623378        2.92641586247967        0.05214504645755
H           -4.31652054435466        3.88976209871813        0.03872499597285
H           -3.65579626057827       -1.05520953388210       -0.00751937936867
H           -6.12065211449201       -2.17093862442777       -0.07719317463988
H           -7.24851324686474       -3.77008641909998        1.25180324090722
H           -8.06920889725219       -6.04854012592463        1.15328069949434
H           -9.34264460896758       -9.01808505507203       -0.79350195152266
H           -8.14698505079317       -7.93377510541949       -0.08697825025369
H           -8.69156395768519       -7.67854476294456       -1.74349733884395
H           -9.72525666832367       -7.43094013902575        1.85820255633257
H          -11.35704250685696       -6.85018711848103        1.53235653795080
H          -10.92283116917363       -8.52299919271354        1.16635273356093
H          -12.20091086009113       -6.68607156509163       -0.85321239741706
H          -11.10451672133940       -7.02364090601188       -2.20535609120564
H          -11.65105744638075       -8.32968102764853       -1.15969137075439
H          -11.11537570724217       -4.82696597961253       -1.58847042290095
H          -10.27854175158137       -2.56042714057627       -1.50084134695270
H          -10.15283327423142       -0.73504366759272       -0.00707665706579
H           -9.37734029087382        1.59416541180198        0.06497155613695
H           -8.45718045590577        3.16698164590354       -1.60808464375091
H           -9.45641551262304        5.38452949196597       -1.53920263825218
H           -7.35589987232378        8.51447212480537        1.15841544558191
H           -8.91679612733087        9.32463702330274        1.20789427276952
H           -8.63225118008159        7.92987337168647        2.24208518204295
H          -10.92551206664867        6.73090831100917       -0.47341174787262
H          -10.69706519654657        6.80614205481598        1.27298291110419
H          -10.94800087490887        8.28909270032130        0.34750279749775
H           -9.08394303275343        7.56562239483596       -2.02988446859423
H           -9.09226340383759        9.12932535134394       -1.21840148266974
H           -7.58994489633726        8.21096872004185       -1.35329683038092
H           -7.02387532034057        6.36992897803540        1.83867298471536
H           -6.06099347193256        4.14073098013972        1.78800071666802
H           -1.68610412118102       -1.67753210477826        0.49809796938747
H            2.03157204153483       -2.92111021145915        0.20477076378986
H            4.29724848163175       -3.88674641761437        0.18051150094340
H            6.11068029895421       -4.15863342976741        1.84806846378719
H            7.08863570075658       -6.38167768606137        1.84890252878946
H           10.73365464283506       -6.79079316791010        1.18330045015639
H           10.97700881920366       -8.25791300119135        0.23088738562170
H           10.92085651798531       -6.68808448122872       -0.56652393396302
H            9.05583250196726       -7.52839539230083       -2.09233045147483
H            9.09104596119860       -9.09963231337893       -1.29681176979070
H            7.58046419602079       -8.18975862038550       -1.39073531985953
H            7.40432708124821       -8.52051734933307        1.12527089151916
H            8.70432527611872       -7.94322172274080        2.18446135670455
H            8.97018302553679       -9.32297326113437        1.12565625291800
H            9.40421166362790       -5.35380618283182       -1.59781411930404
H            8.38785568285114       -3.14223484541346       -1.61628808075313
H           10.23226466992829        2.57258148646183       -1.50709503168064
H           11.05976346711286        4.84968870306464       -1.59362766850774

          :  Hamiltonian                  GFN2-xTB          :
         :: gradient norm              0.000117087606 Eh/a0 ::
         :: HOMO-LUMO gap              0.739751430706 eV    ::
         :: SCC energy              -194.506826778476 Eh    ::
         :: -> dispersion             -0.172911201981 Eh    ::
         :: -> Gsolv                  -0.079507466043 Eh    ::
         :: repulsion energy           3.394796049724 Eh    ::

    * Orbital Energies and Occupations

         #    Occupation            Energy/Eh            Energy/eV
      -------------------------------------------------------------
         1        2.0000           -0.6776944             -18.4410
       ...           ...                  ...                  ...
       168        2.0000           -0.4028339             -10.9617
       169        2.0000           -0.4012757             -10.9193
       170        2.0000           -0.3979633             -10.8291
       171        2.0000           -0.3978324             -10.8256
       172        2.0000           -0.3922417             -10.6734
       173        2.0000           -0.3870834             -10.5331
       174        2.0000           -0.3865081             -10.5174
       175        2.0000           -0.3787991             -10.3076
       176        2.0000           -0.3720222             -10.1232
       177        1.9999           -0.3611580              -9.8276
       178        1.9228           -0.3541112              -9.6359
       179        1.0773           -0.3493990              -9.5076
       180        1.0000           -0.2766335              -7.5276 (HOMO)
       181        0.0000           -0.2494483              -6.7878 (LUMO)
       182                         -0.2444712              -6.6524
       183                         -0.2440145              -6.6400
       184                         -0.2395553              -6.5186
       185                         -0.2381609              -6.4807
       186                         -0.2306571              -6.2765
       187                         -0.2269147              -6.1747
       188                         -0.2267043              -6.1689
       189                         -0.2234344              -6.0800
       190                         -0.2157115              -5.8698
       191                         -0.2156137              -5.8671
       ...                                ...                  ...
       354                          0.7485039              20.3678
      -------------------------------------------------------------
                  HL-Gap            0.0271851 Eh            0.7397 eV

     #   Z          covCN         q      C6AA      α(0)
     1   6 C        3.761    -0.105    22.543     6.768
     2   6 C        3.902     0.025    20.102     6.373
     3   6 C        3.761    -0.104    22.541     6.768
     4   6 C        3.761    -0.107    22.584     6.775
     5   6 C        2.973     0.006    27.876     8.660
     6   6 C        2.924    -0.041    29.028     8.835
     7   6 C        2.924    -0.039    28.958     8.825
     8   6 C        2.976     0.004    27.927     8.668
     9   6 C        2.975    -0.000    28.028     8.684
    10   6 C        2.928    -0.039    28.978     8.828
    11   6 C        2.908    -0.050    29.239     8.867
    12   6 C        3.075     0.045    26.911     8.505
    13   6 C        3.063    -0.018    28.396     8.738
    14   6 C        2.918    -0.038    28.943     8.822
    15   6 C        3.058    -0.016    28.341     8.730
    16   6 C        2.914    -0.050    29.242     8.867
    17   6 C        2.971    -0.007    28.201     8.711
    18   6 C        2.935     0.046    26.975     8.518
    19   6 C        2.876     0.058    26.701     8.471
    20   7 N        1.844    -0.224    26.735     7.663
    21   6 C        2.936     0.046    26.976     8.518
    22   6 C        2.971    -0.007    28.195     8.710
    23   6 C        2.929    -0.040    28.988     8.830
    24   6 C        2.905    -0.048    29.202     8.861
    25   6 C        3.076     0.040    27.030     8.524
    26   6 C        3.058    -0.015    28.335     8.729
    27   6 C        2.913    -0.050    29.234     8.866
    28   6 C        3.063    -0.018    28.391     8.738
    29   6 C        2.918    -0.038    28.938     8.821
    30   6 C        2.975     0.000    28.021     8.683
    31   6 C        2.976     0.004    27.927     8.668
    32   6 C        2.924    -0.038    28.953     8.824
    33   6 C        2.926    -0.037    28.921     8.819
    34   6 C        2.972     0.006    27.875     8.660
    35   6 C        3.902     0.025    20.101     6.373
    36   6 C        3.761    -0.104    22.540     6.768
    37   6 C        3.761    -0.104    22.540     6.768
    38   6 C        3.761    -0.107    22.588     6.775
    39   6 C        2.924    -0.041    29.030     8.836
    40   6 C        2.924    -0.039    28.964     8.826
    41   6 C        2.928    -0.039    28.977     8.828
    42   6 C        2.908    -0.050    29.235     8.866
    43   6 C        3.075     0.045    26.914     8.506
    44   7 N        2.800    -0.031    21.833     6.940
    45   6 C        2.913     0.058    26.704     8.474
    46   6 C        2.920    -0.044    29.096     8.846
    47   6 C        2.927    -0.034    28.841     8.807
    48   6 C        2.972     0.010    27.794     8.648
    49   6 C        3.902     0.026    20.078     6.369
    50   6 C        3.761    -0.109    22.630     6.782
    51   6 C        3.761    -0.106    22.580     6.774
    52   6 C        3.761    -0.106    22.578     6.774
    53   6 C        2.925    -0.038    28.944     8.823
    54   6 C        2.921    -0.044    29.093     8.845
    55   6 C        2.875     0.058    26.704     8.471
    56   7 N        1.844    -0.224    26.731     7.662
    57   6 C        2.929    -0.040    28.989     8.830
    58   6 C        2.905    -0.049    29.211     8.862
    59   6 C        3.075     0.040    27.029     8.524
    60   7 N        2.801    -0.032    21.857     6.944
    61   6 C        2.913     0.058    26.704     8.474
    62   6 C        2.921    -0.044    29.094     8.845
    63   6 C        2.925    -0.038    28.945     8.823
    64   6 C        2.972     0.010    27.797     8.648
    65   6 C        3.902     0.026    20.078     6.369
    66   6 C        3.761    -0.106    22.579     6.774
    67   6 C        3.761    -0.106    22.578     6.774
    68   6 C        3.761    -0.109    22.630     6.781
    69   6 C        2.927    -0.034    28.844     8.808
    70   6 C        2.920    -0.044    29.096     8.846
    71   6 C        2.924    -0.039    28.961     8.825
    72   6 C        2.926    -0.037    28.924     8.820
    73   1 H        0.925     0.033     2.551     2.498
    74   1 H        0.925     0.037     2.494     2.470
    75   1 H        0.925     0.039     2.465     2.455
    76   1 H        0.925     0.037     2.495     2.470
    77   1 H        0.925     0.032     2.556     2.500
    78   1 H        0.925     0.039     2.465     2.455
    79   1 H        0.925     0.036     2.509     2.477
    80   1 H        0.925     0.035     2.512     2.478
    81   1 H        0.925     0.037     2.484     2.465
    82   1 H        0.926     0.036     2.505     2.475
    83   1 H        0.926     0.026     2.640     2.541
    84   1 H        0.926     0.035     2.517     2.481
    85   1 H        0.926     0.035     2.523     2.484
    86   1 H        0.926     0.032     2.561     2.503
    87   1 H        0.926     0.024     2.670     2.555
    88   1 H        0.925     0.042     2.424     2.435
    89   1 H        0.926     0.042     2.422     2.433
    90   1 H        0.926     0.035     2.522     2.483
    91   1 H        0.926     0.025     2.665     2.553
    92   1 H        0.926     0.032     2.556     2.500
    93   1 H        0.926     0.026     2.642     2.542
    94   1 H        0.926     0.029     2.604     2.524
    95   1 H        0.925     0.039     2.466     2.456
    96   1 H        0.925     0.036     2.501     2.473
    97   1 H        0.925     0.032     2.555     2.500
    98   1 H        0.925     0.036     2.500     2.473
    99   1 H        0.925     0.033     2.550     2.497
   100   1 H        0.925     0.039     2.465     2.455
   101   1 H        0.925     0.036     2.503     2.474
   102   1 H        0.925     0.036     2.507     2.476
   103   1 H        0.925     0.037     2.483     2.464
   104   1 H        0.926     0.037     2.493     2.469
   105   1 H        0.926     0.028     2.612     2.527
   106   1 H        0.926     0.035     2.512     2.478
   107   1 H        0.926     0.035     2.515     2.480
   108   1 H        0.926     0.040     2.455     2.450
   109   1 H        0.926     0.041     2.431     2.438
   110   1 H        0.925     0.037     2.485     2.465
   111   1 H        0.925     0.040     2.453     2.449
   112   1 H        0.925     0.037     2.483     2.464
   113   1 H        0.925     0.038     2.471     2.458
   114   1 H        0.925     0.034     2.526     2.486
   115   1 H        0.925     0.041     2.434     2.440
   116   1 H        0.925     0.038     2.472     2.459
   117   1 H        0.925     0.041     2.433     2.439
   118   1 H        0.925     0.034     2.531     2.488
   119   1 H        0.926     0.048     2.347     2.396
   120   1 H        0.926     0.039     2.461     2.453
   121   1 H        0.925     0.042     2.425     2.435
   122   1 H        0.926     0.042     2.427     2.436
   123   1 H        0.926     0.034     2.528     2.487
   124   1 H        0.926     0.039     2.462     2.454
   125   1 H        0.926     0.048     2.348     2.396
   126   1 H        0.925     0.034     2.527     2.486
   127   1 H        0.925     0.041     2.434     2.440
   128   1 H        0.925     0.038     2.472     2.459
   129   1 H        0.925     0.038     2.472     2.459
   130   1 H        0.925     0.041     2.434     2.440
   131   1 H        0.925     0.034     2.532     2.488
   132   1 H        0.925     0.037     2.485     2.465
   133   1 H        0.925     0.037     2.483     2.464
   134   1 H        0.925     0.040     2.453     2.449
   135   1 H        0.926     0.041     2.435     2.440
   136   1 H        0.926     0.039     2.462     2.454
   137   1 H        0.926     0.028     2.617     2.530
   138   1 H        0.926     0.030     2.593     2.518

molecular dipole:
                 x           y           z       tot (Debye)
 q only:       -0.094       0.022      -0.039
   full:       -0.079       0.017      -0.045       0.237

 projected vibrational frequencies (cm⁻¹)
eigval :       -0.00    -0.00    -0.00    -0.00     0.00     0.00
eigval :       -7.70    -4.20     8.92    12.10    13.62    15.88
eigval :       19.11    20.34    21.08    22.81    24.56    30.56
eigval :       34.20    42.03    44.36    47.74    57.64    58.25
eigval :       61.83    68.24    73.43    75.18    84.91    87.54
eigval :       93.88   101.93   103.86   113.88   115.20   128.41
eigval :      131.05   151.17   155.10   159.88   163.32   168.01
eigval :      171.41   173.37   182.19   185.95   189.11   202.91
eigval :      210.14   213.62   216.58   221.21   223.44   223.64
eigval :      231.20   238.36   247.30   250.73   256.16   261.68
eigval :      270.18   284.39   287.67   299.42   300.93   307.02
eigval :      310.61   314.11   314.59   315.32   315.84   322.64
eigval :      335.12   338.87   350.17   354.91   361.51   363.05
eigval :      365.73   366.09   371.57   376.72   377.77   378.45
eigval :      383.64   384.77   388.01   389.44   391.24   396.36
eigval :      400.82   406.53   409.39   411.32   419.76   427.90
eigval :      434.84   441.30   445.06   450.43   452.67   456.55
eigval :      461.20   462.38   469.26   476.13   477.40   499.72
eigval :      531.32   533.02   534.25   537.06   546.01   552.51
eigval :      556.98   564.53   566.36   575.21   575.58   586.88
eigval :      592.83   599.06   601.85   606.66   607.13   615.08
eigval :      621.13   621.95   623.11   628.20   639.98   670.69
eigval :      671.90   672.69   682.02   691.90   696.77   699.48
eigval :      699.79   700.07   703.56   704.39   725.85   748.58
eigval :      751.71   757.32   767.52   796.75   802.44   803.16
eigval :      805.68   806.33   815.80   817.80   818.54   829.52
eigval :      830.05   833.67   834.98   852.90   862.51   864.89
eigval :      867.00   870.72   871.24   876.91   877.31   879.23
eigval :      879.28   883.62   887.97   902.56   903.33   904.65
eigval :      906.18   909.83   910.34   916.29   916.46   922.19
eigval :      922.45   927.11   928.12   931.49   932.23   936.21
eigval :      938.29   938.51   958.11   958.92   959.12   959.44
eigval :      959.63   961.22   961.90   962.19   962.47   962.65
eigval :      962.75   965.57   993.94   995.06  1013.97  1014.72
eigval :     1024.02  1026.88  1032.69  1033.93  1034.02  1034.13
eigval :     1034.22  1034.92  1035.27  1035.81  1043.05  1043.61
eigval :     1076.84  1077.02  1110.19  1127.75  1136.95  1139.45
eigval :     1141.28  1143.26  1143.56  1145.05  1146.86  1148.64
eigval :     1154.63  1155.64  1159.07  1182.42  1183.61  1193.22
eigval :     1207.01  1208.03  1216.10  1217.16  1218.38  1222.49
eigval :     1224.46  1224.65  1224.76  1225.04  1230.34  1231.18
eigval :     1231.39  1231.69  1231.88  1233.86  1241.51  1242.48
eigval :     1263.17  1267.25  1272.04  1274.89  1281.29  1281.86
eigval :     1282.86  1283.44  1285.91  1287.01  1287.29  1292.10
eigval :     1306.13  1307.55  1316.26  1317.12  1317.97  1319.88
eigval :     1333.95  1341.59  1342.34  1343.94  1348.94  1350.21
eigval :     1376.62  1378.50  1395.06  1395.33  1397.61  1397.79
eigval :     1402.38  1402.59  1402.75  1404.03  1405.80  1406.08
eigval :     1408.11  1408.25  1416.51  1423.25  1423.83  1426.30
eigval :     1426.34  1426.41  1427.40  1437.74  1450.89  1458.31
eigval :     1467.95  1468.68  1480.19  1486.41  1486.71  1487.52
eigval :     1488.08  1488.56  1488.57  1490.23  1490.28  1491.08
eigval :     1491.53  1494.39  1494.62  1498.64  1499.21  1500.39
eigval :     1500.92  1502.57  1502.81  1507.03  1507.83  1510.30
eigval :     1510.59  1510.89  1511.13  1513.49  1516.15  1516.52
eigval :     1516.78  1517.60  1520.20  1523.71  1559.17  1559.22
eigval :     1564.20  1564.53  1568.74  1568.96  1573.24  1575.28
eigval :     1583.98  1589.42  1595.72  1596.31  1606.02  1606.58
eigval :     3018.48  3018.68  3019.37  3019.93  3021.61  3021.64
eigval :     3022.31  3022.35  3022.80  3023.04  3024.02  3024.48
eigval :     3025.61  3025.66  3026.43  3026.52  3026.82  3026.86
eigval :     3029.57  3029.65  3029.95  3030.08  3032.16  3032.20
eigval :     3034.86  3035.02  3037.36  3037.38  3042.68  3043.42
eigval :     3043.44  3044.56  3045.18  3045.22  3046.65  3046.81
eigval :     3048.81  3049.11  3066.61  3067.22  3069.52  3070.25
eigval :     3079.09  3079.90  3080.27  3081.00  3081.38  3081.57
eigval :     3081.70  3082.15  3083.73  3084.35  3084.97  3085.10
eigval :     3090.13  3090.79  3091.54  3092.24  3093.34  3093.47
eigval :     3098.47  3099.27  3106.50  3106.60  3116.73  3116.89

   temp. (K)  partition function   enthalpy   heat capacity  entropy
                                   cal/mol     cal/K/mol   cal/K/mol   J/K/mol
 298.15  VIB  0.725E+34            40677.033    246.490    256.363
         ROT  0.748E+09              888.752      2.981     43.585
         INT  0.542E+43            41565.786    249.471    299.948
         TR   0.279E+29             1481.254      4.968     46.374
         TOT                       43047.0396   254.4394   346.3219  1449.0110

       T/K    H(0)-H(T)+PV         H(T)/Eh          T*S/Eh         G(T)/Eh
   ------------------------------------------------------------------------
    298.15    0.685998E-01    0.119848E+01    0.164549E+00    0.103393E+01
   ------------------------------------------------------------------------

         :::::::::::::::::::::::::::::::::::::::::::::::::::::
         ::                  THERMODYNAMIC                  ::
         :::::::::::::::::::::::::::::::::::::::::::::::::::::
         :: total free energy        -190.078103083779 Eh   ::
         ::.................................................::
         :: total energy             -191.112030732638 Eh   ::
         :: zero point energy           1.129876556460 Eh   ::
         :: G(RRHO) w/o ZPVE           -0.095948907601 Eh   ::
         :: G(RRHO) contrib.            1.033927648859 Eh   ::
         :::::::::::::::::::::::::::::::::::::::::::::::::::::

           -------------------------------------------------
          | TOTAL ENERGY             -191.112030732638 Eh   |
          | TOTAL ENTHALPY           -189.913554352063 Eh   |
          | TOTAL FREE ENERGY        -190.078103083779 Eh   |
          | GRADIENT NORM               0.000118983355 Eh/α |
          | HOMO-LUMO GAP               0.739745181956 eV   |
           -------------------------------------------------

 * finished run on 2025/09/05 at 04:15:48.682
