   * xtb version 6.7.1 (edcfbbe) compiled by 'albert@albert-system' on 2024-07-22

   ID    Z sym.   atoms
    1    6 C      1-19, 21-43, 45-55, 57-59, 61-72
    2    7 N      20, 44, 56, 60
    3    1 H      73-138

          program call               : xtb data2507/toluene/TCz-3PA-TCz/TCz-3PA-TCz.xyz --gfn 2 --gbsa toluene --ohess vtight --parallel 40 --molden --ceasefiles --namespace data2507/toluene/TCz-3PA-TCz/TCz-3PA-TCz_toluene_S0_preOpt
      * Solvation model:               GBSA
        Solvent                        toluene
        Solvent mass                       9.2140E+01 g/mol
          :  Hamiltonian                  GFN2-xTB          :
 * total energy  :  -191.1514452 Eh     change       -0.7158633E-08 Eh
 * total energy  :  -191.1719542 Eh     change       -0.2050895E-01 Eh
 * total energy  :  -191.1774005 Eh     change       -0.5446348E-02 Eh
 * total energy  :  -191.1795056 Eh     change       -0.2105126E-02 Eh
 * total energy  :  -191.1817754 Eh     change       -0.2269710E-02 Eh
 * total energy  :  -191.1830368 Eh     change       -0.1261413E-02 Eh
 * total energy  :  -191.1835932 Eh     change       -0.5564561E-03 Eh
 * total energy  :  -191.1838433 Eh     change       -0.2501230E-03 Eh
 * total energy  :  -191.1840421 Eh     change       -0.1987364E-03 Eh
 * total energy  :  -191.1842515 Eh     change       -0.2093814E-03 Eh
 * total energy  :  -191.1860004 Eh     change       -0.8964690E-06 Eh
 * total energy  :  -191.1860011 Eh     change       -0.7368848E-06 Eh
 * total energy  :  -191.1860017 Eh     change       -0.6043723E-06 Eh
 * total energy  :  -191.1860023 Eh     change       -0.5959034E-06 Eh
 * total energy  :  -191.1860030 Eh     change       -0.6490790E-06 Eh
 * total energy  :  -191.1860036 Eh     change       -0.6882479E-06 Eh
 * total energy  :  -191.1860043 Eh     change       -0.6947872E-06 Eh
 * total energy  :  -191.1860050 Eh     change       -0.6940004E-06 Eh
 * total energy  :  -191.1860050 Eh     change       -0.9314533E-08 Eh
   *** GEOMETRY OPTIMIZATION CONVERGED AFTER 94 ITERATIONS ***

 final structure:
================
138
 xtb: 6.7.1 (edcfbbe)
C            7.38460222367261       -8.02916134486684        2.36816076459711
C            7.05090111884798       -7.69322279832093        0.90677895271286
C            5.64656548838798       -8.21161826776470        0.56230633685275
C            8.05940048299184       -8.41639811447922        0.00880778732187
C            7.08165190870587       -6.18301054591129        0.72640696458136
C            6.21435352740162       -5.38258956348790        1.46756037457301
C            6.20657394066111       -4.00868005327616        1.33759181748383
C            7.07687946739161       -3.36870456830757        0.45829909477475
C            7.07651681059168       -1.90451864593640        0.32017738398119
C            8.29093327356573       -1.20938329754845        0.22696387443904
C            8.34331569279488        0.16315358122721        0.09707195504899
C            7.14328359457077        0.85842296658333        0.04626117879755
C            5.90797926546918        0.17973600120238        0.15681485607602
C            5.87944458607805       -1.20007096900293        0.29218311013462
C            4.88571422120073        1.18930478132127        0.10668185871554
C            3.50228704365025        1.14169834486728        0.14817306736519
C            2.78277793527106        2.33025186524092        0.06431966704327
C            1.32286110374214        2.34850958289826        0.09510503045733
C            0.52376243393734        1.24453045252612       -0.22994900922151
N           -0.79025875712187        1.28917886712786       -0.21518705303403
C           -1.39151821241425        2.43890940690217        0.12663931739805
C           -2.85223723701098        2.44695744459182        0.13182876144607
C           -3.58895062219312        3.63729481904973        0.25468358598102
C           -4.96716459535201        3.64571299584585        0.25327492045658
C           -5.63339068069407        2.43376447001589        0.11700132559354
C           -4.90918063748764        1.22067276508816        0.00554449753345
C           -3.52702763648133        1.23266170623890        0.01031032276498
C           -5.88858553834197        0.17215310165891       -0.08729930078328
C           -5.79891799198658       -1.20355301742918       -0.23262081034137
C           -6.96506762154527       -1.95338435423094       -0.32570480488165
C           -6.89739153321678       -3.41404370078643       -0.48354742199073
C           -5.97907251435780       -4.17197985539295        0.23542517064417
C           -5.91150173281188       -5.54561769066122        0.08655576365512
C           -6.75331191020036       -6.22068270813098       -0.78970642001123
C           -6.71048042497351       -7.72807634536004       -0.99001451133431
C           -5.65095553418101       -8.41030628831550       -0.11921604174119
C           -8.08043272739350       -8.32182156315582       -0.62916261012571
C           -6.38554617537604       -8.02795931252448       -2.46118997836209
C           -7.66954085225083       -5.45592319063156       -1.50922630210107
C           -7.74536951039617       -4.08597088566422       -1.36074940135330
C           -8.20872418067683       -1.30738941181146       -0.27811392697101
C           -8.32120862961488        0.05973495794172       -0.12778301646478
C           -7.15277785759389        0.80088975915504       -0.02143248588726
N           -6.98086759826431        2.16586284736170        0.10331596437198
C           -8.01360958750119        3.11540636568094        0.19942835670286
C           -8.04885938530073        4.21004371033594       -0.65384614072213
C           -9.06785445631706        5.14096882020307       -0.55398176967572
C          -10.08342962065695        5.00685460379577        0.38599202542480
C          -11.22431124147999        6.00345962424448        0.52197913032486
C          -11.19244899785621        6.60976118294149        1.93307791562654
C          -12.55694170011397        5.27246701328651        0.29957588963046
C          -11.13276939776303        7.14760227216851       -0.49227458447688
C          -10.03291450139164        3.90056725737046        1.23251283268238
C           -9.01733422967033        2.96915998052844        1.15057675452650
C           -0.59038766578084        3.54161671976694        0.45302371652599
N            0.72483530604290        3.49880168236806        0.43389091907664
C            3.46717047187780        3.55174344333733       -0.06142220167135
C            4.84090933982586        3.61907098124317       -0.11295540817550
C            5.55667130038471        2.43099530166627       -0.01732541893260
N            6.91349428892689        2.21561452654098       -0.05750412356458
C            7.90130950938985        3.20756737808333       -0.19285096013426
C            8.86627962082668        3.10980986372516       -1.18627488368683
C            9.83757460325767        4.08689693011958       -1.31509672672710
C            9.87310439030698        5.19038662560986       -0.47012060402860
C           10.92060046368236        6.28741032743431       -0.58265052910938
C           10.21610989714549        7.62775921436637       -0.84089512109282
C           11.91258583572936        6.04166212854595       -1.72361848820473
C           11.71102066028356        6.36024938019156        0.73251832024599
C            8.89459305416209        5.27325643148131        0.51910815023696
C            7.92542751465444        4.30115425310488        0.66546321782708
C            7.94561104541046       -4.16250500111031       -0.28314907183670
C            7.94506410469883       -5.53969904076145       -0.15267160931172
H            8.37160174013110       -7.64932051953783        2.62567915985801
H            6.66242050011794       -7.58956897811304        3.05081662956933
H            7.38004377816446       -9.10735359524656        2.51508611210265
H            4.89345127832068       -7.78259054039316        1.21763453743491
H            5.39150323230009       -7.95436684116614       -0.46416211495537
H            5.61118040460964       -9.29424578054112        0.66608399072925
H            9.07721488631854       -8.10462092381120        0.23254332860217
H            7.85141971759409       -8.22992035489018       -1.04252231189928
H            7.99202569242604       -9.48921176038737        0.17938657904488
H            5.52700301834485       -5.83467612940099        2.16746769954481
H            5.53113271034492       -3.41979275928546        1.94231267480642
H            9.21399710507395       -1.76753584334720        0.28292856832221
H            9.29039105171504        0.67911080115529        0.04903059293346
H            4.93604475642455       -1.72111142354421        0.35901249729503
H            3.00102493595446        0.19293347245939        0.26262231061721
H            0.95020416542887        0.29781871140717       -0.53530766594435
H           -3.07108437098648        4.57959779567703        0.34269791347655
H           -5.51113055916293        4.57191139428087        0.36059657025109
H           -2.95780203448109        0.32101738984172       -0.07644328944556
H           -4.83277582545751       -1.68069300893597       -0.29856120849390
H           -5.31819659328965       -3.68222877839525        0.93691190987874
H           -5.18470909444796       -6.08353940310048        0.67382275897149
H           -5.84946361076917       -8.24841056127306        0.93800476924264
H           -4.65442925037347       -8.04390899425673       -0.35568509556363
H           -5.66668951874458       -9.48284575295844       -0.30353802505384
H           -8.86607935389140       -7.92074776730202       -1.26365487106021
H           -8.06350611483040       -9.40310156164231       -0.75039770205949
H           -8.32850796258044       -8.09400977287190        0.40590609886839
H           -5.42492685935410       -7.59273461960325       -2.73052800773577
H           -6.33502894799066       -9.10298687644483       -2.62214285607501
H           -7.14201996583944       -7.61940715696994       -3.12570047131348
H           -8.34191618004571       -5.93351930583544       -2.20671090880133
H           -8.45687133456442       -3.52511609364404       -1.95031393599164
H           -9.10713200049088       -1.90327103370740       -0.34503674862033
H           -9.28984389339783        0.53574031010057       -0.10270660167509
H           -7.28193236173735        4.32512967996483       -1.40586547759747
H           -9.05733389932753        5.97501255760145       -1.23608170505137
H          -10.24163781527937        7.11001709647051        2.10688291931225
H          -11.99153028352289        7.33972216739782        2.04379631213583
H          -11.32041746800115        5.84722256171528        2.69640430159649
H          -12.57511250963176        4.81363180416722       -0.68720707632819
H          -12.71193346053371        4.49337116823397        1.04076127404535
H          -13.38392342631815        5.97603573764290        0.36807142608322
H          -11.17443044007621        6.77168013355529       -1.51210687437199
H          -11.97285051289319        7.82447025436782       -0.34997183370862
H          -10.21682576229679        7.71861264594788       -0.35812943450140
H          -10.79640383139729        3.75753216327686        1.98182491071668
H           -8.99078349809190        2.12961087064014        1.82972598761494
H           -1.00949172533058        4.49303251677886        0.75193911720775
H            2.87684694992861        4.45246311528518       -0.12653087455495
H            5.34424731794059        4.56632191624875       -0.23226171151941
H            8.84827622601384        2.27114358296084       -1.86684737359676
H           10.56700552916947        3.97227066529358       -2.09981445267291
H            9.54809944161307        7.88969556525646       -0.02505695862894
H           10.95217475511976        8.42207682643037       -0.94555937847510
H            9.63176727979396        7.57590669664154       -1.75765763095687
H           11.40396759272023        6.00624133578414       -2.68440498074040
H           12.63418041680463        6.85552746080980       -1.75636975934702
H           12.46076563043879        5.11423417516228       -1.57392631193151
H           12.19280027830944        5.40580577621406        0.93605193921587
H           11.06452456103751        6.60153110580558        1.57173165682719
H           12.47986160101708        7.12691653121183        0.66373742297718
H            8.88474928987625        6.10931164646874        1.20155631530066
H            7.18922671704331        4.37912611361457        1.45199991957035
H            8.62036294348809       -3.69835827960868       -0.98871620331013
H            8.63538193192388       -6.10600552970054       -0.75695754991349

          :  Hamiltonian                  GFN2-xTB          :
         :: gradient norm              0.000059288253 Eh/a0 ::
         :: HOMO-LUMO gap              2.021777488577 eV    ::
         :: SCC energy              -194.585330783292 Eh    ::
         :: -> dispersion             -0.172863619071 Eh    ::
         :: -> Gsolv                  -0.079640981697 Eh    ::
         :: repulsion energy           3.399325745111 Eh    ::

    * Orbital Energies and Occupations

         #    Occupation            Energy/Eh            Energy/eV
      -------------------------------------------------------------
         1        2.0000           -0.6785905             -18.4654
       ...           ...                  ...                  ...
       167        2.0000           -0.4049925             -11.0204
       168        2.0000           -0.4019697             -10.9382
       169        2.0000           -0.4009488             -10.9104
       170        2.0000           -0.3971947             -10.8082
       171        2.0000           -0.3963521             -10.7853
       172        2.0000           -0.3957177             -10.7680
       173        2.0000           -0.3875014             -10.5445
       174        2.0000           -0.3869018             -10.5281
       175        2.0000           -0.3795878             -10.3291
       176        2.0000           -0.3752422             -10.2109
       177        2.0000           -0.3610926              -9.8258
       178        2.0000           -0.3562058              -9.6929
       179        2.0000           -0.3517077              -9.5705 (HOMO)
       180                         -0.2774087              -7.5487 (LUMO)
       181                         -0.2569708              -6.9925
       182                         -0.2471858              -6.7263
       183                         -0.2466557              -6.7118
       184                         -0.2379902              -6.4760
       185                         -0.2363572              -6.4316
       186                         -0.2309927              -6.2856
       187                         -0.2267103              -6.1691
       188                         -0.2263406              -6.1590
       189                         -0.2237064              -6.0874
       190                         -0.2150582              -5.8520
       ...                                ...                  ...
       354                          0.7489871              20.3810
      -------------------------------------------------------------
                  HL-Gap            0.0742989 Eh            2.0218 eV

     #   Z          covCN         q      C6AA      α(0)
     1   6 C        3.761    -0.104    22.538     6.768
     2   6 C        3.902     0.025    20.104     6.373
     3   6 C        3.761    -0.104    22.538     6.768
     4   6 C        3.761    -0.107    22.585     6.775
     5   6 C        2.972     0.006    27.891     8.663
     6   6 C        2.926    -0.037    28.928     8.820
     7   6 C        2.924    -0.039    28.963     8.825
     8   6 C        2.976     0.004    27.938     8.670
     9   6 C        2.976    -0.001    28.056     8.688
    10   6 C        2.929    -0.039    28.961     8.826
    11   6 C        2.908    -0.051    29.269     8.871
    12   6 C        3.081     0.046    26.882     8.500
    13   6 C        3.064    -0.019    28.423     8.742
    14   6 C        2.918    -0.039    28.970     8.826
    15   6 C        3.066    -0.018    28.383     8.736
    16   6 C        2.915    -0.039    28.971     8.826
    17   6 C        2.977    -0.013    28.332     8.731
    18   6 C        2.954     0.082    26.168     8.390
    19   6 C        2.894     0.049    26.904     8.504
    20   7 N        1.847    -0.249    27.335     7.749
    21   6 C        2.952     0.082    26.177     8.392
    22   6 C        2.976    -0.014    28.353     8.734
    23   6 C        2.925    -0.040    29.004     8.832
    24   6 C        2.908    -0.051    29.273     8.872
    25   6 C        3.078     0.050    26.789     8.486
    26   6 C        3.065    -0.017    28.366     8.734
    27   6 C        2.920    -0.031    28.779     8.797
    28   6 C        3.064    -0.018    28.397     8.738
    29   6 C        2.918    -0.039    28.960     8.825
    30   6 C        2.976    -0.001    28.045     8.687
    31   6 C        2.976     0.004    27.933     8.669
    32   6 C        2.925    -0.039    28.964     8.826
    33   6 C        2.924    -0.042    29.033     8.836
    34   6 C        2.972     0.006    27.893     8.663
    35   6 C        3.902     0.025    20.104     6.373
    36   6 C        3.761    -0.106    22.582     6.774
    37   6 C        3.761    -0.104    22.541     6.768
    38   6 C        3.761    -0.104    22.538     6.768
    39   6 C        2.926    -0.037    28.932     8.821
    40   6 C        2.924    -0.039    28.967     8.826
    41   6 C        2.929    -0.039    28.959     8.825
    42   6 C        2.908    -0.051    29.273     8.872
    43   6 C        3.081     0.046    26.882     8.500
    44   7 N        2.801    -0.040    22.007     6.967
    45   6 C        2.913     0.057    26.711     8.475
    46   6 C        2.921    -0.045    29.114     8.848
    47   6 C        2.925    -0.038    28.954     8.824
    48   6 C        2.972     0.009    27.809     8.650
    49   6 C        3.902     0.026    20.081     6.370
    50   6 C        3.761    -0.106    22.576     6.773
    51   6 C        3.761    -0.106    22.578     6.774
    52   6 C        3.761    -0.109    22.627     6.781
    53   6 C        2.927    -0.034    28.848     8.808
    54   6 C        2.920    -0.044    29.099     8.846
    55   6 C        2.895     0.048    26.922     8.507
    56   7 N        1.846    -0.249    27.343     7.750
    57   6 C        2.930    -0.033    28.817     8.804
    58   6 C        2.907    -0.050    29.252     8.868
    59   6 C        3.079     0.050    26.788     8.485
    60   7 N        2.802    -0.040    22.007     6.967
    61   6 C        2.913     0.057    26.711     8.475
    62   6 C        2.921    -0.044    29.104     8.847
    63   6 C        2.925    -0.038    28.955     8.824
    64   6 C        2.972     0.009    27.807     8.650
    65   6 C        3.902     0.026    20.081     6.370
    66   6 C        3.761    -0.106    22.577     6.773
    67   6 C        3.761    -0.109    22.629     6.781
    68   6 C        3.761    -0.106    22.577     6.773
    69   6 C        2.928    -0.034    28.845     8.808
    70   6 C        2.920    -0.044    29.105     8.847
    71   6 C        2.924    -0.039    28.973     8.827
    72   6 C        2.924    -0.042    29.037     8.837
    73   1 H        0.925     0.032     2.553     2.498
    74   1 H        0.925     0.036     2.503     2.474
    75   1 H        0.925     0.039     2.467     2.456
    76   1 H        0.925     0.036     2.503     2.474
    77   1 H        0.925     0.032     2.556     2.500
    78   1 H        0.925     0.039     2.468     2.457
    79   1 H        0.925     0.036     2.506     2.476
    80   1 H        0.925     0.036     2.508     2.477
    81   1 H        0.925     0.037     2.485     2.465
    82   1 H        0.926     0.028     2.614     2.528
    83   1 H        0.926     0.025     2.655     2.548
    84   1 H        0.926     0.034     2.525     2.485
    85   1 H        0.926     0.034     2.536     2.490
    86   1 H        0.926     0.031     2.576     2.510
    87   1 H        0.926     0.030     2.581     2.512
    88   1 H        0.925     0.030     2.587     2.515
    89   1 H        0.926     0.031     2.574     2.509
    90   1 H        0.926     0.037     2.492     2.469
    91   1 H        0.926     0.052     2.301     2.372
    92   1 H        0.926     0.034     2.531     2.488
    93   1 H        0.926     0.026     2.638     2.540
    94   1 H        0.926     0.035     2.512     2.479
    95   1 H        0.925     0.035     2.511     2.478
    96   1 H        0.925     0.035     2.512     2.479
    97   1 H        0.925     0.037     2.488     2.466
    98   1 H        0.925     0.036     2.497     2.471
    99   1 H        0.925     0.038     2.470     2.458
   100   1 H        0.925     0.032     2.553     2.499
   101   1 H        0.925     0.032     2.557     2.501
   102   1 H        0.925     0.038     2.470     2.458
   103   1 H        0.925     0.036     2.499     2.472
   104   1 H        0.926     0.029     2.607     2.525
   105   1 H        0.926     0.027     2.631     2.536
   106   1 H        0.926     0.034     2.523     2.484
   107   1 H        0.926     0.033     2.539     2.492
   108   1 H        0.926     0.038     2.482     2.464
   109   1 H        0.926     0.047     2.357     2.401
   110   1 H        0.925     0.034     2.533     2.489
   111   1 H        0.925     0.041     2.436     2.441
   112   1 H        0.925     0.038     2.475     2.460
   113   1 H        0.925     0.034     2.529     2.487
   114   1 H        0.925     0.038     2.473     2.459
   115   1 H        0.925     0.041     2.437     2.441
   116   1 H        0.925     0.037     2.484     2.465
   117   1 H        0.925     0.040     2.455     2.450
   118   1 H        0.925     0.037     2.487     2.466
   119   1 H        0.926     0.041     2.442     2.444
   120   1 H        0.926     0.039     2.467     2.456
   121   1 H        0.925     0.031     2.579     2.511
   122   1 H        0.926     0.049     2.337     2.391
   123   1 H        0.926     0.038     2.471     2.458
   124   1 H        0.926     0.038     2.469     2.457
   125   1 H        0.926     0.047     2.352     2.398
   126   1 H        0.925     0.038     2.475     2.460
   127   1 H        0.925     0.041     2.438     2.442
   128   1 H        0.925     0.034     2.531     2.488
   129   1 H        0.925     0.037     2.484     2.465
   130   1 H        0.925     0.040     2.455     2.450
   131   1 H        0.925     0.037     2.483     2.464
   132   1 H        0.925     0.034     2.530     2.487
   133   1 H        0.925     0.038     2.475     2.460
   134   1 H        0.925     0.041     2.436     2.441
   135   1 H        0.926     0.040     2.443     2.444
   136   1 H        0.926     0.038     2.473     2.459
   137   1 H        0.926     0.027     2.625     2.534
   138   1 H        0.926     0.036     2.502     2.473

molecular dipole:
                 x           y           z       tot (Debye)
 q only:       -0.060       0.792      -0.081
   full:       -0.078       0.884      -0.060       2.260

 projected vibrational frequencies (cm⁻¹)
eigval :       -0.00    -0.00     0.00     0.00     0.00     0.00
eigval :        2.47     5.68     9.05    15.86    18.56    19.24
eigval :       21.30    22.86    23.57    24.89    25.51    29.20
eigval :       31.55    36.33    39.99    52.14    56.56    64.19
eigval :       65.96    70.04    73.47    77.09    86.87    87.16
eigval :       92.41   100.40   110.33   115.00   118.90   124.32
eigval :      134.83   151.40   153.41   161.14   165.66   167.65
eigval :      172.96   180.96   182.98   186.97   197.78   200.96
eigval :      210.94   211.57   215.55   222.40   224.65   228.15
eigval :      237.64   245.95   251.88   253.29   256.62   261.92
eigval :      271.85   282.53   294.52   296.28   307.10   313.25
eigval :      313.60   313.81   315.16   317.05   317.49   322.82
eigval :      337.20   349.71   356.65   362.12   363.74   363.97
eigval :      367.43   368.68   376.11   379.21   380.51   382.24
eigval :      383.27   383.61   385.66   390.83   393.19   396.06
eigval :      408.55   410.46   414.57   422.06   428.82   432.88
eigval :      437.02   444.42   448.14   451.90   454.18   460.52
eigval :      462.44   464.61   472.96   480.37   494.72   504.53
eigval :      531.48   533.46   536.97   541.96   550.42   556.66
eigval :      567.01   571.27   575.33   577.58   579.57   586.35
eigval :      602.79   604.67   607.82   608.80   617.97   622.80
eigval :      624.85   627.84   629.80   639.92   673.12   681.44
eigval :      684.37   685.80   694.54   697.95   701.94   704.28
eigval :      705.26   709.53   710.31   734.67   744.87   751.18
eigval :      755.08   758.77   782.66   807.59   807.78   812.82
eigval :      817.75   821.19   824.47   830.84   832.48   847.46
eigval :      858.22   865.41   869.80   870.44   871.94   873.54
eigval :      874.42   877.90   878.73   879.60   879.71   880.69
eigval :      884.76   887.93   894.78   900.22   907.23   909.36
eigval :      910.18   911.74   914.95   918.91   919.08   922.56
eigval :      923.06   931.72   931.96   932.37   933.74   940.06
eigval :      941.34   959.05   959.19   959.41   960.15   960.33
eigval :      960.51   960.65   962.21   962.90   963.19   963.26
eigval :      963.52   994.32   995.84  1014.94  1016.79  1016.98
eigval :     1028.01  1032.43  1033.13  1033.57  1034.01  1034.81
eigval :     1035.17  1035.33  1035.48  1037.47  1073.89  1078.48
eigval :     1079.00  1084.88  1132.30  1134.82  1140.38  1141.70
eigval :     1144.03  1144.64  1147.60  1147.83  1151.26  1153.44
eigval :     1155.53  1158.71  1185.31  1186.77  1202.98  1209.42
eigval :     1210.06  1216.75  1217.61  1220.91  1223.89  1225.07
eigval :     1225.11  1225.27  1225.32  1231.55  1231.56  1231.72
eigval :     1231.87  1232.37  1235.19  1242.17  1245.12  1254.38
eigval :     1273.49  1275.15  1278.06  1281.27  1282.27  1283.26
eigval :     1283.57  1287.41  1288.55  1295.03  1295.93  1310.74
eigval :     1311.31  1315.14  1316.19  1317.15  1320.39  1321.20
eigval :     1338.68  1346.00  1349.48  1362.31  1368.14  1377.20
eigval :     1381.56  1394.56  1395.00  1397.35  1398.14  1401.69
eigval :     1402.13  1402.51  1404.25  1405.10  1405.46  1407.96
eigval :     1408.41  1413.35  1418.40  1422.94  1426.16  1426.20
eigval :     1426.69  1428.54  1438.63  1442.62  1464.97  1470.02
eigval :     1471.73  1485.79  1487.24  1488.23  1488.66  1488.76
eigval :     1489.60  1490.42  1490.62  1490.81  1491.73  1491.96
eigval :     1495.33  1495.34  1498.98  1499.42  1500.14  1500.35
eigval :     1501.15  1503.81  1504.79  1509.41  1509.88  1510.73
eigval :     1511.02  1511.26  1511.30  1515.95  1516.53  1516.98
eigval :     1517.43  1554.96  1557.48  1561.85  1565.41  1566.67
eigval :     1571.15  1571.85  1575.49  1576.54  1588.95  1593.25
eigval :     1600.01  1600.33  1603.24  1604.01  1612.17  1613.36
eigval :     3018.87  3019.08  3019.46  3019.48  3021.50  3021.99
eigval :     3022.20  3022.44  3022.85  3022.90  3024.29  3024.45
eigval :     3025.17  3026.10  3026.33  3026.63  3026.66  3026.83
eigval :     3029.37  3030.08  3030.17  3030.34  3032.14  3032.36
eigval :     3035.21  3035.55  3037.55  3037.81  3043.02  3043.37
eigval :     3044.19  3044.49  3045.68  3046.25  3046.60  3047.70
eigval :     3048.99  3050.17  3064.58  3065.70  3068.45  3068.51
eigval :     3078.29  3078.38  3079.53  3080.13  3080.47  3081.09
eigval :     3082.29  3083.92  3084.29  3085.05  3087.17  3087.29
eigval :     3090.22  3090.85  3091.31  3093.00  3093.53  3099.19
eigval :     3104.89  3105.91  3106.64  3109.60  3116.36  3116.50

   temp. (K)  partition function   enthalpy   heat capacity  entropy
                                   cal/mol     cal/K/mol   cal/K/mol   J/K/mol
 298.15  VIB  0.358E+34            40323.580    244.564    254.049
         ROT  0.690E+09              888.752      2.981     43.427
         INT  0.247E+43            41212.332    247.545    297.476
         TR   0.279E+29             1481.254      4.968     46.374
         TOT                       42693.5862   252.5130   343.8501  1438.6688

       T/K    H(0)-H(T)+PV         H(T)/Eh          T*S/Eh         G(T)/Eh
   ------------------------------------------------------------------------
    298.15    0.680366E-01    0.120207E+01    0.163374E+00    0.103869E+01
   ------------------------------------------------------------------------

         :::::::::::::::::::::::::::::::::::::::::::::::::::::
         ::                  THERMODYNAMIC                  ::
         :::::::::::::::::::::::::::::::::::::::::::::::::::::
         :: total free energy        -190.147310977221 Eh   ::
         ::.................................................::
         :: total energy             -191.186005037178 Eh   ::
         :: zero point energy           1.134031773907 Eh   ::
         :: G(RRHO) w/o ZPVE           -0.095337713949 Eh   ::
         :: G(RRHO) contrib.            1.038694059958 Eh   ::
         :::::::::::::::::::::::::::::::::::::::::::::::::::::

           -------------------------------------------------
          | TOTAL ENERGY             -191.186005037178 Eh   |
          | TOTAL ENTHALPY           -189.983936703016 Eh   |
          | TOTAL FREE ENERGY        -190.147310977221 Eh   |
          | GRADIENT NORM               0.000059287142 Eh/α |
          | HOMO-LUMO GAP               2.021777327393 eV   |
           -------------------------------------------------

 * finished run on 2025/09/05 at 03:09:39.805
