   * xtb version 6.7.1 (edcfbbe) compiled by 'albert@albert-system' on 2024-07-22

   ID    Z sym.   atoms
    1    6 C      1-19, 21-43, 45-55, 57-59, 61-72
    2    7 N      20, 44, 56, 60
    3    1 H      73-138

          program call               : xtb data2507/toluene/TCz-3PA-TCz/TCz-3PA-TCz_toluene_S0_crest.xyz --gfn 2 --gbsa toluene --ohess vtight --parallel 40 --molden --ceasefiles --namespace data2507/toluene/TCz-3PA-TCz/TCz-3PA-TCz_toluene_S0_finalOpt
      * Solvation model:               GBSA
        Solvent                        toluene
        Solvent mass                       9.2140E+01 g/mol
          :  Hamiltonian                  GFN2-xTB          :
 * total energy  :  -191.1861761 Eh     change       -0.5012083E-08 Eh
 * total energy  :  -191.1862230 Eh     change       -0.4686335E-04 Eh
 * total energy  :  -191.1862459 Eh     change       -0.2296086E-04 Eh
 * total energy  :  -191.1862560 Eh     change       -0.1004487E-04 Eh
 * total energy  :  -191.1862650 Eh     change       -0.8983330E-05 Eh
 * total energy  :  -191.1862724 Eh     change       -0.7466130E-05 Eh
 * total energy  :  -191.1862788 Eh     change       -0.6332063E-05 Eh
 * total energy  :  -191.1862855 Eh     change       -0.6734868E-05 Eh
 * total energy  :  -191.1862916 Eh     change       -0.6102750E-05 Eh
 * total energy  :  -191.1862963 Eh     change       -0.4655521E-05 Eh
 * total energy  :  -191.1864643 Eh     change       -0.4800844E-06 Eh
 * total energy  :  -191.1864648 Eh     change       -0.4346135E-06 Eh
 * total energy  :  -191.1864652 Eh     change       -0.3796623E-06 Eh
 * total energy  :  -191.1864655 Eh     change       -0.3454936E-06 Eh
 * total energy  :  -191.1864659 Eh     change       -0.3596238E-06 Eh
 * total energy  :  -191.1864663 Eh     change       -0.4592520E-06 Eh
 * total energy  :  -191.1864668 Eh     change       -0.4960206E-06 Eh
 * total energy  :  -191.1864673 Eh     change       -0.4671473E-06 Eh
 * total energy  :  -191.1864673 Eh     change       -0.2689433E-08 Eh
   *** GEOMETRY OPTIMIZATION CONVERGED AFTER 94 ITERATIONS ***

 final structure:
================
138
 xtb: 6.7.1 (edcfbbe)
C            8.51432282418163        7.74299892004769       -3.46831145830370
C            9.47352488369078        7.10961851314620       -2.45578499139666
C            9.53104315339128        8.01844732181527       -1.21862051335835
C           10.86398913539670        7.02448667474078       -3.10305170753968
C            9.03888760960245        5.71616824364414       -2.02736309492422
C            9.81310794591225        5.00295926897434       -1.11412031011504
C            9.45957529913905        3.73559089225446       -0.69759529670076
C            8.30407062547909        3.12219071425478       -1.17576163384256
C            7.91568408051018        1.77445954833310       -0.73349274097338
C            8.88692033874805        0.77340662900204       -0.58859519925380
C            8.56785661120350       -0.50711814846501       -0.18564473245497
C            7.23602705825965       -0.79420254189095        0.07876372073159
C            6.24393447371904        0.20602338937817       -0.03913413170331
C            6.58668741746509        1.48511153217515       -0.45000243350870
C            5.00283330387156       -0.40721982227721        0.34808174797894
C            3.69950234592380        0.05457321090873        0.41875769834018
C            2.69323060656811       -0.81935891522095        0.82134267264250
C            1.30182350744252       -0.38889150016819        0.91668116585532
C            0.90588916804357        0.95380696696270        0.99499397730076
N           -0.35644288899275        1.32225027384726        0.99003432984708
C           -1.30214177692639        0.37382386957593        0.94393027087949
C           -2.69346507855552        0.81023097318441        0.87755745046072
C           -2.99746715759112        2.14617212764919        1.19446866488889
C           -4.28387727462657        2.63362395650966        1.15540144067846
C           -5.30253262180264        1.76030030582265        0.79068255794074
C           -5.01380009638588        0.41832998160487        0.44030595837056
C           -3.71285476036894       -0.05391115792860        0.48689572059478
C           -6.26680157189211       -0.18215221503372        0.07117742526559
C           -6.62848134724328       -1.45642712012390       -0.33883309423049
C           -7.96261044863967       -1.72784798677597       -0.61514142176824
C           -8.37143578549939       -3.06828579362237       -1.06130046601280
C           -7.83838563182229       -4.21418766848669       -0.47599213467322
C           -8.22260787974581       -5.47021574995387       -0.89937331485546
C           -9.14719657623986       -5.64495542739224       -1.92737921495716
C           -9.53343277724671       -7.05134124930762       -2.36024140966214
C           -8.27362622138224       -7.79749335020221       -2.82497844740055
C          -10.16195693145923       -7.78697978767103       -1.16707911889795
C          -10.54326326903836       -7.05945962502824       -3.51198125417529
C           -9.67493734621619       -4.49805774856397       -2.50899004946066
C           -9.29907582444209       -3.23638949441686       -2.08378950817356
C           -8.92149222426451       -0.71698689078046       -0.45757748337161
C           -8.58565337376667        0.55522038271350       -0.04231337024300
C           -7.24788799897872        0.82662657511173        0.20846991787432
N           -6.64947103657198        1.99170689800446        0.64505644867485
C           -7.30450049625029        3.21193562064893        0.88930146815206
C           -8.12762703519527        3.77715297223164       -0.07539855790924
C           -8.76946206672175        4.97818381829681        0.17057197431060
C           -8.60470611019830        5.65596691598864        1.37321819098107
C           -9.28230364443286        6.98344071986603        1.67662148417304
C          -10.17223119704492        6.82074215323228        2.91809641965704
C          -10.15945592797502        7.47633176981245        0.52171327574210
C           -8.20343919173436        8.04348053817879        1.94522088749691
C           -7.77315970559425        5.07455079283367        2.32899316557968
C           -7.13481584922233        3.87195042875691        2.10137839553632
C           -0.90510091497425       -0.96980562836933        0.99381482337720
N            0.35724509582817       -1.33821308868807        0.96244030610919
C            3.01217735782079       -2.15507968625563        1.12349763634641
C            4.30166572761297       -2.63247326444188        1.05970246408810
C            5.30791956429980       -1.74918160532475        0.68439237122980
N            6.65454977576905       -1.96773415881437        0.51616302861603
C            7.32622811315327       -3.18366024499797        0.73574944639580
C            7.18687096488785       -3.85934789755171        1.94295272743543
C            7.84574897648420       -5.05543353772550        2.14566119937836
C            8.66850794957783       -5.61451765439169        1.16921799077335
C            9.37079541825845       -6.93497243268506        1.44600834712541
C           10.27615036858242       -6.77464333935888        2.67656645619676
C           10.23853189203498       -7.39960296739717        0.27241733164324
C            8.31192026894164       -8.01457141626501        1.71609928686390
C            8.80141843043224       -4.92211530688333       -0.02904062989559
C            8.13862498316447       -3.72775240507689       -0.25012077943941
C            7.52588730247812        3.83064461899051       -2.08540880088628
C            7.88798991812152        5.09874706159402       -2.50309337284776
H            8.45583121433036        7.14862290753521       -4.37749995181260
H            7.51690162663865        7.85188105319497       -3.04809048408685
H            8.87488983987480        8.73395044538083       -3.73764573720594
H            8.55370064462294        8.06766022230982       -0.74197133997105
H           10.24706345473619        7.65009139813904       -0.48898180419966
H            9.82571601171206        9.02542814652689       -1.50712698486362
H           10.83724587088014        6.36143860672857       -3.96589570481276
H           11.60420523569519        6.64415512827456       -2.40440353972006
H           11.18369473854402        8.01039461964859       -3.43462574587186
H           10.71404118656001        5.44160022043036       -0.71100120825486
H           10.07680116424251        3.22160217048937        0.02569170287093
H            9.91564313011506        1.01017962224515       -0.81736671435597
H            9.33493482588946       -1.25828922655581       -0.07338797775300
H            5.83155700075552        2.25322777626647       -0.52584892268178
H            3.47569517646429        1.07219992393324        0.13825668151713
H            1.62250514017166        1.76030800583209        1.07840000513865
H           -2.17988804794973        2.79267442875407        1.47244055066119
H           -4.49128978777535        3.66638064509170        1.39070708685164
H           -3.50123600632001       -1.07125787963002        0.19601663575222
H           -5.87796643020698       -2.22323191328720       -0.46015699061047
H           -7.12936693383535       -4.11831074456680        0.33440865199174
H           -7.78836899852310       -6.33026306330259       -0.41111099478146
H           -7.54711895358640       -7.88852767314324       -2.02212713549192
H           -7.80409650661083       -7.26563792534913       -3.65052410467150
H           -8.53452352929149       -8.79848599093839       -3.16271090437312
H           -9.46390015178280       -7.86502286253911       -0.33798871135688
H          -11.04573370335305       -7.25503299639531       -0.81963162975259
H          -10.45695732716745       -8.79255847901351       -1.46015563227595
H          -11.47015897072331       -6.56833673798141       -3.22423987500995
H          -10.13637170065388       -6.56756518019720       -4.39276149918062
H          -10.77792854894148       -8.08783016182962       -3.78017771246136
H          -10.39118793807270       -4.56932837551570       -3.31172136137415
H           -9.71866460144556       -2.36711671446188       -2.57050677236189
H           -9.95888829605351       -0.95177666857965       -0.64588516643480
H           -9.34451954172330        1.31069123211051        0.09441339590034
H           -8.25514569104238        3.28004316204556       -1.02591235708863
H           -9.39839697571600        5.38182167826900       -0.60564737458477
H           -9.58994099476357        6.53801136119626        3.79068249190358
H          -10.68080005580382        7.75709301533857        3.13770885504509
H          -10.92343092037260        6.05238747389901        2.74538259122892
H           -9.57020884620616        7.63490714459495       -0.37868459972436
H          -10.95868994561760        6.77040707880079        0.30729572568851
H          -10.61575099713367        8.42578189560818        0.79473410064653
H           -7.55180277401335        8.14583684279120        1.07949898982257
H           -8.66793437177402        9.00720449794299        2.14308404216682
H           -7.59125034861717        7.77892669441806        2.80297678335565
H           -7.61856084687227        5.56152719662934        3.27968671324861
H           -6.50924519184393        3.43358693664997        2.86508652998961
H           -1.62034961787593       -1.77780753159322        1.07431763379001
H            2.20430307000822       -2.80966489050879        1.41095955349171
H            4.52046531418451       -3.66522286092723        1.28456942863105
H            6.56945553294589       -3.43826670194845        2.72278229444752
H            7.71474734391544       -5.55493462739555        3.09338854578846
H            9.70253901749647       -6.51187873339209        3.56104731008075
H           10.80175233781671       -7.70594060513100        2.87674650646819
H           11.01328256726613       -5.99298186060460        2.50295359850104
H           11.02212710487787       -6.67752668432553        0.05404053105815
H           10.71516023358502       -8.34404219552846        0.52749323955099
H            9.63832022881008       -7.55826137011588       -0.62067932782188
H            7.64934682520459       -8.11519051431570        0.85851623047734
H            7.70858957668314       -7.77039713988333        2.58611163873257
H            8.79353151710580       -8.97372899046195        1.89425929834731
H            9.42141498091597       -5.30858640648905       -0.82102597364052
H            8.24195382603373       -3.21882337017265       -1.19732100019466
H            6.63232700014868        3.37561325962119       -2.48956284722738
H            7.25058539309798        5.59873697837132       -3.21457691806021

          :  Hamiltonian                  GFN2-xTB          :
         :: gradient norm              0.000039304217 Eh/a0 ::
         :: HOMO-LUMO gap              2.039990195768 eV    ::
         :: SCC energy              -194.585940347160 Eh    ::
         :: -> dispersion             -0.172865572023 Eh    ::
         :: -> Gsolv                  -0.079532432615 Eh    ::
         :: repulsion energy           3.399473054198 Eh    ::

    * Orbital Energies and Occupations

         #    Occupation            Energy/Eh            Energy/eV
      -------------------------------------------------------------
         1        2.0000           -0.6786508             -18.4670
       ...           ...                  ...                  ...
       167        2.0000           -0.4054080             -11.0317
       168        2.0000           -0.4023427             -10.9483
       169        2.0000           -0.4011210             -10.9151
       170        2.0000           -0.3972560             -10.8099
       171        2.0000           -0.3972260             -10.8091
       172        2.0000           -0.3958234             -10.7709
       173        2.0000           -0.3875764             -10.5465
       174        2.0000           -0.3874813             -10.5439
       175        2.0000           -0.3798379             -10.3359
       176        2.0000           -0.3751762             -10.2091
       177        2.0000           -0.3617864              -9.8447
       178        2.0000           -0.3561452              -9.6912
       179        2.0000           -0.3523637              -9.5883 (HOMO)
       180                         -0.2773954              -7.5483 (LUMO)
       181                         -0.2571773              -6.9982
       182                         -0.2472122              -6.7270
       183                         -0.2470748              -6.7232
       184                         -0.2383350              -6.4854
       185                         -0.2368121              -6.4440
       186                         -0.2311022              -6.2886
       187                         -0.2263648              -6.1597
       188                         -0.2262462              -6.1565
       189                         -0.2234528              -6.0805
       190                         -0.2151438              -5.8544
       ...                                ...                  ...
       354                          0.7447893              20.2667
      -------------------------------------------------------------
                  HL-Gap            0.0749683 Eh            2.0400 eV

     #   Z          covCN         q      C6AA      α(0)
     1   6 C        3.761    -0.106    22.582     6.774
     2   6 C        3.902     0.025    20.104     6.373
     3   6 C        3.761    -0.104    22.539     6.768
     4   6 C        3.761    -0.104    22.541     6.768
     5   6 C        2.972     0.006    27.890     8.663
     6   6 C        2.926    -0.037    28.930     8.821
     7   6 C        2.924    -0.039    28.967     8.826
     8   6 C        2.976     0.004    27.937     8.670
     9   6 C        2.975    -0.001    28.055     8.688
    10   6 C        2.929    -0.039    28.961     8.826
    11   6 C        2.908    -0.051    29.270     8.871
    12   6 C        3.080     0.046    26.884     8.500
    13   6 C        3.064    -0.019    28.421     8.742
    14   6 C        2.918    -0.039    28.971     8.826
    15   6 C        3.066    -0.018    28.383     8.736
    16   6 C        2.916    -0.039    28.978     8.827
    17   6 C        2.977    -0.013    28.336     8.732
    18   6 C        2.953     0.082    26.173     8.391
    19   6 C        2.895     0.048    26.923     8.507
    20   7 N        1.846    -0.247    27.293     7.743
    21   6 C        2.953     0.082    26.175     8.391
    22   6 C        2.977    -0.013    28.336     8.732
    23   6 C        2.930    -0.033    28.830     8.806
    24   6 C        2.907    -0.050    29.250     8.868
    25   6 C        3.079     0.050    26.788     8.485
    26   6 C        3.066    -0.018    28.384     8.736
    27   6 C        2.915    -0.039    28.976     8.827
    28   6 C        3.064    -0.019    28.421     8.742
    29   6 C        2.918    -0.039    28.970     8.826
    30   6 C        2.976    -0.001    28.054     8.688
    31   6 C        2.976     0.004    27.937     8.670
    32   6 C        2.924    -0.039    28.963     8.825
    33   6 C        2.926    -0.037    28.928     8.820
    34   6 C        2.972     0.006    27.891     8.663
    35   6 C        3.902     0.025    20.104     6.373
    36   6 C        3.761    -0.104    22.538     6.768
    37   6 C        3.761    -0.104    22.538     6.768
    38   6 C        3.761    -0.107    22.585     6.775
    39   6 C        2.924    -0.042    29.036     8.837
    40   6 C        2.924    -0.039    28.971     8.827
    41   6 C        2.929    -0.039    28.961     8.825
    42   6 C        2.908    -0.051    29.269     8.871
    43   6 C        3.080     0.046    26.884     8.500
    44   7 N        2.802    -0.039    22.002     6.967
    45   6 C        2.913     0.057    26.711     8.475
    46   6 C        2.921    -0.045    29.106     8.847
    47   6 C        2.925    -0.038    28.954     8.824
    48   6 C        2.972     0.009    27.808     8.650
    49   6 C        3.902     0.026    20.080     6.370
    50   6 C        3.761    -0.106    22.578     6.774
    51   6 C        3.761    -0.109    22.629     6.781
    52   6 C        3.761    -0.106    22.576     6.773
    53   6 C        2.927    -0.034    28.845     8.808
    54   6 C        2.920    -0.045    29.107     8.847
    55   6 C        2.895     0.048    26.923     8.507
    56   7 N        1.846    -0.247    27.294     7.743
    57   6 C        2.929    -0.033    28.828     8.805
    58   6 C        2.907    -0.050    29.250     8.868
    59   6 C        3.078     0.050    26.789     8.486
    60   7 N        2.802    -0.040    22.003     6.967
    61   6 C        2.913     0.057    26.711     8.475
    62   6 C        2.920    -0.045    29.108     8.847
    63   6 C        2.927    -0.034    28.846     8.808
    64   6 C        2.972     0.009    27.808     8.650
    65   6 C        3.902     0.026    20.081     6.370
    66   6 C        3.761    -0.106    22.578     6.774
    67   6 C        3.761    -0.109    22.628     6.781
    68   6 C        3.761    -0.106    22.576     6.773
    69   6 C        2.925    -0.038    28.954     8.824
    70   6 C        2.921    -0.045    29.106     8.847
    71   6 C        2.925    -0.039    28.967     8.826
    72   6 C        2.924    -0.042    29.034     8.836
    73   1 H        0.925     0.035     2.511     2.478
    74   1 H        0.925     0.035     2.513     2.479
    75   1 H        0.925     0.037     2.486     2.466
    76   1 H        0.925     0.032     2.557     2.501
    77   1 H        0.925     0.036     2.498     2.472
    78   1 H        0.925     0.039     2.467     2.456
    79   1 H        0.925     0.032     2.553     2.499
    80   1 H        0.925     0.037     2.496     2.470
    81   1 H        0.925     0.039     2.468     2.457
    82   1 H        0.926     0.029     2.602     2.523
    83   1 H        0.926     0.027     2.629     2.535
    84   1 H        0.926     0.034     2.524     2.484
    85   1 H        0.926     0.034     2.535     2.490
    86   1 H        0.926     0.031     2.575     2.510
    87   1 H        0.926     0.031     2.578     2.511
    88   1 H        0.925     0.031     2.578     2.511
    89   1 H        0.926     0.051     2.311     2.377
    90   1 H        0.926     0.038     2.471     2.458
    91   1 H        0.926     0.031     2.578     2.511
    92   1 H        0.926     0.031     2.575     2.510
    93   1 H        0.926     0.025     2.653     2.547
    94   1 H        0.926     0.028     2.612     2.527
    95   1 H        0.925     0.036     2.502     2.474
    96   1 H        0.925     0.032     2.558     2.501
    97   1 H        0.925     0.038     2.469     2.457
    98   1 H        0.925     0.036     2.502     2.474
    99   1 H        0.925     0.032     2.552     2.498
   100   1 H        0.925     0.039     2.467     2.456
   101   1 H        0.925     0.036     2.506     2.476
   102   1 H        0.925     0.036     2.509     2.477
   103   1 H        0.925     0.037     2.486     2.466
   104   1 H        0.926     0.036     2.503     2.474
   105   1 H        0.926     0.027     2.627     2.535
   106   1 H        0.926     0.034     2.526     2.486
   107   1 H        0.926     0.034     2.534     2.489
   108   1 H        0.926     0.039     2.468     2.457
   109   1 H        0.926     0.047     2.353     2.399
   110   1 H        0.925     0.038     2.476     2.461
   111   1 H        0.925     0.041     2.437     2.441
   112   1 H        0.925     0.034     2.529     2.487
   113   1 H        0.925     0.037     2.484     2.465
   114   1 H        0.925     0.037     2.484     2.465
   115   1 H        0.925     0.039     2.456     2.451
   116   1 H        0.925     0.034     2.531     2.488
   117   1 H        0.925     0.041     2.437     2.441
   118   1 H        0.925     0.038     2.476     2.461
   119   1 H        0.926     0.040     2.445     2.445
   120   1 H        0.926     0.038     2.478     2.462
   121   1 H        0.925     0.030     2.580     2.512
   122   1 H        0.926     0.050     2.315     2.380
   123   1 H        0.926     0.038     2.472     2.458
   124   1 H        0.926     0.038     2.478     2.461
   125   1 H        0.926     0.040     2.445     2.445
   126   1 H        0.925     0.038     2.476     2.461
   127   1 H        0.925     0.041     2.437     2.441
   128   1 H        0.925     0.034     2.529     2.487
   129   1 H        0.925     0.037     2.484     2.465
   130   1 H        0.925     0.039     2.456     2.451
   131   1 H        0.925     0.037     2.484     2.465
   132   1 H        0.925     0.034     2.531     2.488
   133   1 H        0.925     0.038     2.476     2.461
   134   1 H        0.925     0.041     2.437     2.441
   135   1 H        0.926     0.047     2.353     2.399
   136   1 H        0.926     0.038     2.469     2.457
   137   1 H        0.926     0.026     2.651     2.546
   138   1 H        0.926     0.035     2.513     2.479

molecular dipole:
                 x           y           z       tot (Debye)
 q only:        0.014       0.020       0.109
   full:        0.025       0.014       0.145       0.375

 projected vibrational frequencies (cm⁻¹)
eigval :       -0.00    -0.00    -0.00    -0.00     0.00     0.00
eigval :        2.03     7.02     8.94    15.49    17.78    18.11
eigval :       21.96    23.15    25.01    27.33    28.41    31.93
eigval :       36.54    40.97    47.50    51.36    56.99    60.98
eigval :       67.89    70.27    75.21    77.76    82.99    92.02
eigval :       94.19    98.49   107.24   116.68   120.89   124.21
eigval :      136.62   148.99   155.98   163.15   168.82   171.96
eigval :      176.49   178.82   184.72   186.14   192.98   208.20
eigval :      211.60   213.61   221.87   223.38   225.77   228.15
eigval :      231.91   241.43   249.62   252.55   258.19   265.14
eigval :      270.55   288.95   292.20   299.00   310.62   311.42
eigval :      313.60   314.51   315.66   317.35   318.01   321.13
eigval :      334.27   351.17   355.37   362.74   364.53   365.17
eigval :      367.76   369.58   374.50   378.95   380.67   381.52
eigval :      384.08   384.42   391.75   393.13   396.61   399.55
eigval :      404.85   408.89   415.78   424.86   428.52   432.02
eigval :      437.66   441.71   449.61   451.85   455.42   461.11
eigval :      461.81   466.79   473.59   479.86   496.92   499.46
eigval :      530.81   533.41   538.10   541.72   551.53   556.82
eigval :      569.21   571.22   576.95   577.17   579.90   586.09
eigval :      602.93   604.65   608.25   608.56   618.53   623.78
eigval :      624.93   625.98   629.86   640.39   673.03   682.35
eigval :      683.25   685.52   694.52   697.67   701.99   703.75
eigval :      704.60   709.32   709.42   735.36   744.05   750.93
eigval :      754.76   758.47   782.93   805.86   809.40   818.71
eigval :      819.14   824.40   830.31   832.02   832.37   851.05
eigval :      857.79   866.59   868.43   868.76   870.73   873.28
eigval :      874.76   875.70   878.75   879.34   880.01   880.64
eigval :      885.31   888.22   895.10   908.64   910.30   910.87
eigval :      914.45   916.71   917.27   917.71   921.49   923.99
eigval :      924.35   929.95   933.16   933.41   935.42   940.23
eigval :      941.44   959.36   959.59   959.59   959.86   961.87
eigval :      962.09   962.42   962.56   963.30   964.31   964.48
eigval :      965.81   994.19   995.91  1015.41  1016.47  1016.75
eigval :     1028.53  1033.96  1034.33  1034.50  1034.84  1035.07
eigval :     1035.17  1035.51  1036.01  1036.42  1074.17  1078.42
eigval :     1078.99  1084.18  1131.83  1132.23  1140.06  1140.22
eigval :     1144.13  1144.36  1145.47  1145.66  1150.97  1152.05
eigval :     1156.14  1156.58  1184.97  1185.24  1208.33  1208.88
eigval :     1216.70  1217.14  1217.42  1221.09  1224.98  1225.21
eigval :     1225.27  1225.34  1225.41  1231.78  1231.86  1232.01
eigval :     1232.28  1232.78  1238.00  1239.05  1245.13  1253.31
eigval :     1270.08  1273.69  1276.01  1281.37  1282.21  1283.07
eigval :     1283.35  1286.56  1288.40  1290.60  1297.04  1309.42
eigval :     1311.60  1315.52  1316.08  1317.83  1319.42  1323.13
eigval :     1336.93  1347.20  1348.54  1358.16  1370.19  1377.25
eigval :     1384.74  1394.88  1395.26  1397.63  1397.68  1402.77
eigval :     1403.11  1403.50  1403.62  1405.68  1405.90  1407.83
eigval :     1408.00  1411.78  1416.64  1421.12  1426.84  1427.16
eigval :     1427.31  1427.56  1438.94  1443.36  1469.77  1471.30
eigval :     1480.86  1488.03  1488.46  1488.63  1488.75  1489.12
eigval :     1489.90  1490.52  1490.77  1490.98  1491.17  1491.50
eigval :     1493.32  1495.84  1496.44  1499.77  1499.95  1500.80
eigval :     1501.06  1504.39  1504.46  1509.64  1510.00  1510.88
eigval :     1511.04  1511.10  1511.47  1515.84  1516.77  1517.20
eigval :     1518.06  1555.58  1556.79  1558.24  1565.13  1565.34
eigval :     1570.89  1570.93  1575.08  1575.33  1588.81  1593.30
eigval :     1599.97  1600.27  1603.20  1603.87  1612.21  1613.06
eigval :     3018.85  3019.15  3019.49  3020.05  3020.82  3021.57
eigval :     3021.94  3022.25  3022.85  3023.63  3024.48  3024.96
eigval :     3025.15  3025.57  3026.42  3026.46  3026.70  3027.29
eigval :     3029.44  3029.78  3030.09  3030.96  3031.99  3032.28
eigval :     3035.50  3036.01  3037.15  3037.54  3043.64  3043.73
eigval :     3045.06  3045.53  3045.57  3046.63  3046.90  3048.09
eigval :     3048.91  3049.16  3065.48  3066.10  3068.28  3069.19
eigval :     3078.74  3079.02  3079.08  3079.66  3080.91  3081.00
eigval :     3082.84  3082.91  3083.18  3083.30  3088.17  3088.58
eigval :     3090.70  3090.92  3091.82  3092.07  3092.43  3092.86
eigval :     3106.22  3106.60  3107.15  3107.89  3116.60  3116.75

   temp. (K)  partition function   enthalpy   heat capacity  entropy
                                   cal/mol     cal/K/mol   cal/K/mol   J/K/mol
 298.15  VIB  0.168E+34            40243.096    244.838    253.501
         ROT  0.739E+09              888.752      2.981     43.563
         INT  0.124E+43            41131.848    247.819    297.064
         TR   0.279E+29             1481.254      4.968     46.374
         TOT                       42613.1023   252.7867   343.4378  1436.9439

       T/K    H(0)-H(T)+PV         H(T)/Eh          T*S/Eh         G(T)/Eh
   ------------------------------------------------------------------------
    298.15    0.679083E-01    0.120223E+01    0.163178E+00    0.103905E+01
   ------------------------------------------------------------------------

         :::::::::::::::::::::::::::::::::::::::::::::::::::::
         ::                  THERMODYNAMIC                  ::
         :::::::::::::::::::::::::::::::::::::::::::::::::::::
         :: total free energy        -190.147413915856 Eh   ::
         ::.................................................::
         :: total energy             -191.186467294721 Eh   ::
         :: zero point energy           1.134323470177 Eh   ::
         :: G(RRHO) w/o ZPVE           -0.095270091312 Eh   ::
         :: G(RRHO) contrib.            1.039053378865 Eh   ::
         :::::::::::::::::::::::::::::::::::::::::::::::::::::

           -------------------------------------------------
          | TOTAL ENERGY             -191.186467294721 Eh   |
          | TOTAL ENTHALPY           -189.984235523483 Eh   |
          | TOTAL FREE ENERGY        -190.147413915856 Eh   |
          | GRADIENT NORM               0.000039298789 Eh/α |
          | HOMO-LUMO GAP               2.039990222423 eV   |
           -------------------------------------------------

 * finished run on 2025/09/05 at 03:44:49.939
