   * xtb version 6.7.1 (edcfbbe) compiled by 'albert@albert-system' on 2024-07-22

   ID    Z sym.   atoms
    1    6 C      1-10, 12-21, 23-25, 27-45, 47-52, 54-63, 65-74, 76-84
    2    5 B      11, 64
    3    8 O      22, 53, 75, 85
    4    7 N      26, 46
    5    1 H      86-153

          program call               : xtb data2507/toluene/2TDBA-SBA/2TDBA-SBA_toluene_S0_finalOpt.xtbopt.xyz --gfn 2 --uhf 2 --gbsa toluene --ohess vtight --parallel 40 --molden --ceasefiles --namespace data2507/toluene/2TDBA-SBA/2TDBA-SBA_toluene_T1_preOpt
      * Solvation model:               GBSA
        Solvent                        toluene
        Solvent mass                       9.2140E+01 g/mol
          :  Hamiltonian                  GFN2-xTB          :
 * total energy  :  -224.3612703 Eh     change       -0.6967070E-08 Eh
 * total energy  :  -224.3618755 Eh     change       -0.6051347E-03 Eh
 * total energy  :  -224.3620368 Eh     change       -0.1613279E-03 Eh
 * total energy  :  -224.3620476 Eh     change       -0.1082257E-04 Eh
 * total energy  :  -224.3620530 Eh     change       -0.5347847E-05 Eh
 * total energy  :  -224.3620552 Eh     change       -0.2236663E-05 Eh
 * total energy  :  -224.3620578 Eh     change       -0.2583725E-05 Eh
 * total energy  :  -224.3620589 Eh     change       -0.1132987E-05 Eh
 * total energy  :  -224.3620597 Eh     change       -0.8095316E-06 Eh
 * total energy  :  -224.3620604 Eh     change       -0.6309067E-06 Eh
 * total energy  :  -224.3620803 Eh     change       -0.5499415E-06 Eh
 * total energy  :  -224.3620810 Eh     change       -0.6511467E-06 Eh
 * total energy  :  -224.3620818 Eh     change       -0.8300707E-06 Eh
 * total energy  :  -224.3620828 Eh     change       -0.9816396E-06 Eh
 * total energy  :  -224.3620837 Eh     change       -0.8767934E-06 Eh
 * total energy  :  -224.3620843 Eh     change       -0.6517331E-06 Eh
 * total energy  :  -224.3620850 Eh     change       -0.7269534E-06 Eh
 * total energy  :  -224.3620858 Eh     change       -0.7625790E-06 Eh
 * total energy  :  -224.3620858 Eh     change       -0.1148419E-07 Eh
   *** GEOMETRY OPTIMIZATION CONVERGED AFTER 44 ITERATIONS ***

 final structure:
================
153
 xtb: 6.7.1 (edcfbbe)
C           13.16643636026005       -3.97177254864348       -2.27760195978232
C           12.74243331443779       -2.74734040644446       -1.46049915442908
C           13.21833484701368       -2.94999643325988       -0.01392615095412
C           13.42740452215655       -1.51234313263485       -2.06484807997670
C           11.23549971598467       -2.53433830875297       -1.45948519208428
C           10.35115491985238       -3.39500083461646       -2.10680918835214
C            8.98806329447220       -3.17216806317942       -2.05014097019770
C            8.47715484841884       -2.07733272136498       -1.36218462243790
C            9.33103041855859       -1.15189986534565       -0.72483669677103
C           10.69913405095063       -1.44335654041524       -0.78763409933251
B            8.66879840333830        0.05496153363444       -0.01778647907484
C            9.22993520207943        1.32901490759914        0.65743490526206
C           10.56421674064633        1.76548609261539        0.64894954870892
C           11.00778968063274        2.90921091317119        1.29166874002209
C           12.45915405079191        3.36638604274024        1.26809200226998
C           12.99340308907774        3.41465952513548        2.70757197123765
C           12.53081671684603        4.76700985711972        0.64100270023319
C           13.36374664482454        2.43511447507491        0.45548943939798
C           10.06519010398485        3.66884109429500        1.98975892992867
C            8.73550815609985        3.30301395579515        2.00464470874771
C            8.31348248309634        2.15769294393461        1.33605815129023
O            6.96192931175880        1.93623849244682        1.39798829285929
C            6.37773071653558        0.91997770705067        0.71471737503643
C            4.99037556294923        0.85983109849336        0.74636911736475
C            4.33915834248155       -0.15840769010359        0.05477072008855
N            2.91456361349236       -0.21379848529577        0.06332425900206
C            2.21032951762805        0.60702794062741       -0.79583496702553
C            2.89387631484852        1.44819113714779       -1.68426072465804
C            2.20468001208543        2.27813488052928       -2.54142587476580
C            0.81742006702790        2.28894735410742       -2.53953246070049
C            0.13518638628566        1.45172804935160       -1.67638887279817
C            0.80961967800739        0.60918050980919       -0.80584521363751
C           -0.00258391989389       -0.28907099626276        0.10565233975529
C            0.88093770892638       -1.16348722168450        0.97063506842484
C            0.27502414483959       -2.05492393548544        1.84286386130315
C            1.02382326379015       -2.86602889741895        2.67536634442041
C            2.40813837691971       -2.77801717950931        2.64483843636677
C            3.02986059150797       -1.89902000619606        1.78478910094000
C            2.27897590495600       -1.08412045093749        0.92700647432506
C           -0.83596834223616        0.58748731211442        1.01848364386189
C           -0.18247066062099        1.41902847765201        1.91514846629793
C           -0.88550279861139        2.24305133352151        2.77439333930007
C           -2.27246462048127        2.23049172393461        2.74499109595383
C           -2.94104771172749        1.41114578251468        1.86165094331937
C           -2.23608658882913        0.58330780490934        0.97756375364161
N           -2.91968150484374       -0.22744366231578        0.09252609966636
C           -4.34304617333594       -0.15761414018073        0.05373380771539
C           -5.10213722170167       -1.11184862540626        0.72599341076759
C           -6.48822382809489       -1.02913943501300        0.67959005465097
C           -7.14745108763448       -0.00106884805371       -0.01524144592714
C           -6.34486801088318        0.94332451509945       -0.67689804130976
C           -4.95784813225078        0.87171925427067       -0.65395842714341
O           -6.89377869805289        1.96784460994343       -1.37666918706146
C           -8.24508584413040        2.19892774645526       -1.36776243277316
C           -8.63223485895997        3.35119309789674       -2.04567874086620
C           -9.95876951909648        3.72677207532040       -2.08018653083434
C          -10.93325375511055        2.97117141150093       -1.42255960070860
C          -12.38117780663669        3.43833638310755       -1.45345460703645
C          -12.86259345308742        3.47683695531052       -2.91171996479393
C          -12.46725934942035        4.84495252901378       -0.84165274314340
C          -13.31937364753065        2.51979074492111       -0.66495182544906
C          -10.52409025569408        1.81966378361079       -0.77086424057819
C           -9.19396286613049        1.37278858141820       -0.73207330566129
B           -8.66959174410901        0.08815757608880       -0.04740481590518
C           -9.36820150480671       -1.12451444606193        0.61189542597900
C          -10.74233300148441       -1.41067678625711        0.59569358679819
C          -11.31023090024237       -2.50759338501873        1.22187187659040
C          -12.80339620248396       -2.79976396996225        1.19237769594515
C          -13.34136519894788       -2.80507256785699        2.63126180701257
C          -13.59676680945723       -1.76311323108749        0.39125766993076
C          -13.03090296681913       -4.17600415096177        0.54861967075105
C          -10.45828277526056       -3.37647312138590        1.90909672984735
C           -9.09642390355618       -3.15951621396377        1.93072454691480
C           -8.54936636855309       -2.05780363573436        1.27940567857028
O           -7.18184108040310       -1.98536690142887        1.34700722992365
C           -2.26434551247832       -1.09963781352850       -0.75452616192724
C           -2.99467377378115       -1.91900053732563       -1.62569457946704
C           -2.35289930569410       -2.80082788846448       -2.46793976413855
C           -0.96825516120742       -2.88751897097426       -2.46684770041460
C           -0.23937307374270       -2.07109605925960       -1.62199656815439
C           -0.86558569122840       -1.17682322579572       -0.76723907316484
C            5.06355768774661       -1.11441402080200       -0.65198345800846
C            6.45103137502123       -1.04328150317352       -0.65986068159863
C            7.14624939287582       -0.02529579341734        0.01480485786043
O            7.10851477119876       -2.00008175167299       -1.36209207878232
H           12.86675590603766       -3.87028400977309       -3.31836375418908
H           12.73693294200750       -4.88404536717587       -1.86960396825185
H           14.25008214844942       -4.06908196115379       -2.24770709404998
H           12.73815714405524       -3.82498954265946        0.42030820063385
H           12.97948310403717       -2.09037342070645        0.60597330451522
H           14.29587852070933       -3.10005826889240        0.00828510438133
H           14.50490673274685       -1.66044562828568       -2.09810071228554
H           13.06989589786525       -1.34302687084015       -3.07882195976577
H           13.22540664653647       -0.62050039115241       -1.47932735437023
H           10.70528878937682       -4.25389230540415       -2.65205031223530
H            8.29685702885971       -3.84786716843310       -2.53259757441284
H           11.36649614504542       -0.77828526565164       -0.26575530505218
H           11.26435507003264        1.17023346385741        0.09105874831816
H           12.92492684484822        2.43054146999199        3.16751284573023
H           12.42848002922362        4.11470889686619        3.31698066487653
H           14.03620964147343        3.72561872819697        2.70950761181246
H           11.95892129246894        5.48935971780182        1.21693654250508
H           12.13198829242630        4.74596279089379       -0.37149525882143
H           13.56401076752790        5.10605450412997        0.59885554705805
H           13.37805094117427        1.43526554213833        0.88301517341205
H           13.03799471357841        2.37923620028686       -0.58080264518347
H           14.38226062654664        2.81861676612617        0.46724907806773
H           10.35977950363023        4.56255294928540        2.51780617739786
H            7.99967878915161        3.89990278252082        2.52346356097939
H            4.43221294320402        1.60220631156978        1.29476578351084
H            3.97219192554804        1.43982853069819       -1.69571783061868
H            2.75277229738219        2.91863684173004       -3.21575167555255
H            0.27401185221281        2.93950029042915       -3.20699372816501
H           -0.94459120627071        1.44661746692527       -1.67398459477475
H           -0.80357339971196       -2.10811245400327        1.86565401682549
H            0.53405296094289       -3.55560679148004        3.34515077488044
H            3.00665430835825       -3.39722604809532        3.29576329522851
H            4.10616385637414       -1.83135973166346        1.76906826901554
H            0.89721231903173        1.41615895664084        1.93576912525514
H           -0.35834053434978        2.88550251915596        3.46241577931623
H           -2.83642946096553        2.86124438720845        3.41539466829979
H           -4.01940688022746        1.40064152067673        1.84857436649567
H           -4.62781192236730       -1.90983412282541        1.27545822974603
H           -4.37246418949521        1.61289740381215       -1.17483001235984
H           -7.87246547274502        3.94544947061185       -2.53203183542475
H          -10.22627598161383        4.62496449415951       -2.61500863796959
H          -12.26766675471691        4.16398852988466       -3.50726797673994
H          -13.90113381508690        3.79887708758617       -2.95487666676075
H          -12.78849206073969        2.48705716437875       -3.35831564562390
H          -12.10200413610896        4.83185270581320        0.18359521857978
H          -11.87464430349630        5.56058198173540       -1.40482978216906
H          -13.50002432028713        5.18788633320157       -0.83634778476238
H          -14.33401614628434        2.91054656991135       -0.71392491650234
H          -13.02812419247765        2.47050315436483        0.38188921834141
H          -13.32678695478963        1.51628413920717       -1.08336894001764
H          -11.24976637969613        1.22614648042813       -0.24465063943267
H          -11.37126730415355       -0.73381940727352        0.04615530978896
H          -13.16705331995563       -1.83905521339971        3.10141754015756
H          -12.85664364205359       -3.56886511773002        3.23318985495858
H          -14.41179819406389       -3.00085710977820        2.62987154642045
H          -14.65230817000514       -2.02827439768687        0.40172435872537
H          -13.49601442696500       -0.77223233207661        0.82736445827712
H          -13.26778861168514       -1.73477929563782       -0.64510661940578
H          -12.54491986523628       -4.96508710345292        1.11585517324811
H          -14.09563781716020       -4.39610061470878        0.50251947080788
H          -12.63106050306391       -4.18823985419649       -0.46367707914276
H          -10.85079889309096       -4.23988144979831        2.42376964319618
H           -8.43230428882937       -3.84107875809198        2.44192596052064
H           -4.07106826516510       -1.85292594179539       -1.63522536452905
H           -2.93607718491706       -3.42335399543328       -3.12953542793133
H           -0.46265323462301       -3.57922035256069       -3.12253781783142
H            0.83945770155382       -2.12215381903862       -1.62179325465569
H            4.56224057361888       -1.90454119523793       -1.18861807695641

          :  Hamiltonian                  GFN2-xTB          :
         :: gradient norm              0.000053358903 Eh/a0 ::
         :: HOMO-LUMO gap              0.000950493934 eV    ::
         :: SCC energy              -228.108202693881 Eh    ::
         :: -> dispersion             -0.216957877466 Eh    ::
         :: -> Gsolv                  -0.084738475800 Eh    ::
         :: repulsion energy           3.746116901251 Eh    ::

    * Orbital Energies and Occupations

         #    Occupation            Energy/Eh            Energy/eV
      -------------------------------------------------------------
         1        2.0000           -0.7252988             -19.7364
       ...           ...                  ...                  ...
       197        2.0000           -0.3916413             -10.6571
       198        2.0000           -0.3913905             -10.6503
       199        2.0000           -0.3843039             -10.4574
       200        2.0000           -0.3842214             -10.4552
       201        2.0000           -0.3798442             -10.3361
       202        2.0000           -0.3796919             -10.3319
       203        2.0000           -0.3765653             -10.2469
       204        2.0000           -0.3760498             -10.2328
       205        1.7966           -0.3646122              -9.9216
       206        1.7944           -0.3645992              -9.9212
       207        1.7494           -0.3643559              -9.9146
       208        1.6596           -0.3639437              -9.9034
       209        0.5049           -0.2642103              -7.1895 (HOMO)
       210        0.4951           -0.2641729              -7.1885 (LUMO)
       211        0.0000           -0.2508270              -6.8254
       212                         -0.2381237              -6.4797
       213                         -0.2357801              -6.4159
       214                         -0.2357301              -6.4145
       215                         -0.2341141              -6.3706
       216                         -0.2312519              -6.2927
       217                         -0.2303489              -6.2681
       218                         -0.2280208              -6.2048
       219                         -0.2276803              -6.1955
       220                         -0.2275402              -6.1917
       ...                                ...                  ...
       408                          0.7048061              19.1787
      -------------------------------------------------------------
                  HL-Gap            0.0000374 Eh            0.0010 eV

     #   Z          covCN         q      C6AA      α(0)
     1   6 C        3.761    -0.107    22.594     6.776
     2   6 C        3.902     0.025    20.100     6.373
     3   6 C        3.761    -0.105    22.551     6.770
     4   6 C        3.761    -0.105    22.559     6.771
     5   6 C        2.968     0.002    27.989     8.678
     6   6 C        2.924    -0.045    29.116     8.849
     7   6 C        2.913    -0.061    29.526     8.910
     8   6 C        2.874     0.129    25.175     8.225
     9   6 C        2.880    -0.092    30.299     9.024
    10   6 C        2.932    -0.048    29.197     8.862
    11   5 B        2.722     0.179    18.692     7.245
    12   6 C        2.880    -0.092    30.305     9.025
    13   6 C        2.930    -0.052    29.298     8.877
    14   6 C        2.968     0.001    28.001     8.680
    15   6 C        3.902     0.025    20.102     6.373
    16   6 C        3.761    -0.105    22.549     6.769
    17   6 C        3.761    -0.105    22.551     6.770
    18   6 C        3.761    -0.106    22.573     6.773
    19   6 C        2.926    -0.041    29.015     8.834
    20   6 C        2.912    -0.061    29.519     8.909
    21   6 C        2.874     0.129    25.179     8.226
    22   8 O        1.711    -0.247    18.096     5.744
    23   6 C        2.872     0.133    25.093     8.212
    24   6 C        2.913    -0.078    29.939     8.972
    25   6 C        2.929     0.047    26.940     8.512
    26   7 N        2.754    -0.030    21.828     6.939
    27   6 C        2.927     0.062    26.601     8.458
    28   6 C        2.923    -0.049    29.216     8.864
    29   6 C        2.919    -0.028    28.690     8.783
    30   6 C        2.917    -0.034    28.842     8.807
    31   6 C        2.924    -0.032    28.805     8.801
    32   6 C        2.988    -0.004    28.120     8.699
    33   6 C        3.928     0.016    20.245     6.394
    34   6 C        2.987    -0.004    28.121     8.699
    35   6 C        2.924    -0.032    28.794     8.800
    36   6 C        2.917    -0.034    28.838     8.806
    37   6 C        2.919    -0.027    28.687     8.783
    38   6 C        2.922    -0.049    29.218     8.864
    39   6 C        2.926     0.062    26.605     8.459
    40   6 C        2.988    -0.004    28.120     8.699
    41   6 C        2.924    -0.032    28.802     8.801
    42   6 C        2.917    -0.034    28.841     8.807
    43   6 C        2.919    -0.028    28.689     8.783
    44   6 C        2.923    -0.049    29.216     8.864
    45   6 C        2.927     0.062    26.603     8.458
    46   7 N        2.754    -0.030    21.831     6.939
    47   6 C        2.929     0.048    26.934     8.511
    48   6 C        2.913    -0.078    29.942     8.973
    49   6 C        2.872     0.133    25.093     8.211
    50   6 C        2.886    -0.125    31.185     9.155
    51   6 C        2.872     0.133    25.091     8.211
    52   6 C        2.914    -0.078    29.938     8.972
    53   8 O        1.711    -0.247    18.089     5.742
    54   6 C        2.874     0.129    25.177     8.225
    55   6 C        2.912    -0.061    29.516     8.909
    56   6 C        2.926    -0.041    29.009     8.833
    57   6 C        2.968     0.001    27.991     8.678
    58   6 C        3.902     0.025    20.101     6.373
    59   6 C        3.761    -0.105    22.552     6.770
    60   6 C        3.761    -0.105    22.552     6.770
    61   6 C        3.761    -0.108    22.602     6.777
    62   6 C        2.930    -0.053    29.304     8.878
    63   6 C        2.880    -0.092    30.297     9.024
    64   5 B        2.723     0.179    18.688     7.244
    65   6 C        2.880    -0.092    30.297     9.024
    66   6 C        2.930    -0.053    29.305     8.878
    67   6 C        2.968     0.001    27.991     8.678
    68   6 C        3.902     0.025    20.101     6.373
    69   6 C        3.761    -0.105    22.553     6.770
    70   6 C        3.761    -0.107    22.601     6.777
    71   6 C        3.761    -0.105    22.550     6.769
    72   6 C        2.926    -0.041    29.009     8.833
    73   6 C        2.912    -0.061    29.516     8.909
    74   6 C        2.874     0.129    25.178     8.226
    75   8 O        1.711    -0.247    18.090     5.743
    76   6 C        2.926     0.062    26.603     8.459
    77   6 C        2.922    -0.049    29.220     8.865
    78   6 C        2.919    -0.028    28.688     8.783
    79   6 C        2.917    -0.034    28.840     8.806
    80   6 C        2.924    -0.032    28.798     8.800
    81   6 C        2.987    -0.004    28.121     8.699
    82   6 C        2.913    -0.078    29.938     8.972
    83   6 C        2.872     0.133    25.096     8.212
    84   6 C        2.886    -0.125    31.190     9.156
    85   8 O        1.711    -0.247    18.086     5.742
    86   1 H        0.925     0.035     2.515     2.480
    87   1 H        0.925     0.035     2.519     2.482
    88   1 H        0.925     0.037     2.485     2.465
    89   1 H        0.925     0.032     2.563     2.504
    90   1 H        0.925     0.037     2.482     2.464
    91   1 H        0.925     0.039     2.460     2.453
    92   1 H        0.925     0.039     2.465     2.455
    93   1 H        0.925     0.032     2.558     2.501
    94   1 H        0.925     0.039     2.462     2.454
    95   1 H        0.926     0.038     2.481     2.463
    96   1 H        0.926     0.032     2.561     2.502
    97   1 H        0.926     0.037     2.484     2.465
    98   1 H        0.926     0.042     2.417     2.431
    99   1 H        0.925     0.033     2.549     2.497
   100   1 H        0.925     0.036     2.507     2.476
   101   1 H        0.925     0.039     2.464     2.455
   102   1 H        0.925     0.036     2.506     2.475
   103   1 H        0.925     0.032     2.552     2.498
   104   1 H        0.925     0.039     2.465     2.455
   105   1 H        0.925     0.035     2.510     2.478
   106   1 H        0.925     0.036     2.498     2.472
   107   1 H        0.925     0.038     2.481     2.463
   108   1 H        0.926     0.031     2.579     2.511
   109   1 H        0.926     0.032     2.563     2.504
   110   1 H        0.926     0.048     2.349     2.397
   111   1 H        0.926     0.042     2.427     2.436
   112   1 H        0.926     0.044     2.399     2.422
   113   1 H        0.926     0.043     2.410     2.428
   114   1 H        0.926     0.036     2.496     2.471
   115   1 H        0.926     0.037     2.491     2.468
   116   1 H        0.926     0.043     2.408     2.426
   117   1 H        0.926     0.044     2.399     2.422
   118   1 H        0.926     0.042     2.427     2.436
   119   1 H        0.926     0.037     2.495     2.470
   120   1 H        0.926     0.043     2.409     2.427
   121   1 H        0.926     0.044     2.399     2.422
   122   1 H        0.926     0.042     2.428     2.437
   123   1 H        0.926     0.048     2.341     2.392
   124   1 H        0.926     0.048     2.350     2.397
   125   1 H        0.926     0.032     2.562     2.503
   126   1 H        0.926     0.031     2.577     2.510
   127   1 H        0.925     0.036     2.509     2.477
   128   1 H        0.925     0.039     2.463     2.454
   129   1 H        0.925     0.033     2.544     2.494
   130   1 H        0.925     0.032     2.555     2.500
   131   1 H        0.925     0.036     2.507     2.476
   132   1 H        0.925     0.039     2.467     2.456
   133   1 H        0.925     0.037     2.483     2.464
   134   1 H        0.925     0.036     2.503     2.474
   135   1 H        0.925     0.038     2.473     2.459
   136   1 H        0.926     0.045     2.382     2.413
   137   1 H        0.926     0.045     2.382     2.413
   138   1 H        0.925     0.033     2.544     2.494
   139   1 H        0.925     0.036     2.509     2.477
   140   1 H        0.925     0.039     2.464     2.455
   141   1 H        0.925     0.037     2.483     2.464
   142   1 H        0.925     0.038     2.474     2.460
   143   1 H        0.925     0.036     2.503     2.474
   144   1 H        0.925     0.036     2.508     2.476
   145   1 H        0.925     0.039     2.466     2.456
   146   1 H        0.925     0.032     2.555     2.499
   147   1 H        0.926     0.031     2.577     2.510
   148   1 H        0.926     0.032     2.562     2.503
   149   1 H        0.926     0.042     2.425     2.435
   150   1 H        0.926     0.044     2.399     2.422
   151   1 H        0.926     0.043     2.409     2.427
   152   1 H        0.926     0.037     2.494     2.469
   153   1 H        0.926     0.048     2.344     2.394

molecular dipole:
                 x           y           z       tot (Debye)
 q only:       -0.140      -0.078       0.024
   full:       -0.132      -0.080       0.036       0.402

 projected vibrational frequencies (cm⁻¹)
eigval :       -0.00    -0.00    -0.00     0.00     0.00     0.00
eigval :        1.91     3.88     8.15    11.07    15.10    15.86
eigval :       21.95    22.71    28.17    29.11    30.96    35.11
eigval :       38.49    41.96    47.28    48.72    49.70    58.39
eigval :       61.32    69.53    70.88    73.12    78.29    80.83
eigval :       89.87    92.27   102.36   105.81   107.52   115.17
eigval :      117.00   119.93   130.63   133.37   135.37   137.99
eigval :      139.21   168.03   170.91   176.89   177.84   180.90
eigval :      205.54   209.29   211.47   212.78   217.32   217.56
eigval :      219.99   222.28   223.89   224.44   229.61   232.03
eigval :      233.92   239.70   242.18   252.95   256.51   261.87
eigval :      263.28   264.86   270.99   273.62   278.22   284.14
eigval :      285.62   290.74   313.82   315.23   316.27   316.42
eigval :      318.92   320.30   328.81   332.53   333.04   357.69
eigval :      358.25   358.35   361.99   362.95   363.28   363.32
eigval :      372.20   378.89   379.75   382.57   383.91   391.77
eigval :      391.83   401.05   403.73   411.10   411.79   420.62
eigval :      425.06   425.98   426.78   427.22   429.33   431.27
eigval :      435.43   444.25   447.89   451.91   453.70   455.32
eigval :      474.75   476.91   484.89   485.81   490.88   492.91
eigval :      493.01   504.29   514.65   515.40   515.51   515.93
eigval :      516.00   519.12   543.15   544.16   564.87   565.35
eigval :      577.79   577.92   586.09   592.25   593.66   595.72
eigval :      595.87   608.05   611.04   612.47   625.75   631.18
eigval :      633.32   642.88   643.23   647.30   652.08   657.37
eigval :      669.68   678.21   678.61   680.44   685.90   689.60
eigval :      693.52   693.63   695.99   696.53   699.27   706.51
eigval :      707.11   708.82   723.87   724.26   770.41   771.24
eigval :      772.29   778.61   789.06   804.11   807.46   809.92
eigval :      810.33   814.79   815.00   816.59   822.13   822.69
eigval :      842.55   844.01   844.97   847.79   856.11   856.96
eigval :      857.33   859.05   866.07   866.86   867.09   867.78
eigval :      871.18   871.32   886.69   887.38   894.31   894.56
eigval :      896.07   898.24   902.12   902.75   903.78   909.79
eigval :      910.47   910.89   911.28   923.75   924.23   924.38
eigval :      924.85   934.04   937.31   940.57   940.76   958.01
eigval :      958.72   959.14   959.23   959.60   959.69   960.33
eigval :      962.05   962.25   962.46   963.11   963.34   964.79
eigval :      966.46  1010.83  1013.23  1032.73  1033.17  1033.96
eigval :     1034.28  1034.59  1034.61  1035.05  1035.19  1055.75
eigval :     1055.81  1071.00  1075.93  1091.98  1098.66  1099.41
eigval :     1101.32  1101.91  1108.90  1121.67  1122.34  1125.54
eigval :     1125.66  1130.88  1131.45  1135.94  1136.65  1150.99
eigval :     1152.02  1167.74  1172.37  1172.99  1173.56  1178.96
eigval :     1179.19  1179.98  1181.10  1185.93  1194.45  1204.54
eigval :     1204.98  1206.62  1209.55  1223.57  1223.69  1223.79
eigval :     1223.97  1224.03  1224.27  1225.16  1226.97  1227.52
eigval :     1227.63  1230.47  1233.64  1233.79  1237.34  1243.61
eigval :     1243.83  1248.25  1251.23  1262.43  1262.93  1263.55
eigval :     1265.82  1275.39  1277.15  1285.03  1288.53  1290.62
eigval :     1292.04  1312.56  1313.10  1314.30  1315.80  1317.40
eigval :     1323.83  1328.66  1328.90  1329.19  1330.24  1333.07
eigval :     1334.46  1339.05  1339.15  1372.72  1373.09  1379.77
eigval :     1380.25  1392.28  1392.36  1401.03  1401.17  1401.70
eigval :     1401.74  1402.30  1403.17  1403.43  1403.75  1421.00
eigval :     1421.19  1423.15  1425.09  1425.67  1425.86  1426.08
eigval :     1427.05  1431.69  1433.55  1434.55  1435.64  1452.58
eigval :     1453.86  1454.67  1455.24  1465.28  1476.65  1487.63
eigval :     1488.92  1489.01  1489.07  1491.49  1491.64  1491.69
eigval :     1492.00  1492.49  1493.61  1496.84  1498.06  1498.12
eigval :     1498.96  1499.79  1500.75  1501.83  1502.81  1503.12
eigval :     1504.84  1510.28  1510.77  1510.86  1510.94  1515.67
eigval :     1517.07  1517.89  1518.90  1524.66  1528.30  1528.88
eigval :     1533.59  1548.27  1550.42  1554.73  1555.49  1559.77
eigval :     1564.99  1572.03  1576.47  1576.56  1577.90  1586.40
eigval :     1590.12  3018.25  3018.34  3018.42  3018.81  3019.40
eigval :     3019.45  3019.48  3019.60  3023.09  3023.20  3023.37
eigval :     3023.71  3024.34  3024.42  3024.47  3024.63  3026.44
eigval :     3026.51  3026.84  3026.99  3030.12  3030.92  3031.35
eigval :     3031.86  3034.91  3035.34  3036.50  3037.98  3043.70
eigval :     3044.10  3044.35  3045.97  3046.70  3046.82  3047.03
eigval :     3052.64  3075.52  3075.95  3076.04  3076.88  3082.50
eigval :     3083.85  3084.61  3084.97  3086.57  3086.76  3087.36
eigval :     3087.96  3088.91  3089.32  3089.48  3099.08  3099.84
eigval :     3100.09  3100.45  3101.74  3101.81  3102.83  3103.17
eigval :     3107.57  3108.13  3108.66  3109.47  3113.01  3115.41
eigval :     3141.56  3144.42  3147.63

   temp. (K)  partition function   enthalpy   heat capacity  entropy
                                   cal/mol     cal/K/mol   cal/K/mol   J/K/mol
 298.15  VIB  0.530E+37            45727.774    283.238    286.416
         ROT  0.591E+09              888.752      2.981     43.119
         INT  0.313E+46            46616.526    286.219    329.536
         TR   0.356E+29             1481.254      4.968     46.863
         TOT                       48097.7802   291.1867   376.3988  1574.8527

       T/K    H(0)-H(T)+PV         H(T)/Eh          T*S/Eh         G(T)/Eh
   ------------------------------------------------------------------------
    298.15    0.766487E-01    0.129672E+01    0.178839E+00    0.111788E+01
   ------------------------------------------------------------------------

         :::::::::::::::::::::::::::::::::::::::::::::::::::::
         ::                  THERMODYNAMIC                  ::
         :::::::::::::::::::::::::::::::::::::::::::::::::::::
         :: total free energy        -223.244204546904 Eh   ::
         ::.................................................::
         :: total energy             -224.362085809015 Eh   ::
         :: zero point energy           1.220071796425 Eh   ::
         :: G(RRHO) w/o ZPVE           -0.102190534314 Eh   ::
         :: G(RRHO) contrib.            1.117881262111 Eh   ::
         :::::::::::::::::::::::::::::::::::::::::::::::::::::

           -------------------------------------------------
          | TOTAL ENERGY             -224.362085809015 Eh   |
          | TOTAL ENTHALPY           -223.065365320933 Eh   |
          | TOTAL FREE ENERGY        -223.244204546904 Eh   |
          | GRADIENT NORM               0.000064938778 Eh/α |
          | HOMO-LUMO GAP               0.001017583275 eV   |
           -------------------------------------------------

 * finished run on 2025/08/22 at 22:10:17.136
