   * xtb version 6.7.1 (edcfbbe) compiled by 'albert@albert-system' on 2024-07-22

   ID    Z sym.   atoms
    1    6 C      1-10, 12-21, 23-25, 27-45, 47-52, 54-63, 65-74, 76-84
    2    5 B      11, 64
    3    8 O      22, 53, 75, 85
    4    7 N      26, 46
    5    1 H      86-153

          program call               : xtb data2507/toluene/2TDBA-SBA/2TDBA-SBA_toluene_S0_crest.xyz --gfn 2 --gbsa toluene --ohess vtight --parallel 40 --molden --ceasefiles --namespace data2507/toluene/2TDBA-SBA/2TDBA-SBA_toluene_S0_finalOpt
      * Solvation model:               GBSA
        Solvent                        toluene
        Solvent mass                       9.2140E+01 g/mol
          :  Hamiltonian                  GFN2-xTB          :
 * total energy  :  -224.4497528 Eh     change       -0.1030327E-07 Eh
 * total energy  :  -224.4498400 Eh     change       -0.8715819E-04 Eh
 * total energy  :  -224.4498904 Eh     change       -0.5041614E-04 Eh
 * total energy  :  -224.4499181 Eh     change       -0.2767839E-04 Eh
 * total energy  :  -224.4499404 Eh     change       -0.2234884E-04 Eh
 * total energy  :  -224.4499644 Eh     change       -0.2398900E-04 Eh
 * total energy  :  -224.4499720 Eh     change       -0.7555620E-05 Eh
 * total energy  :  -224.4499759 Eh     change       -0.3956788E-05 Eh
 * total energy  :  -224.4499831 Eh     change       -0.7150356E-05 Eh
 * total energy  :  -224.4499879 Eh     change       -0.4831709E-05 Eh
 * total energy  :  -224.4500690 Eh     change       -0.6182219E-06 Eh
 * total energy  :  -224.4500697 Eh     change       -0.7416987E-06 Eh
 * total energy  :  -224.4500705 Eh     change       -0.7185455E-06 Eh
 * total energy  :  -224.4500711 Eh     change       -0.6637707E-06 Eh
 * total energy  :  -224.4500718 Eh     change       -0.7151922E-06 Eh
 * total energy  :  -224.4500725 Eh     change       -0.6927475E-06 Eh
 * total energy  :  -224.4500731 Eh     change       -0.6083834E-06 Eh
 * total energy  :  -224.4500737 Eh     change       -0.5096634E-06 Eh
 * total energy  :  -224.4500737 Eh     change       -0.4668465E-08 Eh
   *** GEOMETRY OPTIMIZATION CONVERGED AFTER 44 ITERATIONS ***

 final structure:
================
153
 xtb: 6.7.1 (edcfbbe)
C           13.17041539474683       -3.95699461891563       -2.24936849884320
C           12.74480648260929       -2.73069215411411       -1.43617353718322
C           13.21693422018118       -2.92881022973748        0.01203159802917
C           13.42821126046161       -1.49620849389976       -2.04288533358778
C           11.23706890799634       -2.52002111985838       -1.43938465379861
C           10.35334530681847       -3.38579492215565       -2.08494925249050
C            8.99367016288343       -3.17267250484462       -2.03482910598665
C            8.47319367988539       -2.07631778204515       -1.34977809215880
C            9.32481780505387       -1.15118052304210       -0.71848298084034
C           10.69544595049482       -1.43126998899960       -0.77591020333339
B            8.65660447091192        0.06152542904259       -0.02448226473263
C            9.21310248018131        1.34741159840601        0.63515034762764
C           10.54610961454097        1.78665778197095        0.61422583838230
C           10.98651366851276        2.93298446894587        1.24749299495903
C           12.43434858756964        3.40089966261020        1.21330927077577
C           12.97570545547697        3.45757840012175        2.64962209830913
C           12.49219323782381        4.79893708372866        0.57982147765864
C           13.33823464110626        2.47058489103229        0.39886195832953
C           10.03993638249812        3.68788145383360        1.94877935014853
C            8.71694947088500        3.31836772140128        1.97698051473645
C            8.29390346297627        2.16569933324299        1.31344074996806
O            6.94828759027785        1.93625641352045        1.38376073234195
C            6.36697751195445        0.91847373375265        0.71334420375955
C            4.97833142977590        0.84455203578290        0.75098622665110
C            4.33546849399861       -0.17657738888436        0.06518153694850
N            2.91440431412731       -0.24084784036043        0.07964212037071
C            2.19778306044850        0.58025934709125       -0.77814056315306
C            2.86723258588613        1.42515443421371       -1.66804744111130
C            2.16686795577844        2.25021002649696       -2.52453898129630
C            0.78243348637366        2.24801817116168       -2.51886670813272
C            0.11514809408150        1.40388922773222       -1.65075816826869
C            0.80053141230878        0.56853571234556       -0.78202948121731
C           -0.00331920004218       -0.33410254450255        0.13383252371482
C            0.89001252772244       -1.20638452518070        0.99216170548293
C            0.29048947536324       -2.10187394130607        1.86442622278848
C            1.04144556478707       -2.91409041568362        2.69392180103782
C            2.42245276468331       -2.82192045748033        2.65651777953281
C            3.03806509134167       -1.93686222133807        1.79461635036216
C            2.28425407435369       -1.12349980757279        0.94387842793280
C           -0.83473791673044        0.54287062425455        1.04927893242602
C           -0.17656717764953        1.36680055865371        1.94931113819724
C           -0.87096000630918        2.19607746024086        2.81055412385986
C           -2.25502317948921        2.19570911413712        2.77608929549247
C           -2.92858319539625        1.38106811539818        1.88863795946800
C           -2.23136749657074        0.55049112410166        1.00670178057870
N           -2.92115794280373       -0.26162129556459        0.11895884999343
C           -4.34076295257441       -0.18165020793565        0.07476271839912
C           -5.10481985777093       -1.12781665074498        0.74397162110840
C           -6.49232983611645       -1.04072767285520        0.69048887231836
C           -7.13360545150178       -0.00597065370969       -0.00746545697261
C           -6.32819132176108        0.93576915557135       -0.66545091401086
C           -4.94023725323236        0.84858065897661       -0.63619828018712
O           -6.86750449911650        1.95947532982945       -1.36139689526434
C           -8.21304533623026        2.20154785170339       -1.35395018968631
C           -8.59395766975342        3.36008239912803       -2.03241498556604
C           -9.91315820938335        3.74319305691524       -2.06193160145351
C          -10.89759711583089        2.99699710959237       -1.40499741090692
C          -12.34015032346330        3.48114213300777       -1.43174525428988
C          -12.82275276932728        3.53078063741401       -2.88902078055680
C          -12.40836255290915        4.88532687406925       -0.81286823695664
C          -13.28513316322964        2.56783299409518       -0.64532129553276
C          -10.49868621291833        1.84263596950067       -0.75878873119857
C           -9.17070699596094        1.38962438823511       -0.72299165856243
B           -8.65794395438973        0.09417110402257       -0.04722636546065
C           -9.36932074379574       -1.12121480538096        0.59616038064489
C          -10.74548862044328       -1.39487262576732        0.56229702254453
C          -11.32492721523307       -2.48847410331521        1.17660426343331
C          -12.81835785634575       -2.77733592680745        1.12724109104699
C          -13.37367517267507       -2.78853520861581        2.55923456445694
C          -13.59659858270284       -1.73271184640678        0.32168548098932
C          -13.04016613343179       -4.14904477266820        0.47260368711861
C          -10.48096096354565       -3.36165190136033        1.87142093896331
C           -9.12306867026263       -3.15494758168569        1.91222751605593
C           -8.55948300548290       -2.05312796028992        1.26717163794701
O           -7.19609307841330       -1.98750750743890        1.34778630882764
C           -2.26541556426134       -1.14892541411473       -0.72132251888442
C           -2.99291897620840       -1.97211591050909       -1.58539424617943
C           -2.35137886594430       -2.86321586128176       -2.42175996841311
C           -0.96978306405871       -2.95260167995168       -2.41908151690690
C           -0.24444356752445       -2.12969079806488       -1.57743727072813
C           -0.87009159924588       -1.22743633195298       -0.73094584383364
C            5.05798260010550       -1.12850429471721       -0.64078386622971
C            6.44714153120089       -1.05442693994484       -0.65460079765236
C            7.13139787387779       -0.02780382099768        0.01409336831989
O            7.10759650445984       -2.00457619683625       -1.35022827261217
H           12.87303864712481       -3.85859738722040       -3.29105081021482
H           12.74205329862870       -4.86886223833873       -1.83937787171689
H           14.25397152630781       -4.05323151134094       -2.21756380591512
H           12.73501800139073       -3.80152035131350        0.44875908587583
H           12.97948116200595       -2.06663796873712        0.62882869909821
H           14.29396093115914       -3.08105570660067        0.03663068140329
H           14.50534500223686       -1.64515189015851       -2.07868470619468
H           13.06916193223178       -1.32741574994667       -3.05631046143383
H           13.22924317371385       -0.60382141885911       -1.45735495288367
H           10.71480827053081       -4.24516053841907       -2.62487400440901
H            8.30631998612815       -3.85301843811862       -2.51537421020734
H           11.35637842169372       -0.76022059065601       -0.25409886049728
H           11.24389578633899        1.19287259436502        0.05218303269950
H           12.91322402919736        2.47578878218589        3.11519098375418
H           12.41310842232758        4.15941357277892        3.25902834629695
H           14.01743927288681        3.77149101314600        2.64410250952241
H           11.92176481291100        5.52126198965530        1.15718963127544
H           12.08571786217432        4.77190427788762       -0.42942611950605
H           13.52293451255473        5.14352543991163        0.52775777928912
H           13.36136872818159        1.47306483423072        0.83115810495266
H           13.00723720320330        2.40948180506248       -0.63538027342322
H           14.35449731665766        2.85966649708310        0.40291630698694
H           10.33496553427283        4.58557779880537        2.46986091258285
H            7.98082917784929        3.91209659099430        2.49814308515408
H            4.41394994381230        1.58495784320942        1.29535785963586
H            3.94621283352006        1.43037580735822       -1.68718218390972
H            2.70855404559719        2.89548292119626       -3.20067793321590
H            0.22888731366812        2.89178299133323       -3.18545585021651
H           -0.96514446793038        1.38565673079681       -1.64232268240737
H           -0.78883053057178       -2.15558296316667        1.88939301490183
H            0.55481180369041       -3.60543977133160        3.36503466088114
H            3.02762678883086       -3.44080719495610        3.30279463237215
H            4.11512252697610       -1.86934567556810        1.77824681560396
H            0.90373480758177        1.35215248565453        1.97017783050874
H           -0.33847932936049        2.83157152130517        3.50178179979415
H           -2.81733500654418        2.83060428764206        3.44515973351396
H           -4.00777006483971        1.38328929603243        1.87622817505242
H           -4.63468107864425       -1.92851216166666        1.29283980829608
H           -4.34325517044001        1.58449340113512       -1.15104489657125
H           -7.82926486407908        3.94782168774604       -2.51810169204748
H          -10.17543114773896        4.64493075126644       -2.59347655811128
H          -12.22486082483223        4.21741895182564       -3.48208890248474
H          -13.85892003415152        3.86029495243169       -2.92861748405746
H          -12.75686121513300        2.54321930745056       -3.34160649850188
H          -12.03894834348855        4.86398268296310        0.21070119477720
H          -11.81165058833963        5.59819328331300       -1.37518757669583
H          -13.43732058105871        5.23891640393989       -0.80107466737158
H          -14.29574070746136        2.96887331898145       -0.69065689274035
H          -12.99305265509241        2.51183039959508        0.40087408418471
H          -13.30395611228236        1.56679747778050       -1.06900448657242
H          -11.22713768356883        1.25333250720133       -0.23190924523395
H          -11.36250631650098       -0.71276797014493        0.00602604428538
H          -13.19995873797101       -1.82693669779387        3.03839397408243
H          -12.90248973932532       -3.55968764534202        3.16242324652147
H          -14.44504659707796       -2.97749958290496        2.54283958885739
H          -14.65309301035358       -1.99351638391976        0.31779640154823
H          -13.49787424457854       -0.74494216671104        0.76500110516721
H          -13.25549431579097       -1.70109589232846       -0.71058410444621
H          -12.56599177500627       -4.94335987653998        1.04247746926590
H          -14.10466330717258       -4.36531538666610        0.40948140916240
H          -12.62587451551960       -4.15759710088617       -0.53385478364920
H          -10.88563043022807       -4.22445127544604        2.37775341000283
H           -8.46798449771714       -3.84037315512161        2.42905734796169
H           -4.07007555012425       -1.90752766726848       -1.60082714517076
H           -2.93686529951120       -3.48928289992701       -3.07916698287925
H           -0.46275256010177       -3.64891120718634       -3.06966297417009
H            0.83517548499049       -2.17990120671950       -1.57324543885139
H            4.55531187986888       -1.92279685287318       -1.16963357046423

          :  Hamiltonian                  GFN2-xTB          :
         :: gradient norm              0.000049269365 Eh/a0 ::
         :: HOMO-LUMO gap              1.969071666227 eV    ::
         :: SCC energy              -228.211954990710 Eh    ::
         :: -> dispersion             -0.217314667767 Eh    ::
         :: -> Gsolv                  -0.083922637339 Eh    ::
         :: repulsion energy           3.761881334813 Eh    ::

    * Orbital Energies and Occupations

         #    Occupation            Energy/Eh            Energy/eV
      -------------------------------------------------------------
         1        2.0000           -0.7346157             -19.9899
       ...           ...                  ...                  ...
       196        2.0000           -0.3954228             -10.7600
       197        2.0000           -0.3947798             -10.7425
       198        2.0000           -0.3916273             -10.6567
       199        2.0000           -0.3909766             -10.6390
       200        2.0000           -0.3906278             -10.6295
       201        2.0000           -0.3901665             -10.6170
       202        2.0000           -0.3898919             -10.6095
       203        2.0000           -0.3854927             -10.4898
       204        2.0000           -0.3852410             -10.4829
       205        2.0000           -0.3710529             -10.0969
       206        2.0000           -0.3708437             -10.0912
       207        2.0000           -0.3476316              -9.4595
       208        2.0000           -0.3474284              -9.4540 (HOMO)
       209                         -0.2750663              -7.4849 (LUMO)
       210                         -0.2746075              -7.4725
       211                         -0.2378058              -6.4710
       212                         -0.2376356              -6.4664
       213                         -0.2346343              -6.3847
       214                         -0.2345946              -6.3836
       215                         -0.2337352              -6.3603
       216                         -0.2226960              -6.0599
       217                         -0.2222148              -6.0468
       218                         -0.2218684              -6.0373
       219                         -0.2207968              -6.0082
       ...                                ...                  ...
       408                          0.6940335              18.8856
      -------------------------------------------------------------
                  HL-Gap            0.0723621 Eh            1.9691 eV

     #   Z          covCN         q      C6AA      α(0)
     1   6 C        3.761    -0.109    22.628     6.781
     2   6 C        3.902     0.026    20.087     6.371
     3   6 C        3.761    -0.107    22.591     6.776
     4   6 C        3.761    -0.108    22.605     6.778
     5   6 C        2.969     0.003    27.954     8.672
     6   6 C        2.925    -0.035    28.877     8.813
     7   6 C        2.913    -0.056    29.398     8.891
     8   6 C        2.877     0.132    25.117     8.216
     9   6 C        2.881    -0.091    30.292     9.023
    10   6 C        2.933    -0.040    28.982     8.829
    11   5 B        2.723     0.213    18.195     7.148
    12   6 C        2.882    -0.092    30.302     9.024
    13   6 C        2.930    -0.044    29.087     8.845
    14   6 C        2.968     0.003    27.957     8.673
    15   6 C        3.902     0.026    20.088     6.371
    16   6 C        3.761    -0.107    22.585     6.775
    17   6 C        3.761    -0.107    22.586     6.775
    18   6 C        3.761    -0.109    22.625     6.781
    19   6 C        2.928    -0.031    28.768     8.796
    20   6 C        2.913    -0.056    29.385     8.889
    21   6 C        2.877     0.132    25.107     8.214
    22   8 O        1.711    -0.234    17.880     5.709
    23   6 C        2.874     0.140    24.945     8.187
    24   6 C        2.916    -0.080    29.989     8.980
    25   6 C        2.928     0.073    26.371     8.422
    26   7 N        2.754    -0.073    22.651     7.069
    27   6 C        2.926     0.061    26.634     8.463
    28   6 C        2.924    -0.059    29.466     8.902
    29   6 C        2.920    -0.034    28.849     8.808
    30   6 C        2.917    -0.045    29.122     8.849
    31   6 C        2.927    -0.036    28.908     8.817
    32   6 C        2.988    -0.012    28.305     8.727
    33   6 C        3.928     0.017    20.224     6.391
    34   6 C        2.987    -0.012    28.303     8.727
    35   6 C        2.926    -0.036    28.893     8.815
    36   6 C        2.917    -0.045    29.117     8.849
    37   6 C        2.920    -0.034    28.847     8.808
    38   6 C        2.923    -0.059    29.469     8.902
    39   6 C        2.925     0.061    26.637     8.464
    40   6 C        2.988    -0.012    28.305     8.727
    41   6 C        2.926    -0.036    28.904     8.817
    42   6 C        2.917    -0.045    29.120     8.849
    43   6 C        2.920    -0.034    28.848     8.808
    44   6 C        2.924    -0.059    29.465     8.902
    45   6 C        2.926     0.061    26.635     8.463
    46   7 N        2.754    -0.073    22.654     7.069
    47   6 C        2.928     0.073    26.374     8.422
    48   6 C        2.915    -0.080    29.992     8.980
    49   6 C        2.873     0.140    24.946     8.188
    50   6 C        2.887    -0.125    31.187     9.156
    51   6 C        2.874     0.140    24.944     8.187
    52   6 C        2.916    -0.080    29.988     8.980
    53   8 O        1.711    -0.235    17.887     5.710
    54   6 C        2.877     0.132    25.111     8.215
    55   6 C        2.913    -0.056    29.388     8.889
    56   6 C        2.928    -0.031    28.770     8.796
    57   6 C        2.968     0.003    27.954     8.672
    58   6 C        3.902     0.026    20.088     6.371
    59   6 C        3.761    -0.107    22.586     6.775
    60   6 C        3.761    -0.107    22.584     6.775
    61   6 C        3.761    -0.110    22.653     6.785
    62   6 C        2.930    -0.044    29.099     8.847
    63   6 C        2.882    -0.092    30.299     9.024
    64   5 B        2.723     0.213    18.201     7.149
    65   6 C        2.882    -0.092    30.299     9.024
    66   6 C        2.930    -0.044    29.099     8.847
    67   6 C        2.968     0.003    27.954     8.672
    68   6 C        3.902     0.026    20.088     6.371
    69   6 C        3.761    -0.107    22.587     6.775
    70   6 C        3.761    -0.110    22.652     6.785
    71   6 C        3.761    -0.107    22.583     6.774
    72   6 C        2.928    -0.031    28.770     8.796
    73   6 C        2.912    -0.056    29.388     8.889
    74   6 C        2.876     0.132    25.111     8.215
    75   8 O        1.711    -0.235    17.889     5.711
    76   6 C        2.925     0.061    26.635     8.464
    77   6 C        2.923    -0.059    29.470     8.902
    78   6 C        2.920    -0.034    28.848     8.808
    79   6 C        2.917    -0.045    29.119     8.849
    80   6 C        2.927    -0.036    28.898     8.816
    81   6 C        2.988    -0.012    28.305     8.727
    82   6 C        2.915    -0.080    29.990     8.980
    83   6 C        2.873     0.140    24.941     8.187
    84   6 C        2.887    -0.125    31.189     9.156
    85   8 O        1.711    -0.235    17.890     5.711
    86   1 H        0.925     0.036     2.497     2.471
    87   1 H        0.925     0.036     2.503     2.474
    88   1 H        0.925     0.039     2.461     2.453
    89   1 H        0.925     0.033     2.548     2.496
    90   1 H        0.925     0.039     2.464     2.455
    91   1 H        0.925     0.041     2.436     2.441
    92   1 H        0.925     0.041     2.439     2.442
    93   1 H        0.925     0.033     2.538     2.491
    94   1 H        0.925     0.041     2.439     2.442
    95   1 H        0.926     0.048     2.344     2.394
    96   1 H        0.926     0.041     2.440     2.442
    97   1 H        0.926     0.049     2.334     2.389
    98   1 H        0.926     0.054     2.272     2.357
    99   1 H        0.925     0.034     2.528     2.486
   100   1 H        0.925     0.037     2.493     2.469
   101   1 H        0.925     0.041     2.439     2.442
   102   1 H        0.925     0.037     2.493     2.469
   103   1 H        0.925     0.034     2.535     2.490
   104   1 H        0.925     0.041     2.442     2.444
   105   1 H        0.925     0.038     2.482     2.464
   106   1 H        0.925     0.038     2.473     2.459
   107   1 H        0.925     0.040     2.451     2.448
   108   1 H        0.926     0.042     2.428     2.437
   109   1 H        0.926     0.041     2.435     2.440
   110   1 H        0.926     0.051     2.303     2.373
   111   1 H        0.926     0.026     2.645     2.543
   112   1 H        0.926     0.031     2.576     2.510
   113   1 H        0.926     0.028     2.611     2.527
   114   1 H        0.926     0.024     2.676     2.558
   115   1 H        0.926     0.024     2.680     2.560
   116   1 H        0.926     0.028     2.610     2.526
   117   1 H        0.926     0.031     2.577     2.510
   118   1 H        0.926     0.026     2.644     2.543
   119   1 H        0.926     0.024     2.676     2.558
   120   1 H        0.926     0.028     2.610     2.526
   121   1 H        0.926     0.031     2.576     2.510
   122   1 H        0.926     0.026     2.646     2.544
   123   1 H        0.926     0.052     2.298     2.371
   124   1 H        0.926     0.051     2.308     2.376
   125   1 H        0.926     0.041     2.441     2.443
   126   1 H        0.926     0.041     2.432     2.439
   127   1 H        0.925     0.036     2.497     2.471
   128   1 H        0.925     0.041     2.440     2.443
   129   1 H        0.925     0.034     2.523     2.484
   130   1 H        0.925     0.033     2.539     2.492
   131   1 H        0.925     0.037     2.496     2.471
   132   1 H        0.925     0.040     2.445     2.445
   133   1 H        0.925     0.040     2.454     2.450
   134   1 H        0.925     0.038     2.479     2.462
   135   1 H        0.925     0.040     2.446     2.446
   136   1 H        0.926     0.056     2.246     2.344
   137   1 H        0.926     0.056     2.246     2.343
   138   1 H        0.925     0.034     2.523     2.484
   139   1 H        0.925     0.037     2.496     2.471
   140   1 H        0.925     0.041     2.441     2.443
   141   1 H        0.925     0.040     2.453     2.449
   142   1 H        0.925     0.040     2.446     2.446
   143   1 H        0.925     0.038     2.480     2.463
   144   1 H        0.925     0.036     2.496     2.471
   145   1 H        0.925     0.040     2.444     2.445
   146   1 H        0.925     0.033     2.539     2.492
   147   1 H        0.926     0.041     2.432     2.439
   148   1 H        0.926     0.041     2.440     2.443
   149   1 H        0.926     0.026     2.642     2.542
   150   1 H        0.926     0.031     2.577     2.510
   151   1 H        0.926     0.028     2.611     2.527
   152   1 H        0.926     0.024     2.680     2.560
   153   1 H        0.926     0.052     2.300     2.372

molecular dipole:
                 x           y           z       tot (Debye)
 q only:       -0.017       0.293      -0.104
   full:       -0.010       0.273      -0.085       0.726

 projected vibrational frequencies (cm⁻¹)
eigval :       -0.00    -0.00    -0.00     0.00     0.00     0.00
eigval :        3.21     4.38     9.15    10.79    15.61    15.81
eigval :       23.07    23.35    24.95    27.02    29.63    34.22
eigval :       38.44    40.89    48.40    49.55    50.89    58.47
eigval :       62.49    69.10    70.68    73.50    79.89    81.65
eigval :       91.96    94.22   104.98   108.93   110.51   116.14
eigval :      117.84   124.85   130.18   135.04   136.59   139.30
eigval :      140.22   168.16   171.54   175.29   178.55   180.39
eigval :      205.96   209.07   210.57   211.74   216.50   216.64
eigval :      219.62   221.66   223.23   224.08   229.73   232.95
eigval :      237.02   241.75   243.93   259.26   263.21   263.85
eigval :      267.91   269.27   272.88   282.32   284.70   291.21
eigval :      292.28   294.66   313.04   315.84   317.22   318.66
eigval :      320.85   322.65   329.06   330.84   331.50   353.84
eigval :      357.36   360.35   361.59   365.07   365.14   365.65
eigval :      374.75   384.20   384.93   385.26   385.75   392.26
eigval :      392.59   401.85   404.58   415.44   416.74   421.38
eigval :      429.39   433.11   435.03   435.96   436.29   436.98
eigval :      438.32   445.11   449.26   451.95   453.65   454.67
eigval :      476.87   479.32   485.91   492.57   494.48   502.94
eigval :      505.16   507.68   509.05   517.10   517.24   518.05
eigval :      518.56   531.85   554.18   555.52   570.34   570.90
eigval :      581.07   581.34   590.62   597.24   598.15   598.94
eigval :      599.10   610.04   618.91   620.36   630.17   645.06
eigval :      645.20   651.41   653.38   654.67   656.48   660.22
eigval :      667.66   686.00   688.94   689.07   691.84   694.30
eigval :      695.18   695.45   698.78   703.28   703.83   711.15
eigval :      716.71   717.36   728.67   728.97   770.92   771.81
eigval :      772.59   780.10   796.63   807.62   824.57   826.85
eigval :      827.55   828.05   828.08   829.59   830.24   831.72
eigval :      849.59   852.11   858.07   859.85   862.87   863.12
eigval :      863.54   864.23   872.80   873.08   873.86   873.95
eigval :      874.81   882.25   891.46   892.04   896.03   896.46
eigval :      900.77   906.69   907.68   907.96   908.77   915.78
eigval :      919.90   920.48   920.56   921.20   921.76   921.99
eigval :      923.12   939.12   939.85   945.91   946.45   959.20
eigval :      959.70   959.86   960.13   960.24   960.40   960.86
eigval :      963.05   963.13   963.28   963.72   964.04   967.01
eigval :      968.88  1019.21  1026.67  1033.89  1033.92  1035.00
eigval :     1035.09  1035.33  1035.41  1036.15  1036.21  1074.91
eigval :     1075.23  1081.91  1082.32  1097.97  1104.28  1105.63
eigval :     1107.10  1107.16  1121.90  1122.93  1123.34  1130.51
eigval :     1130.94  1137.28  1138.55  1138.63  1139.78  1163.03
eigval :     1170.84  1176.79  1177.08  1177.43  1179.69  1181.68
eigval :     1182.40  1182.78  1184.98  1188.99  1208.99  1212.29
eigval :     1212.74  1214.99  1217.09  1225.70  1225.95  1226.17
eigval :     1226.28  1228.56  1228.69  1230.21  1230.84  1230.95
eigval :     1231.42  1239.03  1240.97  1246.16  1247.89  1249.69
eigval :     1251.71  1263.26  1263.74  1268.01  1268.56  1270.98
eigval :     1273.49  1278.41  1279.55  1291.28  1292.01  1293.89
eigval :     1294.78  1323.75  1326.51  1326.60  1330.07  1331.84
eigval :     1332.26  1333.46  1334.66  1334.92  1336.01  1336.12
eigval :     1336.16  1347.10  1348.03  1395.59  1395.71  1396.90
eigval :     1397.90  1397.92  1398.34  1402.84  1402.88  1403.46
eigval :     1403.92  1406.63  1406.68  1408.35  1409.02  1426.71
eigval :     1427.05  1427.31  1428.29  1434.52  1436.59  1436.97
eigval :     1437.10  1442.27  1443.00  1445.54  1445.64  1460.53
eigval :     1461.51  1478.01  1478.18  1487.77  1488.94  1488.97
eigval :     1489.13  1490.64  1490.71  1490.97  1490.98  1491.25
eigval :     1494.07  1496.40  1496.73  1497.67  1499.28  1501.20
eigval :     1501.94  1502.22  1502.23  1510.32  1510.75  1511.05
eigval :     1511.07  1514.57  1516.18  1517.06  1518.31  1534.57
eigval :     1535.28  1544.52  1545.11  1547.76  1548.11  1571.52
eigval :     1572.40  1572.67  1572.72  1584.43  1589.28  1589.33
eigval :     1590.64  1592.04  1594.37  1597.17  1597.84  1601.44
eigval :     1602.96  3020.69  3021.06  3021.10  3021.36  3021.81
eigval :     3021.91  3022.01  3022.21  3025.17  3025.29  3025.36
eigval :     3025.38  3026.40  3026.55  3026.55  3026.90  3028.74
eigval :     3028.85  3028.90  3029.36  3031.77  3032.88  3033.17
eigval :     3033.66  3036.84  3037.71  3038.42  3039.83  3044.67
eigval :     3045.12  3045.59  3046.84  3048.19  3048.28  3048.33
eigval :     3054.14  3070.62  3072.74  3073.65  3073.76  3074.19
eigval :     3074.84  3076.17  3076.60  3081.72  3082.01  3082.17
eigval :     3084.04  3088.54  3089.47  3089.68  3090.11  3093.78
eigval :     3094.19  3094.20  3096.60  3097.09  3097.98  3098.88
eigval :     3105.92  3106.63  3107.94  3108.09  3115.93  3120.10
eigval :     3144.79  3147.93  3149.94

   temp. (K)  partition function   enthalpy   heat capacity  entropy
                                   cal/mol     cal/K/mol   cal/K/mol   J/K/mol
 298.15  VIB  0.176E+37            45416.535    281.289    283.763
         ROT  0.590E+09              888.752      2.981     43.115
         INT  0.104E+46            46305.287    284.269    326.878
         TR   0.356E+29             1481.254      4.968     46.863
         TOT                       47786.5414   289.2375   373.7409  1563.7318

       T/K    H(0)-H(T)+PV         H(T)/Eh          T*S/Eh         G(T)/Eh
   ------------------------------------------------------------------------
    298.15    0.761527E-01    0.130120E+01    0.177576E+00    0.112363E+01
   ------------------------------------------------------------------------

         :::::::::::::::::::::::::::::::::::::::::::::::::::::
         ::                  THERMODYNAMIC                  ::
         :::::::::::::::::::::::::::::::::::::::::::::::::::::
         :: total free energy        -223.326446496253 Eh   ::
         ::.................................................::
         :: total energy             -224.450073656775 Eh   ::
         :: zero point energy           1.225050810806 Eh   ::
         :: G(RRHO) w/o ZPVE           -0.101423650284 Eh   ::
         :: G(RRHO) contrib.            1.123627160522 Eh   ::
         :::::::::::::::::::::::::::::::::::::::::::::::::::::

           -------------------------------------------------
          | TOTAL ENERGY             -224.450073656775 Eh   |
          | TOTAL ENTHALPY           -223.148870144986 Eh   |
          | TOTAL FREE ENERGY        -223.326446496253 Eh   |
          | GRADIENT NORM               0.000049266000 Eh/α |
          | HOMO-LUMO GAP               1.969072987896 eV   |
           -------------------------------------------------

 * finished run on 2025/08/22 at 22:09:42.026
