   * xtb version 6.7.1 (edcfbbe) compiled by 'albert@albert-system' on 2024-07-22

   ID    Z sym.   atoms
    1    6 C      1-10, 12-21, 23-25, 27-45, 47-52, 54-63, 65-74, 76-84
    2    5 B      11, 64
    3    8 O      22, 53, 75, 85
    4    7 N      26, 46
    5    1 H      86-153

          program call               : xtb data2507/toluene/2TDBA-SBA/2TDBA-SBA_toluene_T1_crest.xyz --gfn 2 --uhf 2 --gbsa toluene --ohess vtight --parallel 40 --molden --ceasefiles --namespace data2507/toluene/2TDBA-SBA/2TDBA-SBA_toluene_T1_finalOpt
      * Solvation model:               GBSA
        Solvent                        toluene
        Solvent mass                       9.2140E+01 g/mol
          :  Hamiltonian                  GFN2-xTB          :
 * total energy  :  -224.3616672 Eh     change       -0.3452058E-07 Eh
 * total energy  :  -224.3617740 Eh     change       -0.1067183E-03 Eh
 * total energy  :  -224.3618254 Eh     change       -0.5147162E-04 Eh
 * total energy  :  -224.3618489 Eh     change       -0.2343249E-04 Eh
 * total energy  :  -224.3618684 Eh     change       -0.1958069E-04 Eh
 * total energy  :  -224.3618911 Eh     change       -0.2267041E-04 Eh
 * total energy  :  -224.3618995 Eh     change       -0.8424160E-05 Eh
 * total energy  :  -224.3619035 Eh     change       -0.3985353E-05 Eh
 * total energy  :  -224.3619116 Eh     change       -0.8054406E-05 Eh
 * total energy  :  -224.3619173 Eh     change       -0.5728164E-05 Eh
 * total energy  :  -224.3622634 Eh     change       -0.2439257E-06 Eh
 * total energy  :  -224.3622636 Eh     change       -0.1980973E-06 Eh
 * total energy  :  -224.3622639 Eh     change       -0.3266364E-06 Eh
 * total energy  :  -224.3622642 Eh     change       -0.3037456E-06 Eh
 * total energy  :  -224.3622645 Eh     change       -0.3594309E-06 Eh
 * total energy  :  -224.3622649 Eh     change       -0.3963487E-06 Eh
 * total energy  :  -224.3622654 Eh     change       -0.4735715E-06 Eh
 * total energy  :  -224.3622659 Eh     change       -0.5208088E-06 Eh
 * total energy  :  -224.3622660 Eh     change       -0.4580872E-07 Eh
   *** GEOMETRY OPTIMIZATION CONVERGED AFTER 185 ITERATIONS ***

 final structure:
================
153
 xtb: 6.7.1 (edcfbbe)
C           12.89321090960958       -2.64414832799768       -3.51659595130440
C           12.67062975209032       -2.57537382461586       -1.99809411782627
C           13.13856821028876       -3.88495110060113       -1.34540984136352
C           13.52838223824037       -1.43384796687814       -1.44405375082158
C           11.18593759667296       -2.38829411451213       -1.72127230880681
C           10.28004527473635       -3.34753679275232       -2.18147082537952
C            8.92641906385164       -3.19800065417944       -1.96526038355118
C            8.44175773733294       -2.09318170338377       -1.27094416394380
C            9.31391593788899       -1.11414310476594       -0.75251424579961
C           10.67808277736695       -1.30417302458047       -1.02485862996047
B            8.67950972098881        0.05514209146072        0.04053583279398
C            9.26990898997928        1.24543885817964        0.83636047930750
C           10.62545103597171        1.48183979196808        1.11546653622204
C           11.09270607463968        2.58308610507950        1.81343824067394
C           12.56879361945611        2.82099991084386        2.09717698907998
C           12.78162901750904        2.89720896949277        3.61671329580433
C           12.99462557158282        4.14599621840041        1.44672746303509
C           13.46775677993155        1.70963497137751        1.54720579571389
C           10.15243800796602        3.51107598634925        2.26872371632509
C            8.80578096650029        3.31559978420732        2.04570449996157
C            8.36245592035185        2.19477523521719        1.34941261076985
O            6.99980460638319        2.11635850893711        1.22658823209324
C            6.40012504693778        1.05683921638889        0.62899751348585
C            5.01105054677831        1.04368850395113        0.63072245410060
C            4.34070434961381       -0.01569206590944        0.02488086120900
N            2.91604493740877       -0.03643383212746        0.01834027766345
C            2.23875977421901        0.76370860397359       -0.88164498972769
C            2.94883317390689        1.55200300688462       -1.79739475254682
C            2.28606810093132        2.36613429371526       -2.68990077688332
C            0.89954197442695        2.41191334743506       -2.69865511787734
C            0.19093749326491        1.62137910280372       -1.81306470571702
C            0.83857865840410        0.79542269391231       -0.90700682872463
C           -0.00258435035989       -0.05676108858786        0.02129161506823
C            0.85235349543349       -0.90977554474700        0.93554825812655
C            0.21735437659389       -1.75433440804864        1.83339391675890
C            0.93819084441607       -2.54223741119709        2.71144630679247
C            2.32382334900254       -2.47400969746750        2.70405277779416
C            2.97408419819521       -1.64084697496573        1.81987817231416
C            2.25192972614293       -0.85544914239465        0.91116283983648
C           -0.84124312950441        0.86250707214047        0.88614108769589
C           -0.19270915113698        1.74636902068497        1.73505188412371
C           -0.90087564006245        2.61076773542511        2.54931613105475
C           -2.28775255165949        2.59348382143680        2.51600970128481
C           -2.95156811862086        1.72365414015912        1.67849401561411
C           -2.24139523962574        0.84425940336300        0.85034682607827
N           -2.91989983753067       -0.02338225258497        0.01785026715128
C           -4.34608688527706        0.00448118497207        0.00577856576712
C           -5.05860157353666       -0.81462053571543        0.87707773330213
C           -6.44728674262759       -0.77715040901740        0.85729111613720
C           -7.15474678198278        0.06947822759430       -0.01260503520747
C           -6.39767777630053        0.88106403283699       -0.87400980117155
C           -5.00864806750783        0.85407597051356       -0.87554786655453
O           -6.99432739706105        1.72684639399404       -1.75100323301978
C           -8.35263654791077        1.91269406845894       -1.75658521403274
C           -8.79189190914623        2.88721653569083       -2.64791060899497
C          -10.13163722314094        3.20437947961702       -2.72883948182567
C          -11.06736844471586        2.57014105597150       -1.90722893255450
C          -12.53177076158068        2.97330809436661       -2.00077995217205
C          -13.03542634094816        2.69919424751841       -3.42591910750827
C          -12.65990337157223        4.47119334904400       -1.68409984728638
C          -13.42454839403217        2.20324925285006       -1.02315062023727
C          -10.60615181793859        1.59329134676220       -1.04067358887553
C           -9.26040260165586        1.20621086847888       -0.94181699897743
B           -8.67960220404426        0.10720597776364       -0.02032120396182
C           -9.32343782636118       -0.96137778713388        0.89504317949013
C          -10.68782338398391       -1.28019364423630        0.98139210876424
C          -11.20542489025273       -2.23412194023806        1.84163626713388
C          -12.68929259651997       -2.56215069109241        1.92200205330319
C          -13.18906399278290       -2.27267995181021        3.34549184317749
C          -13.53430496271092       -1.74041930658123        0.94395015274368
C          -12.89195405314970       -4.04914418893198        1.59328842997997
C          -10.31001614197220       -2.91698863756126        2.66922410599096
C           -8.95547338893781       -2.66678266951032        2.60151403224806
C           -8.45980743485658       -1.71322509553387        1.71715011136069
O           -7.09402000812584       -1.59425418014738        1.72595169602220
C           -2.25964302895834       -0.91682141035190       -0.80179404129565
C           -2.98780699029500       -1.78756941719902       -1.62338468122874
C           -2.34185286775169       -2.68419047359670       -2.44653821772998
C           -0.95567677792348       -2.73764920476424       -2.47138817340323
C           -0.22982151912552       -1.88124317568213       -1.66424385528681
C           -0.86018771883801       -0.97090450205944       -0.82975760496693
C            5.04948422262440       -1.05296920567776       -0.57547599104756
C            6.43824917477421       -1.02135469125353       -0.56265528438663
C            7.15377053550594        0.02964378343048        0.03596826724315
O            7.07657053328735       -2.06068287300558       -1.15570568713315
H           12.54060737762130       -1.72949876820582       -3.98961056396896
H           12.36233843458376       -3.48265667459062       -3.95882774935976
H           13.95315240207817       -2.75960310570743       -3.73426094387515
H           12.60582252537729       -4.74162579342194       -1.74911192251481
H           12.96637702080487       -3.85191563658343       -0.27121259177268
H           14.20247569828770       -4.03147649665374       -1.52085915809538
H           14.57464737296034       -1.62069032840660       -1.67854419450065
H           13.24881357619301       -0.48282787513989       -1.89162452597779
H           13.43490029634259       -1.36356448405412       -0.36309405806627
H           10.62343889676107       -4.21630702448698       -2.72152194448522
H            8.21968056211043       -3.92713121256221       -2.33389433371723
H           11.35354639842430       -0.54604847103512       -0.67313621231887
H           11.32806755094433        0.74692199507425        0.76770358322456
H           12.45779890790877        1.97113770696127        4.08807980382856
H           12.22054352206359        3.71724869217783        4.05627946418735
H           13.83598552543545        3.04836456717101        3.83954726895300
H           12.43074038031777        4.98371542883141        1.84787201682431
H           12.82894040660906        4.10731600410031        0.37169260446685
H           14.05198601196220        4.32897246641339        1.62740524297892
H           13.21974985899582        0.74969678656579        1.99435868803861
H           13.38086653052116        1.63555802776271        0.46595417648095
H           14.50601819002278        1.93281701677856        1.78546992055763
H           10.46350810522081        4.39103225529825        2.81024848318881
H            8.07270329127234        4.02041323810639        2.41017209378031
H            4.46674232220510        1.85037881587785        1.09607040914112
H            4.02663840009820        1.51569952194676       -1.80177076353770
H            2.85438625719112        2.96698149772036       -3.38367893051864
H            0.37716653337711        3.05151818774426       -3.39294113461271
H           -0.88875547170904        1.64046004776496       -1.81972594205088
H           -0.86206967073890       -1.78965799025412        1.83945269415021
H            0.42592780982732       -3.19665694630494        3.39942466971844
H            2.90132953889777       -3.07239546313290        3.39235227038697
H            4.05115834312944       -1.58748892168918        1.82534294667583
H            0.88704649406033        1.75177413228698        1.75465752140068
H           -0.37761456757787        3.29110355070549        3.20305742589913
H           -2.85517093005949        3.26138372698702        3.14632530512008
H           -4.02983051348469        1.71367046823520        1.65672299219630
H           -4.54746472994265       -1.47333914589680        1.56140488280738
H           -4.45910644809743        1.48931654277459       -1.55218129228689
H           -8.06195602961166        3.39177546493720       -3.26397707856244
H          -10.44022313190127        3.96314994231178       -3.43128129516031
H          -12.47522838782084        3.27066605610076       -4.16097493848044
H          -14.08563476541749        2.97120058229821       -3.51078779852937
H          -12.93132849875231        1.64239297023978       -3.66458019321096
H          -12.28133095137441        4.67748561724305       -0.68464962856843
H          -12.09995297270711        5.07654880950797       -2.39158070424182
H          -13.70395344116567        4.77487564111301       -1.72802937229583
H          -14.45384661122681        2.54032720258328       -1.13052912249286
H          -13.11898584156224        2.37888479202756        0.00585449872998
H          -13.39883045443709        1.13580564721190       -1.22822737138690
H          -11.30134716812405        1.09984573342265       -0.38579593874571
H          -11.35144176033020       -0.75100362377142        0.32168598340980
H          -13.03205554187321       -1.22454235723913        3.59320014709278
H          -12.66536820733741       -2.87800504307052        4.08034389618717
H          -14.25266731940793       -2.49012501317518        3.42033160295683
H          -14.58035387401722       -2.02439060785214        1.04263910466650
H          -13.45440933667672       -0.67707100801813        1.15629723746751
H          -13.23169543190819       -1.92523754351614       -0.08432056699778
H          -12.36591221804959       -4.68744137844053        2.29785280386296
H          -13.95021758154014       -4.29983583350887        1.63135568560646
H          -12.52069903087128       -4.26661410985851        0.59348230714505
H          -10.66215863917750       -3.66189138543974        3.36597927150884
H           -8.25746012607989       -3.20853343634584        3.22300289514706
H           -4.06561832924284       -1.74991884186801       -1.60729795873926
H           -2.92264470082618       -3.34526837222131       -3.07184904298918
H           -0.44664259686222       -3.43931010641301       -3.11372432952885
H            0.84964986564558       -1.91366896897717       -1.67785933635696
H            4.53471833955952       -1.87576872260811       -1.04627455806091

          :  Hamiltonian                  GFN2-xTB          :
         :: gradient norm              0.000094268343 Eh/a0 ::
         :: HOMO-LUMO gap              0.000981527576 eV    ::
         :: SCC energy              -228.108435641558 Eh    ::
         :: -> dispersion             -0.217005826928 Eh    ::
         :: -> Gsolv                  -0.084653859772 Eh    ::
         :: repulsion energy           3.746169655844 Eh    ::

    * Orbital Energies and Occupations

         #    Occupation            Energy/Eh            Energy/eV
      -------------------------------------------------------------
         1        2.0000           -0.7254240             -19.7398
       ...           ...                  ...                  ...
       197        2.0000           -0.3915012             -10.6533
       198        2.0000           -0.3911517             -10.6438
       199        2.0000           -0.3844315             -10.4609
       200        2.0000           -0.3840786             -10.4513
       201        2.0000           -0.3797338             -10.3331
       202        2.0000           -0.3793692             -10.3232
       203        2.0000           -0.3766216             -10.2484
       204        2.0000           -0.3764363             -10.2434
       205        1.7985           -0.3645001              -9.9186
       206        1.7897           -0.3644491              -9.9172
       207        1.7390           -0.3641807              -9.9099
       208        1.6728           -0.3638766              -9.9016
       209        0.5048           -0.2640577              -7.1854 (HOMO)
       210        0.4952           -0.2640211              -7.1844 (LUMO)
       211        0.0000           -0.2507296              -6.8227
       212                         -0.2380171              -6.4768
       213                         -0.2357097              -6.4140
       214                         -0.2355712              -6.4102
       215                         -0.2340167              -6.3679
       216                         -0.2311980              -6.2912
       217                         -0.2303108              -6.2671
       218                         -0.2280686              -6.2061
       219                         -0.2276967              -6.1959
       220                         -0.2275432              -6.1918
       ...                                ...                  ...
       408                          0.7036748              19.1480
      -------------------------------------------------------------
                  HL-Gap            0.0000366 Eh            0.0010 eV

     #   Z          covCN         q      C6AA      α(0)
     1   6 C        3.761    -0.105    22.551     6.769
     2   6 C        3.902     0.025    20.101     6.373
     3   6 C        3.761    -0.105    22.551     6.770
     4   6 C        3.761    -0.107    22.600     6.777
     5   6 C        2.968     0.001    27.991     8.678
     6   6 C        2.926    -0.041    29.012     8.833
     7   6 C        2.912    -0.061    29.518     8.909
     8   6 C        2.875     0.129    25.178     8.226
     9   6 C        2.880    -0.092    30.296     9.023
    10   6 C        2.930    -0.053    29.311     8.879
    11   5 B        2.722     0.178    18.702     7.247
    12   6 C        2.880    -0.092    30.296     9.023
    13   6 C        2.930    -0.053    29.311     8.879
    14   6 C        2.968     0.001    27.991     8.678
    15   6 C        3.902     0.025    20.101     6.373
    16   6 C        3.761    -0.105    22.551     6.769
    17   6 C        3.761    -0.105    22.552     6.770
    18   6 C        3.761    -0.107    22.600     6.777
    19   6 C        2.926    -0.041    29.011     8.833
    20   6 C        2.912    -0.061    29.517     8.909
    21   6 C        2.874     0.129    25.178     8.226
    22   8 O        1.711    -0.246    18.079     5.741
    23   6 C        2.872     0.133    25.095     8.212
    24   6 C        2.914    -0.078    29.939     8.972
    25   6 C        2.928     0.047    26.938     8.512
    26   7 N        2.753    -0.030    21.825     6.938
    27   6 C        2.926     0.062    26.605     8.459
    28   6 C        2.923    -0.049    29.218     8.864
    29   6 C        2.919    -0.028    28.690     8.784
    30   6 C        2.917    -0.034    28.841     8.807
    31   6 C        2.925    -0.032    28.801     8.801
    32   6 C        2.988    -0.004    28.119     8.698
    33   6 C        3.928     0.016    20.245     6.394
    34   6 C        2.987    -0.004    28.120     8.699
    35   6 C        2.925    -0.032    28.798     8.800
    36   6 C        2.917    -0.034    28.840     8.806
    37   6 C        2.919    -0.028    28.690     8.783
    38   6 C        2.922    -0.049    29.220     8.865
    39   6 C        2.926     0.062    26.606     8.459
    40   6 C        2.987    -0.004    28.124     8.699
    41   6 C        2.924    -0.032    28.802     8.801
    42   6 C        2.917    -0.034    28.844     8.807
    43   6 C        2.919    -0.028    28.689     8.783
    44   6 C        2.923    -0.049    29.219     8.864
    45   6 C        2.927     0.063    26.599     8.458
    46   7 N        2.754    -0.031    21.845     6.942
    47   6 C        2.929     0.048    26.931     8.511
    48   6 C        2.913    -0.078    29.942     8.973
    49   6 C        2.872     0.133    25.093     8.212
    50   6 C        2.886    -0.125    31.187     9.156
    51   6 C        2.872     0.133    25.092     8.211
    52   6 C        2.913    -0.078    29.941     8.973
    53   8 O        1.711    -0.247    18.091     5.743
    54   6 C        2.874     0.129    25.179     8.226
    55   6 C        2.912    -0.061    29.517     8.909
    56   6 C        2.926    -0.041    29.011     8.833
    57   6 C        2.968     0.001    27.993     8.678
    58   6 C        3.902     0.025    20.102     6.373
    59   6 C        3.761    -0.105    22.552     6.770
    60   6 C        3.761    -0.105    22.551     6.769
    61   6 C        3.761    -0.107    22.601     6.777
    62   6 C        2.930    -0.053    29.306     8.878
    63   6 C        2.880    -0.092    30.299     9.024
    64   5 B        2.723     0.179    18.690     7.244
    65   6 C        2.880    -0.092    30.299     9.024
    66   6 C        2.930    -0.053    29.306     8.878
    67   6 C        2.968     0.001    27.993     8.678
    68   6 C        3.902     0.025    20.102     6.373
    69   6 C        3.761    -0.105    22.552     6.770
    70   6 C        3.761    -0.107    22.601     6.777
    71   6 C        3.761    -0.105    22.551     6.769
    72   6 C        2.926    -0.041    29.010     8.833
    73   6 C        2.912    -0.061    29.517     8.909
    74   6 C        2.874     0.129    25.179     8.226
    75   8 O        1.711    -0.247    18.091     5.743
    76   6 C        2.927     0.062    26.600     8.458
    77   6 C        2.923    -0.049    29.218     8.864
    78   6 C        2.919    -0.028    28.689     8.783
    79   6 C        2.917    -0.034    28.843     8.807
    80   6 C        2.924    -0.032    28.799     8.801
    81   6 C        2.987    -0.004    28.124     8.699
    82   6 C        2.913    -0.078    29.941     8.973
    83   6 C        2.872     0.133    25.096     8.212
    84   6 C        2.885    -0.125    31.185     9.155
    85   8 O        1.711    -0.246    18.080     5.741
    86   1 H        0.925     0.032     2.553     2.499
    87   1 H        0.925     0.036     2.509     2.477
    88   1 H        0.925     0.039     2.466     2.456
    89   1 H        0.925     0.036     2.509     2.477
    90   1 H        0.925     0.033     2.546     2.495
    91   1 H        0.925     0.039     2.464     2.455
    92   1 H        0.925     0.038     2.482     2.464
    93   1 H        0.925     0.036     2.501     2.473
    94   1 H        0.925     0.038     2.475     2.460
    95   1 H        0.926     0.030     2.579     2.512
    96   1 H        0.926     0.032     2.564     2.504
    97   1 H        0.926     0.045     2.380     2.413
    98   1 H        0.926     0.045     2.380     2.413
    99   1 H        0.925     0.032     2.553     2.499
   100   1 H        0.925     0.036     2.509     2.477
   101   1 H        0.925     0.039     2.466     2.456
   102   1 H        0.925     0.036     2.509     2.477
   103   1 H        0.925     0.033     2.546     2.495
   104   1 H        0.925     0.039     2.464     2.455
   105   1 H        0.925     0.036     2.501     2.473
   106   1 H        0.925     0.038     2.475     2.460
   107   1 H        0.925     0.038     2.482     2.464
   108   1 H        0.926     0.030     2.579     2.511
   109   1 H        0.926     0.032     2.564     2.504
   110   1 H        0.926     0.048     2.346     2.395
   111   1 H        0.926     0.042     2.424     2.434
   112   1 H        0.926     0.044     2.400     2.422
   113   1 H        0.926     0.043     2.410     2.428
   114   1 H        0.926     0.036     2.497     2.471
   115   1 H        0.926     0.037     2.495     2.470
   116   1 H        0.926     0.043     2.410     2.427
   117   1 H        0.926     0.044     2.400     2.423
   118   1 H        0.926     0.042     2.423     2.434
   119   1 H        0.926     0.036     2.496     2.471
   120   1 H        0.926     0.043     2.411     2.428
   121   1 H        0.926     0.044     2.401     2.423
   122   1 H        0.926     0.041     2.433     2.439
   123   1 H        0.926     0.048     2.348     2.396
   124   1 H        0.926     0.048     2.351     2.398
   125   1 H        0.926     0.032     2.564     2.504
   126   1 H        0.926     0.031     2.578     2.511
   127   1 H        0.925     0.036     2.509     2.477
   128   1 H        0.925     0.039     2.464     2.455
   129   1 H        0.925     0.033     2.545     2.495
   130   1 H        0.925     0.032     2.555     2.500
   131   1 H        0.925     0.036     2.508     2.477
   132   1 H        0.925     0.039     2.467     2.456
   133   1 H        0.925     0.037     2.483     2.464
   134   1 H        0.925     0.036     2.503     2.474
   135   1 H        0.925     0.038     2.474     2.460
   136   1 H        0.926     0.045     2.383     2.414
   137   1 H        0.926     0.045     2.383     2.414
   138   1 H        0.925     0.033     2.545     2.495
   139   1 H        0.925     0.036     2.509     2.477
   140   1 H        0.925     0.039     2.464     2.455
   141   1 H        0.925     0.037     2.483     2.464
   142   1 H        0.925     0.038     2.474     2.460
   143   1 H        0.925     0.036     2.503     2.474
   144   1 H        0.925     0.036     2.508     2.477
   145   1 H        0.925     0.039     2.467     2.456
   146   1 H        0.925     0.032     2.554     2.499
   147   1 H        0.926     0.031     2.578     2.511
   148   1 H        0.926     0.032     2.564     2.504
   149   1 H        0.926     0.041     2.433     2.439
   150   1 H        0.926     0.044     2.401     2.423
   151   1 H        0.926     0.043     2.410     2.428
   152   1 H        0.926     0.037     2.495     2.470
   153   1 H        0.926     0.048     2.343     2.394

molecular dipole:
                 x           y           z       tot (Debye)
 q only:        0.043      -0.031       0.004
   full:        0.040      -0.036       0.004       0.137

 projected vibrational frequencies (cm⁻¹)
eigval :       -0.00    -0.00     0.00     0.00     0.00     0.00
eigval :        4.09     4.39     9.20    11.75    14.67    15.91
eigval :       18.63    24.67    27.70    30.16    30.82    31.61
eigval :       35.66    38.99    46.14    47.44    47.96    59.12
eigval :       64.07    68.46    69.68    74.69    79.06    84.80
eigval :       89.79    90.75   101.86   107.56   109.85   115.08
eigval :      116.32   119.34   130.59   136.48   137.34   138.96
eigval :      142.36   167.35   170.29   172.01   175.79   177.30
eigval :      205.69   208.46   209.53   211.49   216.04   216.70
eigval :      217.40   220.29   221.25   221.84   226.79   227.19
eigval :      232.51   241.21   243.66   253.94   255.99   256.84
eigval :      262.15   262.75   268.61   272.57   277.94   281.59
eigval :      286.86   289.93   315.12   315.93   317.60   319.22
eigval :      321.96   328.28   329.61   331.10   331.88   358.08
eigval :      358.21   358.59   362.39   362.86   362.99   363.51
eigval :      372.53   379.26   381.04   383.32   384.42   391.44
eigval :      391.78   401.45   403.50   411.25   412.98   419.15
eigval :      425.22   427.05   427.22   427.45   429.05   431.32
eigval :      434.04   442.13   446.87   450.93   453.73   454.50
eigval :      475.55   476.93   485.21   485.30   491.59   492.02
eigval :      493.45   503.82   514.66   515.23   515.54   516.13
eigval :      516.39   518.41   542.82   543.84   565.79   566.02
eigval :      577.48   577.89   586.60   593.85   594.56   595.66
eigval :      595.74   608.08   611.86   612.87   626.06   631.76
eigval :      633.12   643.22   643.41   647.79   652.61   658.17
eigval :      669.16   678.85   679.38   681.20   686.07   689.73
eigval :      692.97   693.44   696.51   697.93   698.76   706.96
eigval :      708.60   708.70   723.97   724.14   769.61   770.29
eigval :      771.25   777.58   789.27   804.61   809.95   812.70
eigval :      813.38   816.41   817.68   818.67   822.66   822.70
eigval :      843.17   844.79   846.68   848.91   850.74   855.69
eigval :      858.06   858.43   865.96   866.15   866.86   867.10
eigval :      870.67   871.31   886.42   887.35   894.27   894.52
eigval :      898.18   901.88   901.99   903.37   904.53   908.80
eigval :      909.52   909.94   910.46   922.09   922.42   923.48
eigval :      923.80   934.16   937.51   940.65   940.88   957.29
eigval :      958.03   958.04   959.48   960.14   960.72   961.02
eigval :      961.99   962.50   963.62   963.67   964.24   965.48
eigval :      966.59  1009.82  1013.30  1032.47  1033.41  1033.48
eigval :     1033.76  1034.75  1034.77  1035.23  1036.96  1056.05
eigval :     1056.91  1071.88  1076.67  1092.80  1098.46  1100.21
eigval :     1100.29  1102.10  1109.45  1121.58  1122.09  1125.19
eigval :     1126.02  1130.55  1130.73  1135.60  1136.34  1150.87
eigval :     1153.97  1166.83  1172.33  1172.85  1173.96  1178.72
eigval :     1179.11  1179.33  1179.77  1185.91  1195.47  1205.24
eigval :     1205.37  1205.63  1209.22  1222.77  1223.34  1223.72
eigval :     1224.01  1224.22  1224.30  1225.02  1226.73  1227.02
eigval :     1227.35  1230.70  1230.99  1233.80  1234.59  1242.40
eigval :     1243.56  1247.50  1250.36  1262.29  1262.96  1263.91
eigval :     1264.94  1278.22  1279.65  1285.65  1288.55  1291.07
eigval :     1292.17  1311.53  1313.05  1314.95  1315.44  1315.52
eigval :     1323.36  1328.64  1329.23  1329.48  1330.73  1333.06
eigval :     1334.52  1338.42  1340.31  1371.75  1372.86  1379.98
eigval :     1380.35  1392.07  1392.31  1400.61  1401.33  1401.41
eigval :     1402.13  1402.61  1403.05  1403.62  1404.23  1420.75
eigval :     1421.34  1424.01  1424.85  1425.42  1426.05  1426.32
eigval :     1427.18  1432.53  1433.60  1434.68  1436.61  1453.00
eigval :     1453.95  1454.46  1454.58  1467.33  1478.26  1487.98
eigval :     1488.18  1488.32  1488.54  1490.73  1490.86  1491.23
eigval :     1491.84  1492.25  1493.73  1497.13  1497.39  1498.34
eigval :     1499.32  1499.63  1501.05  1501.94  1502.24  1503.27
eigval :     1504.42  1509.63  1510.68  1511.03  1511.53  1515.22
eigval :     1516.00  1518.86  1520.77  1524.46  1527.55  1528.75
eigval :     1533.37  1549.95  1550.61  1554.78  1555.47  1559.82
eigval :     1565.15  1571.63  1576.34  1576.77  1577.95  1586.16
eigval :     1589.80  3018.63  3018.67  3018.92  3019.08  3019.57
eigval :     3019.65  3019.76  3019.81  3023.62  3023.71  3023.82
eigval :     3023.96  3024.63  3024.70  3024.83  3024.92  3026.78
eigval :     3027.02  3027.06  3027.26  3032.00  3032.62  3032.78
eigval :     3032.80  3036.90  3037.59  3037.75  3038.28  3043.38
eigval :     3043.51  3043.59  3043.88  3046.68  3046.80  3046.91
eigval :     3047.26  3075.73  3075.92  3076.13  3076.62  3083.69
eigval :     3084.12  3084.41  3084.65  3086.60  3086.80  3087.11
eigval :     3087.24  3088.92  3089.28  3089.32  3089.91  3099.61
eigval :     3099.91  3100.22  3100.44  3101.72  3102.28  3103.06
eigval :     3103.76  3107.39  3108.31  3108.88  3109.37  3142.04
eigval :     3147.15  3148.32  3154.94

   temp. (K)  partition function   enthalpy   heat capacity  entropy
                                   cal/mol     cal/K/mol   cal/K/mol   J/K/mol
 298.15  VIB  0.265E+37            45748.634    283.041    285.535
         ROT  0.593E+09              888.752      2.981     43.124
         INT  0.157E+46            46637.386    286.022    328.659
         TR   0.356E+29             1481.254      4.968     46.863
         TOT                       48118.6400   290.9898   375.5223  1571.1855

       T/K    H(0)-H(T)+PV         H(T)/Eh          T*S/Eh         G(T)/Eh
   ------------------------------------------------------------------------
    298.15    0.766819E-01    0.129681E+01    0.178423E+00    0.111839E+01
   ------------------------------------------------------------------------

         :::::::::::::::::::::::::::::::::::::::::::::::::::::
         ::                  THERMODYNAMIC                  ::
         :::::::::::::::::::::::::::::::::::::::::::::::::::::
         :: total free energy        -223.243876431708 Eh   ::
         ::.................................................::
         :: total energy             -224.362265987725 Eh   ::
         :: zero point energy           1.220130405453 Eh   ::
         :: G(RRHO) w/o ZPVE           -0.101740849436 Eh   ::
         :: G(RRHO) contrib.            1.118389556017 Eh   ::
         :::::::::::::::::::::::::::::::::::::::::::::::::::::

           -------------------------------------------------
          | TOTAL ENERGY             -224.362265987725 Eh   |
          | TOTAL ENTHALPY           -223.065453648349 Eh   |
          | TOTAL FREE ENERGY        -223.243876431708 Eh   |
          | GRADIENT NORM               0.000100165447 Eh/α |
          | HOMO-LUMO GAP               0.000996200216 eV   |
           -------------------------------------------------

 * finished run on 2025/08/22 at 23:07:26.742
