   * xtb version 6.7.1 (edcfbbe) compiled by 'albert@albert-system' on 2024-07-22

   ID    Z sym.   atoms
    1    6 C      1-10, 12-21, 23-25, 27-45, 47-52, 54-63, 65-74, 76-84
    2    5 B      11, 64
    3    8 O      22, 53, 75, 85
    4    7 N      26, 46
    5    1 H      86-153

          program call               : xtb data2507/toluene/2TDBA-SBA/2TDBA-SBA.xyz --gfn 2 --gbsa toluene --ohess vtight --parallel 40 --molden --ceasefiles --namespace data2507/toluene/2TDBA-SBA/2TDBA-SBA_toluene_S0_preOpt
      * Solvation model:               GBSA
        Solvent                        toluene
        Solvent mass                       9.2140E+01 g/mol
          :  Hamiltonian                  GFN2-xTB          :
 * total energy  :  -224.2529772 Eh     change       -0.9053394E-08 Eh
 * total energy  :  -224.3427678 Eh     change       -0.8979061E-01 Eh
 * total energy  :  -224.3820471 Eh     change       -0.3927931E-01 Eh
 * total energy  :  -224.3990024 Eh     change       -0.1695526E-01 Eh
 * total energy  :  -224.4088430 Eh     change       -0.9840612E-02 Eh
 * total energy  :  -224.4155189 Eh     change       -0.6675894E-02 Eh
 * total energy  :  -224.4206970 Eh     change       -0.5178128E-02 Eh
 * total energy  :  -224.4249614 Eh     change       -0.4264362E-02 Eh
 * total energy  :  -224.4285748 Eh     change       -0.3613463E-02 Eh
 * total energy  :  -224.4315971 Eh     change       -0.3022252E-02 Eh
 * total energy  :  -224.4498471 Eh     change       -0.4011171E-06 Eh
 * total energy  :  -224.4498475 Eh     change       -0.4166768E-06 Eh
 * total energy  :  -224.4498480 Eh     change       -0.4883643E-06 Eh
 * total energy  :  -224.4498485 Eh     change       -0.5551827E-06 Eh
 * total energy  :  -224.4498492 Eh     change       -0.6511109E-06 Eh
 * total energy  :  -224.4498501 Eh     change       -0.8887112E-06 Eh
 * total energy  :  -224.4498510 Eh     change       -0.9735760E-06 Eh
 * total energy  :  -224.4498523 Eh     change       -0.1218383E-05 Eh
 * total energy  :  -224.4498523 Eh     change       -0.3905882E-08 Eh
   *** GEOMETRY OPTIMIZATION CONVERGED AFTER 340 ITERATIONS ***

 final structure:
================
153
 xtb: 6.7.1 (edcfbbe)
C           13.30918776945075       -3.76526588743123       -2.19366378651354
C           12.83407817508584       -2.56565536757863       -1.36815524688310
C           13.27801152686851       -2.77888140871743        0.08683131703430
C           13.49940192831873       -1.30315695769433       -1.93611335845860
C           11.32184644957713       -2.39346174121555       -1.40197302454905
C           10.47481448342409       -3.27246201793582       -2.07813294359669
C            9.10918852415946       -3.09547303882302       -2.05440932297703
C            8.54560845885640       -2.02359480490813       -1.36483126567960
C            9.35950240002029       -1.08587450419941       -0.70313535342771
C           10.73792881078938       -1.32876925369936       -0.73529403841897
B            8.64524477453231        0.09704295425292       -0.00403900956979
C            9.15347656133552        1.38883629262045        0.68203649420609
C           10.47227080128878        1.86914198725881        0.68366746498989
C           10.86950815934303        3.01794566365063        1.34060404829431
C           12.30255570174369        3.53037508666813        1.33164714410719
C           12.82365865395897        3.58454375882917        2.77554268125633
C           12.32544287608117        4.93767112641733        0.71676205954603
C           13.24479960798193        2.63871002817982        0.51744746340699
C            9.89176022484509        3.73171627565691        2.04217519441144
C            8.58053576855843        3.32124510358135        2.04856671203465
C            8.20121730876368        2.16682529883358        1.36206813094702
O            6.86274889690210        1.89415796666062        1.41228298243866
C            6.32131769246972        0.87158970932938        0.71563957435861
C            4.93567098038271        0.75280201070815        0.73575054791945
C            4.33242069490859       -0.27326902257205        0.02115217012811
N            2.91560199568566       -0.38310959099235        0.02007864498260
C            2.17482576513832        0.49982917548161       -0.75316807262973
C            2.81871949110371        1.43886892652384       -1.56421442664277
C            2.09466958217276        2.32560773760776       -2.33495546188771
C            0.71071048497745        2.29321252390021       -2.32148566247800
C            0.06856595175815        1.35302324258730       -1.53750832984376
C            0.77838610294757        0.45269734457047       -0.75757935699625
C            0.00132654078741       -0.56266110769539        0.05804483954064
C            0.91980358750780       -1.51749518794069        0.79234784655452
C            0.34530950145856       -2.53501411030413        1.53889081508122
C            1.11751284799841       -3.41701801988277        2.27163835080441
C            2.49386764190556       -3.26705209466833        2.27078607376340
C            3.08448543405510       -2.26177556481561        1.53214720470147
C            2.31071006182283       -1.38313196008285        0.76848585985534
C           -0.82142362696932        0.18592235591267        1.08840000785410
C           -0.15547089294366        0.87076931865233        2.09341280696219
C           -0.84226854075131        1.56786307272863        3.06991216126907
C           -2.22645858906135        1.57198381416197        3.04619990415912
C           -2.90725475106036        0.89706976369828        2.05337596998432
C           -2.21805971108584        0.20551890982670        1.05300393668258
N           -2.91556252698344       -0.46882901296133        0.06059449266122
C           -4.33305262047977       -0.37094413295192        0.03161192400477
C           -5.10777519399733       -1.42960215053356        0.48642483551709
C           -6.49410687704812       -1.32175254163182        0.44941322781310
C           -7.12536732319661       -0.15677437208949       -0.01271071473293
C           -6.30981922115717        0.89578286032633       -0.45502768978878
C           -4.92300693278904        0.79083085140400       -0.44718539664196
O           -6.83817734292297        2.05029066247811       -0.91488098341764
C           -8.18135248458584        2.29791846295955       -0.85510444922125
C           -8.54957953962769        3.57984552846497       -1.26594521816364
C           -9.86506252933771        3.97302650920464       -1.21312754096047
C          -10.85860637269200        3.11088834251358       -0.73667221749470
C          -12.29651508022989        3.60329764875099       -0.65812267013489
C          -12.77136691208058        3.98918914081504       -2.06689838236247
C          -12.35365002062330        4.83014314686815        0.26440682096120
C          -13.25469859797630        2.54489098113813       -0.10374279203046
C          -10.47206515236408        1.84026593126565       -0.35546816446580
C           -9.14804683363758        1.37818072179246       -0.41458256806325
B           -8.64845369982746       -0.03582464189711       -0.02790389544131
C           -9.37209019673680       -1.35242242250543        0.34770483336993
C          -10.75184855539220       -1.59686477130164        0.26833258377527
C          -11.34224428546119       -2.78907714781929        0.64140284177042
C          -12.84053664540944       -3.04056240429168        0.55163517184985
C          -13.37896634701856       -3.35338039333424        1.95580086436115
C          -13.61046570910726       -1.83562976763488        0.00298511198266
C          -13.09280094335507       -4.23474259987921       -0.38077027731010
C          -10.50554452799100       -3.80128542523886        1.12368926440532
C           -9.14492986732215       -3.62348759409050        1.19630518655922
C           -8.57111323007870       -2.41448530550480        0.80045788732050
O           -7.20711780552791       -2.38114374684841        0.88916374402726
C           -2.26754436718565       -1.25609104892105       -0.88078387922766
C           -2.99956885270756       -1.95218651864535       -1.84685093307705
C           -2.36524194276336       -2.74992250173325       -2.77764146422967
C           -0.98578506871471       -2.86730736770365       -2.77297060366503
C           -0.25457777977697       -2.15969855424051       -1.83707665202353
C           -0.87322285375793       -1.35206461703523       -0.89499112378888
C            5.09361923544035       -1.18615661046942       -0.69662435578475
C            6.47973906806757       -1.07115740210839       -0.68810916035926
C            7.12346182353025       -0.03763135906069        0.00958456088069
O            7.17873927896340       -1.98822917151567       -1.39117042224715
H           13.02971810832009       -3.65630040234977       -3.23925098149811
H           12.89787730822389       -4.69549915524724       -1.80822972808718
H           14.39413608488305       -3.83274932847648       -2.14162159623589
H           12.81052779933014       -3.67268381203779        0.49569835679196
H           13.00230685775329       -1.93552756494548        0.71368812269511
H           14.35800027176489       -2.90207011692134        0.13402860070531
H           14.58030657494204       -1.42585067804791       -1.95295453341591
H           13.15663624181176       -1.12224353674328       -2.95307645955954
H           13.26773235068021       -0.42781366378970       -1.33701166228595
H           10.86982792155218       -4.11461477684689       -2.62169101786549
H            8.45040091369374       -3.78679049411830       -2.55867190451941
H           11.36944001630649       -0.64828016224843       -0.18969786094869
H           11.19406525495954        1.30633407040100        0.11994458853748
H           12.78325791373400        2.59562123860658        3.22828367553713
H           12.23368146866807        4.26250307189362        3.38609191116468
H           13.85604834990265        3.92778861960670        2.78747124585070
H           11.72462072100162        5.63419718856008        1.29503420481650
H           11.93396824504910        4.91111482432370       -0.29840806667934
H           13.34549134708403        5.31487851707252        0.68363397385913
H           13.29123915379913        1.63625687095626        0.93627471528659
H           12.93013398130387        2.58251851993297       -0.52215466211214
H           14.24897354665926        3.05733137355394        0.54140249749352
H           10.15261726993589        4.62965505076243        2.58081437044426
H            7.82049490594846        3.88364427863504        2.57019691983869
H            4.34214196995482        1.46402684201440        1.28804820347898
H            3.89701713752379        1.46819162365188       -1.59218979777210
H            2.61758026783886        3.04246833993018       -2.95106239519271
H            0.13850943730653        2.98586836615807       -2.91980496479931
H           -1.01082414106338        1.30728074404575       -1.52916951375930
H           -0.73160514280034       -2.62806792153614        1.54301911156173
H            0.65063832051147       -4.20418818021120        2.84392902352333
H            3.11536341139668       -3.93433508587470        2.84996298003504
H            4.15773385150943       -2.15067656278703        1.54780836114960
H            0.92475246187412        0.84931477936260        2.10713955493435
H           -0.30404819694457        2.09555614485759        3.84257435714417
H           -2.78337964327819        2.10025327139960        3.80622972313507
H           -3.98639319101977        0.89988363099894        2.05203771703336
H           -4.64637313515695       -2.33175571117317        0.85611602337793
H           -4.31874935230120        1.61372372166260       -0.79480300265543
H           -7.77798851920613        4.25158492146305       -1.61164880066863
H          -10.11701690320865        4.97204063863443       -1.53412259991740
H          -12.16606077712365        4.78859105555039       -2.48539408071950
H          -13.80486896774293        4.32768146194264       -2.03317240340204
H          -12.71068945499731        3.13091993137275       -2.73331009615777
H          -11.99082677358459        4.57179204547020        1.25749284652187
H          -11.74525948175582        5.64480482405196       -0.11862082986514
H          -13.37869352217048        5.18420788649344        0.35281021218505
H          -14.26187158247393        2.95503222261686       -0.06350299054590
H          -12.97176035427924        2.25175641013622        0.90470028100909
H          -13.27738152797804        1.66535645045675       -0.74238429637783
H          -11.20799317345596        1.15796597833942        0.02953193379322
H          -11.36342927006195       -0.80507674720317       -0.12454873645636
H          -13.17544860430094       -2.52394122186416        2.63038135427656
H          -12.92001900324568       -4.24795025494470        2.36771284339076
H          -14.45486231183546       -3.51082470138743        1.91704371716694
H          -14.67109568849596       -2.07487351809845       -0.04215764222916
H          -13.49036426469228       -0.96901699727561        0.64839125145008
H          -13.28040824877626       -1.58562773854492       -1.00269864502876
H          -12.62360345015177       -5.13961310220418       -0.00443222385010
H          -14.16136569172797       -4.41870485386714       -0.47159106588835
H          -12.69238225889385       -4.02997297260611       -1.37189226311168
H          -10.91829661025926       -4.74831112477013        1.43555886256010
H           -8.49570790340197       -4.41130704266535        1.54845422965491
H           -4.07471589397817       -1.86248736286604       -1.86803022370921
H           -2.95488541238409       -3.27980312517895       -3.51141599681510
H           -0.48485178384635       -3.49281337788835       -3.49610606960485
H            0.82427134669155       -2.22597697794815       -1.83279553222197
H            4.62225015132564       -1.98353165518708       -1.24927466953084

          :  Hamiltonian                  GFN2-xTB          :
         :: gradient norm              0.000048501199 Eh/a0 ::
         :: HOMO-LUMO gap              1.982933374149 eV    ::
         :: SCC energy              -228.211549223755 Eh    ::
         :: -> dispersion             -0.217432355774 Eh    ::
         :: -> Gsolv                  -0.083704918011 Eh    ::
         :: repulsion energy           3.761696957666 Eh    ::

    * Orbital Energies and Occupations

         #    Occupation            Energy/Eh            Energy/eV
      -------------------------------------------------------------
         1        2.0000           -0.7343100             -19.9816
       ...           ...                  ...                  ...
       196        2.0000           -0.3951816             -10.7534
       197        2.0000           -0.3946867             -10.7400
       198        2.0000           -0.3920015             -10.6669
       199        2.0000           -0.3910983             -10.6423
       200        2.0000           -0.3905857             -10.6284
       201        2.0000           -0.3900179             -10.6129
       202        2.0000           -0.3896771             -10.6037
       203        2.0000           -0.3853615             -10.4862
       204        2.0000           -0.3850612             -10.4780
       205        2.0000           -0.3707860             -10.0896
       206        2.0000           -0.3705918             -10.0843
       207        2.0000           -0.3480608              -9.4712
       208        2.0000           -0.3476841              -9.4610 (HOMO)
       209                         -0.2748126              -7.4780 (LUMO)
       210                         -0.2743970              -7.4667
       211                         -0.2375191              -6.4632
       212                         -0.2373537              -6.4587
       213                         -0.2345174              -6.3815
       214                         -0.2344499              -6.3797
       215                         -0.2339659              -6.3665
       216                         -0.2228997              -6.0654
       217                         -0.2220659              -6.0427
       218                         -0.2217209              -6.0333
       219                         -0.2210480              -6.0150
       ...                                ...                  ...
       408                          0.6943605              18.8945
      -------------------------------------------------------------
                  HL-Gap            0.0728714 Eh            1.9829 eV

     #   Z          covCN         q      C6AA      α(0)
     1   6 C        3.761    -0.109    22.628     6.781
     2   6 C        3.902     0.026    20.087     6.371
     3   6 C        3.761    -0.107    22.591     6.775
     4   6 C        3.761    -0.108    22.604     6.778
     5   6 C        2.969     0.003    27.956     8.673
     6   6 C        2.925    -0.035    28.879     8.813
     7   6 C        2.913    -0.056    29.400     8.891
     8   6 C        2.877     0.132    25.117     8.216
     9   6 C        2.881    -0.092    30.295     9.023
    10   6 C        2.933    -0.040    28.983     8.829
    11   5 B        2.723     0.213    18.197     7.148
    12   6 C        2.882    -0.092    30.304     9.025
    13   6 C        2.930    -0.044    29.089     8.845
    14   6 C        2.968     0.003    27.959     8.673
    15   6 C        3.902     0.026    20.088     6.371
    16   6 C        3.761    -0.107    22.584     6.775
    17   6 C        3.761    -0.107    22.585     6.775
    18   6 C        3.761    -0.109    22.625     6.781
    19   6 C        2.928    -0.031    28.770     8.796
    20   6 C        2.913    -0.056    29.387     8.889
    21   6 C        2.877     0.132    25.107     8.214
    22   8 O        1.711    -0.235    17.887     5.710
    23   6 C        2.874     0.140    24.949     8.188
    24   6 C        2.916    -0.080    29.997     8.981
    25   6 C        2.928     0.072    26.381     8.423
    26   7 N        2.754    -0.072    22.632     7.066
    27   6 C        2.925     0.061    26.638     8.464
    28   6 C        2.924    -0.059    29.461     8.901
    29   6 C        2.920    -0.034    28.848     8.808
    30   6 C        2.917    -0.045    29.117     8.849
    31   6 C        2.927    -0.037    28.912     8.818
    32   6 C        2.989    -0.012    28.301     8.727
    33   6 C        3.928     0.017    20.225     6.391
    34   6 C        2.987    -0.012    28.298     8.726
    35   6 C        2.927    -0.036    28.890     8.815
    36   6 C        2.917    -0.045    29.111     8.848
    37   6 C        2.920    -0.034    28.846     8.807
    38   6 C        2.923    -0.059    29.468     8.902
    39   6 C        2.924     0.061    26.642     8.464
    40   6 C        2.988    -0.012    28.301     8.727
    41   6 C        2.926    -0.037    28.908     8.817
    42   6 C        2.917    -0.045    29.115     8.848
    43   6 C        2.920    -0.034    28.848     8.808
    44   6 C        2.924    -0.059    29.459     8.901
    45   6 C        2.926     0.061    26.637     8.464
    46   7 N        2.754    -0.072    22.638     7.067
    47   6 C        2.928     0.072    26.382     8.423
    48   6 C        2.915    -0.080    30.000     8.982
    49   6 C        2.873     0.140    24.950     8.188
    50   6 C        2.887    -0.125    31.193     9.157
    51   6 C        2.874     0.140    24.947     8.188
    52   6 C        2.916    -0.080    29.996     8.981
    53   8 O        1.711    -0.235    17.892     5.711
    54   6 C        2.877     0.132    25.111     8.215
    55   6 C        2.913    -0.056    29.389     8.890
    56   6 C        2.927    -0.031    28.771     8.796
    57   6 C        2.968     0.003    27.957     8.673
    58   6 C        3.902     0.026    20.088     6.371
    59   6 C        3.761    -0.107    22.586     6.775
    60   6 C        3.761    -0.107    22.583     6.774
    61   6 C        3.761    -0.110    22.652     6.785
    62   6 C        2.930    -0.044    29.102     8.847
    63   6 C        2.882    -0.092    30.301     9.024
    64   5 B        2.723     0.213    18.204     7.149
    65   6 C        2.882    -0.092    30.301     9.024
    66   6 C        2.930    -0.044    29.102     8.847
    67   6 C        2.968     0.003    27.956     8.673
    68   6 C        3.902     0.026    20.088     6.371
    69   6 C        3.761    -0.107    22.586     6.775
    70   6 C        3.761    -0.110    22.652     6.785
    71   6 C        3.761    -0.107    22.583     6.774
    72   6 C        2.928    -0.031    28.771     8.797
    73   6 C        2.913    -0.056    29.389     8.890
    74   6 C        2.876     0.132    25.112     8.215
    75   8 O        1.711    -0.235    17.894     5.711
    76   6 C        2.924     0.061    26.639     8.464
    77   6 C        2.923    -0.059    29.470     8.902
    78   6 C        2.920    -0.034    28.847     8.808
    79   6 C        2.917    -0.045    29.114     8.848
    80   6 C        2.927    -0.036    28.896     8.815
    81   6 C        2.988    -0.012    28.301     8.727
    82   6 C        2.915    -0.080    29.998     8.981
    83   6 C        2.873     0.140    24.945     8.187
    84   6 C        2.887    -0.126    31.195     9.157
    85   8 O        1.711    -0.235    17.900     5.712
    86   1 H        0.925     0.036     2.497     2.471
    87   1 H        0.925     0.036     2.503     2.474
    88   1 H        0.925     0.039     2.461     2.453
    89   1 H        0.925     0.033     2.549     2.497
    90   1 H        0.925     0.039     2.465     2.455
    91   1 H        0.925     0.041     2.436     2.441
    92   1 H        0.925     0.041     2.440     2.443
    93   1 H        0.925     0.033     2.538     2.491
    94   1 H        0.925     0.041     2.439     2.442
    95   1 H        0.926     0.048     2.345     2.395
    96   1 H        0.926     0.041     2.441     2.443
    97   1 H        0.926     0.049     2.336     2.390
    98   1 H        0.926     0.054     2.274     2.358
    99   1 H        0.925     0.034     2.529     2.487
   100   1 H        0.925     0.037     2.493     2.469
   101   1 H        0.925     0.041     2.440     2.443
   102   1 H        0.925     0.037     2.494     2.470
   103   1 H        0.925     0.034     2.535     2.490
   104   1 H        0.925     0.041     2.442     2.444
   105   1 H        0.925     0.037     2.483     2.464
   106   1 H        0.925     0.038     2.473     2.459
   107   1 H        0.925     0.040     2.451     2.448
   108   1 H        0.926     0.041     2.430     2.438
   109   1 H        0.926     0.041     2.437     2.441
   110   1 H        0.926     0.051     2.302     2.373
   111   1 H        0.926     0.027     2.635     2.538
   112   1 H        0.926     0.031     2.573     2.508
   113   1 H        0.926     0.028     2.608     2.525
   114   1 H        0.926     0.024     2.668     2.554
   115   1 H        0.926     0.024     2.677     2.559
   116   1 H        0.926     0.029     2.607     2.525
   117   1 H        0.926     0.031     2.575     2.509
   118   1 H        0.926     0.027     2.632     2.537
   119   1 H        0.926     0.024     2.669     2.555
   120   1 H        0.926     0.029     2.607     2.525
   121   1 H        0.926     0.031     2.573     2.509
   122   1 H        0.926     0.026     2.638     2.540
   123   1 H        0.926     0.052     2.299     2.371
   124   1 H        0.926     0.051     2.308     2.375
   125   1 H        0.926     0.040     2.442     2.444
   126   1 H        0.926     0.041     2.434     2.440
   127   1 H        0.925     0.036     2.497     2.471
   128   1 H        0.925     0.041     2.442     2.444
   129   1 H        0.925     0.034     2.524     2.485
   130   1 H        0.925     0.033     2.540     2.492
   131   1 H        0.925     0.036     2.497     2.471
   132   1 H        0.925     0.040     2.445     2.445
   133   1 H        0.925     0.040     2.454     2.450
   134   1 H        0.925     0.038     2.479     2.462
   135   1 H        0.925     0.040     2.446     2.446
   136   1 H        0.926     0.056     2.247     2.344
   137   1 H        0.926     0.056     2.246     2.344
   138   1 H        0.925     0.034     2.525     2.485
   139   1 H        0.925     0.036     2.496     2.471
   140   1 H        0.925     0.041     2.442     2.444
   141   1 H        0.925     0.040     2.454     2.450
   142   1 H        0.925     0.040     2.446     2.446
   143   1 H        0.925     0.038     2.479     2.462
   144   1 H        0.925     0.036     2.498     2.471
   145   1 H        0.925     0.040     2.445     2.445
   146   1 H        0.925     0.033     2.538     2.491
   147   1 H        0.926     0.041     2.434     2.440
   148   1 H        0.926     0.040     2.442     2.444
   149   1 H        0.926     0.027     2.630     2.536
   150   1 H        0.926     0.031     2.575     2.509
   151   1 H        0.926     0.028     2.608     2.526
   152   1 H        0.926     0.024     2.677     2.559
   153   1 H        0.926     0.052     2.301     2.372

molecular dipole:
                 x           y           z       tot (Debye)
 q only:       -0.028       0.393      -0.027
   full:       -0.022       0.357      -0.014       0.911

 projected vibrational frequencies (cm⁻¹)
eigval :       -0.00    -0.00    -0.00    -0.00     0.00     0.00
eigval :        2.88     4.67     6.98    10.47    15.36    16.02
eigval :       21.85    24.73    26.33    28.81    31.30    33.39
eigval :       37.99    41.58    47.09    49.05    50.63    58.32
eigval :       62.61    66.44    68.65    73.90    79.95    80.79
eigval :       92.00    94.90   106.47   109.11   110.96   115.57
eigval :      117.78   124.41   130.14   135.87   136.27   139.18
eigval :      139.67   169.13   173.55   176.01   180.61   183.69
eigval :      206.36   209.07   210.37   213.33   218.00   219.13
eigval :      221.30   223.78   224.61   226.53   232.53   233.06
eigval :      235.45   241.15   243.67   259.02   261.08   264.36
eigval :      267.30   269.28   273.09   282.44   284.47   289.07
eigval :      291.74   294.92   313.41   317.38   319.41   319.77
eigval :      321.04   321.81   328.78   330.56   331.65   353.25
eigval :      356.84   360.37   360.88   364.38   365.81   365.86
eigval :      374.83   384.33   385.13   385.37   387.33   392.69
eigval :      392.92   401.15   405.80   415.19   416.71   421.06
eigval :      429.29   432.17   435.25   435.77   436.02   436.98
eigval :      439.63   444.95   449.30   452.30   454.12   454.92
eigval :      476.20   479.48   486.11   492.76   492.87   501.74
eigval :      504.62   506.30   508.36   516.99   517.07   517.91
eigval :      518.49   530.10   554.49   556.26   570.04   570.25
eigval :      581.23   581.62   590.43   596.66   597.48   598.20
eigval :      598.82   609.95   617.79   618.48   629.96   645.01
eigval :      645.23   651.31   652.18   654.02   656.42   660.13
eigval :      666.57   685.64   687.60   688.75   691.81   693.72
eigval :      694.38   695.48   698.16   702.60   703.10   711.08
eigval :      715.12   716.02   728.82   728.88   769.75   770.40
eigval :      772.46   779.11   796.52   807.35   824.91   826.93
eigval :      828.10   828.51   828.96   829.98   832.11   832.44
eigval :      849.58   852.03   856.18   860.30   862.97   863.29
eigval :      865.62   866.41   872.92   873.10   874.75   875.73
eigval :      877.30   882.02   891.55   892.16   895.36   895.94
eigval :      900.83   905.81   906.79   907.27   908.91   915.54
eigval :      915.99   917.80   918.18   918.82   923.52   927.11
eigval :      927.38   939.16   939.86   945.29   946.54   959.11
eigval :      959.73   959.74   960.00   960.28   960.48   961.83
eigval :      963.06   963.11   963.35   963.71   963.82   967.14
eigval :      968.94  1019.08  1026.63  1033.90  1034.25  1034.74
eigval :     1035.07  1035.65  1035.72  1036.45  1036.84  1074.70
eigval :     1074.77  1081.83  1082.18  1097.78  1105.50  1106.30
eigval :     1107.68  1108.57  1121.59  1122.38  1123.58  1130.49
eigval :     1131.03  1137.54  1138.46  1138.50  1139.93  1163.44
eigval :     1171.01  1176.59  1177.62  1177.70  1179.60  1182.05
eigval :     1182.26  1182.60  1184.91  1188.95  1208.50  1212.07
eigval :     1213.06  1214.90  1217.15  1225.67  1225.96  1226.23
eigval :     1226.23  1228.50  1228.82  1229.84  1230.73  1231.23
eigval :     1232.22  1239.36  1240.32  1245.76  1248.16  1249.91
eigval :     1252.16  1262.99  1263.35  1268.35  1269.63  1271.28
eigval :     1274.08  1278.59  1279.45  1291.33  1292.03  1293.67
eigval :     1294.86  1323.51  1325.69  1325.77  1330.23  1331.59
eigval :     1332.00  1333.03  1333.30  1333.64  1335.79  1337.06
eigval :     1337.17  1346.81  1347.77  1395.68  1396.04  1397.13
eigval :     1397.60  1398.00  1398.12  1402.80  1403.37  1403.67
eigval :     1403.75  1406.25  1406.79  1408.48  1408.76  1427.05
eigval :     1427.28  1427.42  1427.78  1434.00  1435.58  1436.37
eigval :     1436.71  1442.15  1443.05  1445.70  1445.72  1460.69
eigval :     1461.53  1477.34  1477.73  1488.00  1488.55  1489.05
eigval :     1489.41  1490.24  1490.86  1491.38  1491.69  1492.01
eigval :     1493.50  1496.79  1497.34  1498.18  1499.78  1501.62
eigval :     1502.06  1502.11  1502.81  1510.33  1511.18  1511.24
eigval :     1511.33  1515.13  1516.60  1517.04  1518.37  1534.57
eigval :     1535.17  1544.50  1544.99  1547.72  1547.96  1571.20
eigval :     1572.19  1572.53  1572.54  1584.18  1589.20  1589.30
eigval :     1590.39  1592.05  1594.69  1597.20  1598.16  1601.28
eigval :     1602.80  3020.61  3021.21  3021.23  3021.46  3021.79
eigval :     3021.89  3022.08  3022.27  3025.03  3025.22  3025.63
eigval :     3025.76  3026.31  3026.59  3026.63  3026.82  3028.88
eigval :     3029.06  3029.14  3029.16  3031.77  3032.83  3033.42
eigval :     3033.98  3036.83  3037.85  3038.52  3039.70  3044.56
eigval :     3044.78  3045.38  3047.79  3048.09  3048.16  3048.54
eigval :     3054.75  3070.60  3072.02  3073.53  3073.78  3074.18
eigval :     3074.49  3076.45  3077.32  3081.35  3081.69  3082.06
eigval :     3084.62  3089.06  3089.57  3089.95  3090.36  3093.66
eigval :     3093.94  3094.18  3097.58  3098.24  3098.81  3099.57
eigval :     3105.43  3105.83  3107.20  3107.83  3115.90  3119.38
eigval :     3145.63  3147.18  3151.00

   temp. (K)  partition function   enthalpy   heat capacity  entropy
                                   cal/mol     cal/K/mol   cal/K/mol   J/K/mol
 298.15  VIB  0.219E+37            45405.880    281.258    283.917
         ROT  0.590E+09              888.752      2.981     43.116
         INT  0.129E+46            46294.633    284.239    327.033
         TR   0.356E+29             1481.254      4.968     46.863
         TOT                       47775.8865   289.2069   373.8964  1564.3825

       T/K    H(0)-H(T)+PV         H(T)/Eh          T*S/Eh         G(T)/Eh
   ------------------------------------------------------------------------
    298.15    0.761357E-01    0.130121E+01    0.177650E+00    0.112356E+01
   ------------------------------------------------------------------------

         :::::::::::::::::::::::::::::::::::::::::::::::::::::
         ::                  THERMODYNAMIC                  ::
         :::::::::::::::::::::::::::::::::::::::::::::::::::::
         :: total free energy        -223.326289799996 Eh   ::
         ::.................................................::
         :: total energy             -224.449852267752 Eh   ::
         :: zero point energy           1.225076988779 Eh   ::
         :: G(RRHO) w/o ZPVE           -0.101514521022 Eh   ::
         :: G(RRHO) contrib.            1.123562467756 Eh   ::
         :::::::::::::::::::::::::::::::::::::::::::::::::::::

           -------------------------------------------------
          | TOTAL ENERGY             -224.449852267752 Eh   |
          | TOTAL ENTHALPY           -223.148639557665 Eh   |
          | TOTAL FREE ENERGY        -223.326289799996 Eh   |
          | GRADIENT NORM               0.000048507493 Eh/α |
          | HOMO-LUMO GAP               1.982932638572 eV   |
           -------------------------------------------------

 * finished run on 2025/08/22 at 21:36:00.729
