   * xtb version 6.7.1 (edcfbbe) compiled by 'albert@albert-system' on 2024-07-22

   ID    Z sym.   atoms
    1    6 C      1-7, 9-20, 22-24, 26-33, 35-49, 51, 53-60, 62-77
    2    8 O      8, 34, 61
    3    7 N      21, 25, 50, 52
    4    1 H      78-127

          program call               : xtb data2507/gas/DV-3CzCN/DV-3CzCN_gas_S0_crest.xyz --gfn 2 --ohess vtight --parallel 40 --molden --ceasefiles --namespace data2507/gas/DV-3CzCN/DV-3CzCN_gas_S0_finalOpt
          :  Hamiltonian                  GFN2-xTB          :
 * total energy  :  -199.2905360 Eh     change       -0.6278526E-08 Eh
 * total energy  :  -199.2905369 Eh     change       -0.8548085E-06 Eh
 * total energy  :  -199.2905385 Eh     change       -0.1581179E-05 Eh
 * total energy  :  -199.2905413 Eh     change       -0.2807364E-05 Eh
 * total energy  :  -199.2905445 Eh     change       -0.3245740E-05 Eh
 * total energy  :  -199.2905472 Eh     change       -0.2692218E-05 Eh
 * total energy  :  -199.2905492 Eh     change       -0.1996909E-05 Eh
 * total energy  :  -199.2905515 Eh     change       -0.2290105E-05 Eh
 * total energy  :  -199.2905544 Eh     change       -0.2887985E-05 Eh
 * total energy  :  -199.2905572 Eh     change       -0.2787494E-05 Eh
 * total energy  :  -199.2905818 Eh     change       -0.4288870E-06 Eh
 * total energy  :  -199.2905821 Eh     change       -0.3365100E-06 Eh
 * total energy  :  -199.2905824 Eh     change       -0.2908693E-06 Eh
 * total energy  :  -199.2905828 Eh     change       -0.3309031E-06 Eh
 * total energy  :  -199.2905831 Eh     change       -0.3577333E-06 Eh
 * total energy  :  -199.2905834 Eh     change       -0.2921485E-06 Eh
 * total energy  :  -199.2905837 Eh     change       -0.2434314E-06 Eh
 * total energy  :  -199.2905839 Eh     change       -0.2359653E-06 Eh
 * total energy  :  -199.2905839 Eh     change       -0.4995087E-08 Eh
   *** GEOMETRY OPTIMIZATION CONVERGED AFTER 44 ITERATIONS ***

 final structure:
================
127
 xtb: 6.7.1 (edcfbbe)
C            4.88929447763593        0.36131576244382       -3.90369969472546
C            4.95704637169290        1.41718102912308       -3.10377128139502
C            5.97898321321670        1.63368882580456       -2.08492707653137
C            7.25103649362730        1.07110105894849       -2.17540416345557
C            8.16314064128638        1.21864767244538       -1.14974204811848
C            7.83352265380488        1.93080875753169       -0.00349122115834
C            8.71954848213828        1.89385710942962        1.21409562937762
O            8.39290995200162        0.77032395341452        2.03923871702639
C            7.04988245151194        0.73571240125782        2.36105792752444
C            6.53297929323616        1.51905123845414        3.38065144435317
C            5.16453535018882        1.55784420386417        3.62821116215168
C            4.26503004432682        0.87361396163920        2.83287533469090
C            4.77577538167548        0.09592734830902        1.80365981895182
C            6.16601862157251       -0.03608608048514        1.60498761642461
C            6.34493893613975       -0.96792854745054        0.52730079403509
C            7.46599402513311       -1.52271984086271       -0.07396225752082
C            7.28415994086050       -2.37881880356946       -1.14135258711370
C            6.00788969331387       -2.67169649506430       -1.61446532980053
C            4.87802191297775       -2.15402161424010       -1.00977178032262
C            5.05308634841899       -1.32311657141356        0.08535015890754
N            4.11030787148555       -0.67581333979160        0.86733693418054
C            2.73374234357229       -0.68976414055100        0.65325965068581
C            2.05402347675385       -1.89858863312735        0.50717750132496
C            0.68638297782238       -1.89982020721539        0.29276168222863
N           -0.02561284550806       -3.09698212860949        0.18353229831459
C            0.07567450451375       -4.01879215860346       -0.84413912714444
C            1.02110022187502       -4.11661074817731       -1.85067192777471
C            0.87839652584795       -5.14005098291035       -2.76993216726921
C           -0.18191608928625       -6.03893382680872       -2.69463920691909
C           -1.13691801505532       -5.93505633329734       -1.70162595723613
C           -1.01342066313168       -4.91515274017806       -0.76843151298776
C           -1.80153253262591       -4.50885047207889        0.36168366881793
C           -3.00853820379613       -4.96095215092441        0.90489238640416
O           -3.67429706995618       -5.94999408544829        0.24098391983197
C           -5.09439491936587       -5.90822016214891        0.29028991178760
C           -5.62516011920683       -4.50388536990652        0.13878047818089
C           -6.67900580304135       -4.04230302345663        0.91543041828174
C           -7.04305021346732       -2.70984322131925        0.87970744540730
C           -6.33422848785003       -1.79674759643164        0.10065710540375
C           -6.62742618525732       -0.36976452703646        0.20149050147961
C           -5.72638221775274        0.58757844194030        0.02371132375918
C           -5.32438379327207       -2.27961716827275       -0.73050752737110
C           -4.98741502883590       -3.61628718080751       -0.72163028937455
C           -3.46881722980977       -4.34218438022727        2.05994525716221
C           -2.78282346060853       -3.27743911982315        2.63133418243875
C           -1.62997684665810       -2.76902658228048        2.06842719013993
C           -1.15788617520707       -3.39063475089780        0.92311535006171
C           -0.01358824679347       -0.68413024285261        0.17459141451019
C           -1.36047856648319       -0.70408571515144       -0.24487663990317
N           -2.42824547148910       -0.72999820818557       -0.66359185464452
C            0.67070749323872        0.53254215463259        0.34310988951657
N            0.00744707972259        1.74708083194439        0.20544527573349
C            0.43037495399504        2.79569402039713       -0.59858006898067
C            1.54722360254054        2.89289314406539       -1.41373596202679
C            1.71675400172722        4.05938922606149       -2.13753126492837
C            0.79379813567558        5.09896140443560       -2.06705694560367
C           -0.33902259443684        4.99210676339001       -1.28445004575652
C           -0.52777374428887        3.83091224234557       -0.54728123495041
C           -1.57179170329051        3.37936074965112        0.32888460191491
C           -2.76625823638443        3.96843647833570        0.76184401371573
O           -3.04142502422184        5.20914682880874        0.27749580341468
C           -4.26169556083414        5.82133244757520        0.63346239548677
C           -5.48399254283215        5.09800779570997        0.12300576755126
C           -5.41361837908148        4.30584195461544       -1.01563977953267
C           -6.52584852061146        3.62272612923284       -1.46561533225180
C           -7.74539811567765        3.72285385491696       -0.79648480610178
C           -8.93030008282519        2.98202151972380       -1.21663298044065
C           -8.92409267021947        1.86123668101134       -1.92659406296485
C           -7.81723943425972        4.55516475795800        0.32110556804343
C           -6.70063599571556        5.22331651970457        0.78207816851945
C           -3.55747740549377        3.24835780298663        1.64539417955296
C           -3.16178298016061        1.99439179937779        2.09973483343212
C           -1.98774134266377        1.39853954553080        1.68699393162541
C           -1.21024499940540        2.09283098738928        0.77153817111885
C            2.03652577343033        0.51352190300434        0.59498499678155
C            6.59259670178336        2.55617048600541        0.05819445445756
C            5.68261029686489        2.41755820178007       -0.97027185016733
H            5.61195551965979       -0.43597793121745       -3.85973768293187
H            4.09628766185156        0.24860150511905       -4.62323909338337
H            4.18593633501176        2.17604251044987       -3.15497266354167
H            7.52392781792471        0.50705914814379       -3.05394949762477
H            9.13817970505920        0.76078671749304       -1.22971383975285
H            9.76844919565034        1.74867332757735        0.94809123041393
H            8.61490845128285        2.82176514826019        1.79406510277913
H            7.20697270545839        2.11199463463111        3.98045707703948
H            4.79559773285374        2.16364866362095        4.44222640555199
H            3.20361999775935        0.94252931633901        3.01485372406466
H            8.44956174830063       -1.28545124739411        0.29823239841547
H            8.14096833375399       -2.82340384444945       -1.62529550031154
H            5.89541213825788       -3.32565577515876       -2.46682387791707
H            3.89531274454937       -2.38647051094785       -1.38950279727379
H            2.58126775864595       -2.83496154423567        0.59949262702505
H            1.83866820081055       -3.41488364320007       -1.92326443907522
H            1.60442782145505       -5.24183073448803       -3.56306541574707
H           -0.25736289073488       -6.82600608258218       -3.43011797947142
H           -1.96588538912619       -6.62207190468018       -1.64041865286020
H           -5.46255896846510       -6.35702006716929        1.22342177649548
H           -5.41283213821972       -6.54566862047761       -0.54236045093680
H           -7.20396946703907       -4.72643653736531        1.56858802323285
H           -7.85393663358362       -2.36042821081170        1.50366529205239
H           -7.63908025239441       -0.11469067800732        0.49505801660949
H           -4.70161907410670        0.36779909241151       -0.22445371319279
H           -5.97734353593817        1.62789098435298        0.14021482235945
H           -4.78921204492681       -1.60044605073963       -1.37332904920161
H           -4.19245335146152       -3.97219262501238       -1.36078578954087
H           -4.38304294336224       -4.67598156517718        2.52335071107210
H           -3.17796525532401       -2.82776262881449        3.52966536051259
H           -1.11580240837087       -1.92763962342016        2.50787779703384
H            2.25473479406159        2.08118226554044       -1.49983488149204
H            2.58208462789781        4.16603853697987       -2.77585087899341
H            0.96457621096645        5.99473954285384       -2.64527257745880
H           -1.07135255033026        5.78196626158249       -1.24050975438463
H           -4.20525613197346        6.81701114098222        0.17705134325579
H           -4.32476557890518        5.95110118994120        1.72329717309275
H           -4.47506070435701        4.21501660564072       -1.54252348424757
H           -6.44937741891424        3.00996496430958       -2.35030999342589
H           -9.87224030641221        3.39113137944399       -0.87128757778739
H           -8.01217414057928        1.39206669018288       -2.25453616006126
H           -9.83839529995666        1.35704947491704       -2.18937710648815
H           -8.75608978197284        4.65798479794103        0.84670649683800
H           -6.77037219358144        5.84678285597106        1.66288577896991
H           -4.49554933044652        3.64808613271318        1.99464092219118
H           -3.80108053986131        1.47145257927414        2.79432339405424
H           -1.70299814784403        0.43027500443018        2.06557871449568
H            2.56499422955795        1.44354699301911        0.73127832051511
H            6.32981278950731        3.14123937831784        0.92855346977903
H            4.71667830316856        2.89802475239645       -0.89669849218707

          :  Hamiltonian                  GFN2-xTB          :
         :: gradient norm              0.000055706298 Eh/a0 ::
         :: HOMO-LUMO gap              2.103102149717 eV    ::
         :: SCC energy              -202.877032757319 Eh    ::
         :: -> dispersion             -0.204086030222 Eh    ::
         :: repulsion energy           3.586448858336 Eh    ::

    * Orbital Energies and Occupations

         #    Occupation            Energy/Eh            Energy/eV
      -------------------------------------------------------------
         1        2.0000           -0.7167106             -19.5027
       ...           ...                  ...                  ...
       172        2.0000           -0.3989095             -10.8549
       173        2.0000           -0.3983302             -10.8391
       174        2.0000           -0.3956581             -10.7664
       175        2.0000           -0.3926489             -10.6845
       176        2.0000           -0.3898882             -10.6094
       177        2.0000           -0.3838507             -10.4451
       178        2.0000           -0.3835485             -10.4369
       179        2.0000           -0.3769475             -10.2573
       180        2.0000           -0.3741362             -10.1808
       181        2.0000           -0.3729692             -10.1490
       182        2.0000           -0.3716469             -10.1130
       183        2.0000           -0.3658192              -9.9544
       184        2.0000           -0.3608645              -9.8196 (HOMO)
       185                         -0.2835769              -7.7165 (LUMO)
       186                         -0.2593292              -7.0567
       187                         -0.2580074              -7.0207
       188                         -0.2501047              -6.8057
       189                         -0.2499044              -6.8002
       190                         -0.2439871              -6.6392
       191                         -0.2410496              -6.5593
       192                         -0.2378093              -6.4711
       193                         -0.2329579              -6.3391
       194                         -0.2249864              -6.1222
       195                         -0.2245782              -6.1111
       ...                                ...                  ...
       358                          1.1667369              31.7485
      -------------------------------------------------------------
                  HL-Gap            0.0772876 Eh            2.1031 eV

     #   Z          covCN         q      C6AA      α(0)
     1   6 C        2.839    -0.086    30.136     8.996
     2   6 C        2.895    -0.031    28.773     8.795
     3   6 C        2.973     0.014    27.694     8.632
     4   6 C        2.924    -0.033    28.816     8.803
     5   6 C        2.922    -0.030    28.754     8.794
     6   6 C        2.968    -0.002    28.079     8.692
     7   6 C        3.716     0.081    19.352     6.285
     8   8 O        1.701    -0.312    19.207     5.917
     9   6 C        2.876     0.141    24.922     8.184
    10   6 C        2.918    -0.062    29.536     8.912
    11   6 C        2.924    -0.035    28.865     8.811
    12   6 C        2.910    -0.056    29.398     8.891
    13   6 C        3.070     0.045    26.911     8.506
    14   6 C        3.070    -0.031    28.695     8.783
    15   6 C        3.069    -0.007    28.118     8.695
    16   6 C        2.913    -0.029    28.718     8.788
    17   6 C        2.921    -0.039    28.973     8.827
    18   6 C        2.925    -0.032    28.788     8.799
    19   6 C        2.911    -0.049    29.210     8.862
    20   6 C        3.073     0.046    26.898     8.504
    21   7 N        2.806    -0.040    22.017     6.969
    22   6 C        2.911     0.074    26.356     8.418
    23   6 C        2.922    -0.063    29.559     8.916
    24   6 C        2.920     0.077    26.278     8.406
    25   7 N        2.806    -0.052    22.236     7.003
    26   6 C        3.072     0.047    26.877     8.500
    27   6 C        2.910    -0.050    29.242     8.867
    28   6 C        2.925    -0.033    28.829     8.805
    29   6 C        2.921    -0.039    28.982     8.828
    30   6 C        2.913    -0.031    28.772     8.796
    31   6 C        3.070    -0.005    28.082     8.689
    32   6 C        3.069    -0.034    28.771     8.795
    33   6 C        2.862     0.147    24.808     8.164
    34   8 O        1.703    -0.279    18.636     5.829
    35   6 C        3.702     0.079    19.419     6.301
    36   6 C        2.968    -0.005    28.148     8.702
    37   6 C        2.921    -0.040    29.002     8.831
    38   6 C        2.926    -0.036    28.898     8.816
    39   6 C        2.975     0.016    27.660     8.627
    40   6 C        2.895    -0.031    28.767     8.794
    41   6 C        2.840    -0.088    30.185     9.004
    42   6 C        2.924    -0.033    28.827     8.805
    43   6 C        2.923    -0.031    28.766     8.796
    44   6 C        2.919    -0.071    29.780     8.949
    45   6 C        2.926    -0.032    28.804     8.801
    46   6 C        2.909    -0.058    29.454     8.899
    47   6 C        3.078     0.048    26.833     8.493
    48   6 C        2.976    -0.018    28.451     8.749
    49   6 C        1.910     0.123    28.076     8.557
    50   7 N        0.911    -0.244    26.365     7.426
    51   6 C        2.914     0.075    26.315     8.412
    52   7 N        2.805    -0.043    22.067     6.977
    53   6 C        3.069     0.044    26.936     8.510
    54   6 C        2.910    -0.052    29.283     8.873
    55   6 C        2.924    -0.033    28.830     8.805
    56   6 C        2.920    -0.039    28.972     8.827
    57   6 C        2.913    -0.032    28.793     8.799
    58   6 C        3.067    -0.005    28.083     8.690
    59   6 C        3.071    -0.036    28.817     8.802
    60   6 C        2.858     0.145    24.841     8.169
    61   8 O        1.705    -0.266    18.414     5.794
    62   6 C        3.699     0.078    19.433     6.304
    63   6 C        2.968    -0.002    28.084     8.693
    64   6 C        2.921    -0.030    28.750     8.793
    65   6 C        2.924    -0.031    28.766     8.795
    66   6 C        2.972     0.015    27.676     8.629
    67   6 C        2.895    -0.030    28.757     8.792
    68   6 C        2.838    -0.084    30.102     8.991
    69   6 C        2.927    -0.034    28.857     8.810
    70   6 C        2.921    -0.041    29.019     8.834
    71   6 C        2.918    -0.074    29.852     8.960
    72   6 C        2.926    -0.030    28.740     8.792
    73   6 C        2.909    -0.057    29.414     8.893
    74   6 C        3.066     0.048    26.860     8.498
    75   6 C        2.926    -0.065    29.624     8.926
    76   6 C        2.922    -0.035    28.865     8.810
    77   6 C        2.926    -0.036    28.895     8.815
    78   1 H        0.926     0.041     2.434     2.440
    79   1 H        0.926     0.039     2.461     2.453
    80   1 H        0.925     0.037     2.492     2.469
    81   1 H        0.926     0.038     2.474     2.460
    82   1 H        0.926     0.038     2.481     2.463
    83   1 H        0.924     0.053     2.288     2.365
    84   1 H        0.923     0.027     2.634     2.538
    85   1 H        0.926     0.043     2.403     2.424
    86   1 H        0.926     0.039     2.467     2.456
    87   1 H        0.926     0.033     2.547     2.496
    88   1 H        0.926     0.048     2.340     2.392
    89   1 H        0.926     0.032     2.558     2.501
    90   1 H        0.926     0.033     2.548     2.496
    91   1 H        0.926     0.026     2.642     2.542
    92   1 H        0.926     0.060     2.200     2.319
    93   1 H        0.926     0.020     2.740     2.588
    94   1 H        0.926     0.030     2.586     2.515
    95   1 H        0.926     0.031     2.579     2.511
    96   1 H        0.926     0.047     2.355     2.400
    97   1 H        0.923     0.031     2.574     2.509
    98   1 H        0.924     0.054     2.272     2.357
    99   1 H        0.925     0.024     2.679     2.560
   100   1 H        0.926     0.030     2.588     2.516
   101   1 H        0.925     0.030     2.588     2.516
   102   1 H        0.926     0.058     2.227     2.334
   103   1 H        0.926     0.033     2.538     2.491
   104   1 H        0.926     0.059     2.210     2.325
   105   1 H        0.926     0.039     2.467     2.456
   106   1 H        0.926     0.036     2.496     2.471
   107   1 H        0.926     0.035     2.516     2.481
   108   1 H        0.926     0.019     2.749     2.593
   109   1 H        0.926     0.026     2.647     2.544
   110   1 H        0.926     0.028     2.615     2.529
   111   1 H        0.926     0.031     2.573     2.508
   112   1 H        0.926     0.047     2.353     2.399
   113   1 H        0.924     0.057     2.238     2.339
   114   1 H        0.923     0.034     2.535     2.490
   115   1 H        0.926     0.042     2.425     2.435
   116   1 H        0.926     0.041     2.431     2.438
   117   1 H        0.925     0.034     2.524     2.485
   118   1 H        0.926     0.045     2.380     2.413
   119   1 H        0.926     0.038     2.476     2.461
   120   1 H        0.926     0.033     2.543     2.494
   121   1 H        0.925     0.026     2.647     2.544
   122   1 H        0.926     0.036     2.509     2.477
   123   1 H        0.926     0.038     2.472     2.459
   124   1 H        0.926     0.027     2.636     2.539
   125   1 H        0.926     0.059     2.216     2.328
   126   1 H        0.926     0.028     2.610     2.526
   127   1 H        0.925     0.031     2.570     2.507

molecular dipole:
                 x           y           z       tot (Debye)
 q only:       -0.133       0.864      -0.104
   full:        0.039       0.980       0.363       2.657

 projected vibrational frequencies (cm⁻¹)
eigval :       -0.00    -0.00    -0.00    -0.00     0.00     0.00
eigval :        9.03    11.94    12.64    16.31    17.74    19.69
eigval :       21.43    21.87    25.79    29.18    33.49    35.32
eigval :       42.42    45.19    50.21    57.01    58.91    65.83
eigval :       69.08    79.14    81.65    84.71    93.74    94.64
eigval :       99.58   104.41   110.15   113.11   114.90   116.21
eigval :      119.08   125.03   129.56   133.54   138.89   149.86
eigval :      151.89   161.68   169.95   176.24   186.13   201.17
eigval :      204.29   206.48   210.82   222.77   226.37   245.87
eigval :      249.55   251.91   253.89   256.81   260.28   269.16
eigval :      278.45   287.92   303.76   305.08   314.55   317.23
eigval :      324.06   324.91   328.96   336.79   350.67   363.33
eigval :      368.70   372.72   378.79   380.53   385.30   388.89
eigval :      391.61   407.71   410.79   413.26   417.22   419.07
eigval :      423.71   431.34   438.17   441.94   450.78   484.66
eigval :      487.53   491.79   496.47   502.65   505.42   512.64
eigval :      520.74   533.06   533.32   534.52   536.33   537.12
eigval :      539.67   540.59   541.57   544.54   550.15   558.57
eigval :      564.28   573.46   583.37   583.98   603.13   604.65
eigval :      606.02   608.02   610.38   619.40   622.64   627.04
eigval :      630.35   640.06   644.20   648.56   653.97   664.46
eigval :      669.99   674.45   677.62   678.76   691.74   696.54
eigval :      699.81   702.85   706.98   709.76   713.49   714.27
eigval :      729.12   739.79   747.38   753.42   757.77   765.02
eigval :      772.44   776.62   778.02   783.14   785.38   790.71
eigval :      802.46   803.89   811.59   815.60   823.52   836.62
eigval :      851.04   854.27   855.97   858.10   858.73   861.23
eigval :      862.25   864.32   868.26   870.85   871.09   871.32
eigval :      879.82   884.61   892.48   894.32   897.24   899.70
eigval :      903.13   905.41   908.16   908.45   909.72   911.03
eigval :      915.59   915.77   918.29   918.89   922.01   923.66
eigval :      927.53   927.75   930.39   931.06   945.21   952.15
eigval :      969.60   983.01   986.71   990.79   997.04  1001.22
eigval :     1003.94  1008.19  1011.66  1012.66  1014.38  1017.71
eigval :     1018.83  1025.44  1036.13  1036.41  1037.12  1051.16
eigval :     1064.03  1067.61  1074.45  1078.26  1086.65  1104.90
eigval :     1111.45  1121.74  1123.91  1131.40  1138.55  1146.94
eigval :     1147.48  1147.87  1152.84  1167.67  1175.90  1179.40
eigval :     1181.35  1182.42  1186.40  1188.18  1191.04  1195.06
eigval :     1196.29  1196.86  1198.99  1201.18  1203.75  1206.12
eigval :     1208.56  1209.62  1213.80  1218.42  1223.27  1230.30
eigval :     1237.32  1244.71  1248.27  1248.78  1249.31  1253.84
eigval :     1262.47  1274.10  1274.94  1276.62  1285.59  1286.72
eigval :     1291.03  1294.11  1296.34  1298.12  1302.40  1303.72
eigval :     1305.85  1307.18  1310.00  1315.19  1318.47  1331.34
eigval :     1333.83  1336.27  1338.11  1340.96  1355.18  1360.66
eigval :     1361.27  1362.58  1367.11  1369.19  1392.06  1404.09
eigval :     1406.32  1407.66  1409.79  1409.84  1413.17  1414.34
eigval :     1415.62  1420.55  1421.83  1423.35  1444.54  1451.39
eigval :     1454.36  1458.12  1465.74  1466.01  1476.73  1477.98
eigval :     1479.66  1490.21  1491.91  1492.18  1493.56  1493.96
eigval :     1495.42  1524.79  1560.01  1572.87  1573.28  1573.32
eigval :     1573.40  1577.36  1578.57  1588.55  1590.40  1590.68
eigval :     1593.05  1593.27  1594.33  1601.75  1601.97  1602.52
eigval :     1607.21  1609.26  1610.41  1675.73  1677.88  1678.87
eigval :     2360.88  2879.34  2880.03  2880.22  2930.64  2935.31
eigval :     2981.47  3037.39  3043.83  3049.62  3058.19  3064.36
eigval :     3065.11  3070.94  3073.52  3074.80  3077.41  3077.87
eigval :     3078.29  3078.50  3079.48  3080.84  3081.94  3083.28
eigval :     3084.04  3085.81  3087.53  3089.94  3091.58  3091.91
eigval :     3092.32  3092.44  3096.35  3096.42  3099.94  3100.57
eigval :     3105.62  3106.76  3109.11  3109.27  3110.88  3111.16
eigval :     3111.71  3113.39  3113.72  3114.02  3115.63  3119.97
eigval :     3130.70  3132.36  3139.16

   temp. (K)  partition function   enthalpy   heat capacity  entropy
                                   cal/mol     cal/K/mol   cal/K/mol   J/K/mol
 298.15  VIB  0.216E+32            38769.355    237.488    243.985
         ROT  0.263E+09              888.752      2.981     41.509
         INT  0.567E+40            39658.107    240.469    285.494
         TR   0.304E+29             1481.254      4.968     46.546
         TOT                       41139.3608   245.4367   332.0403  1389.2565

       T/K    H(0)-H(T)+PV         H(T)/Eh          T*S/Eh         G(T)/Eh
   ------------------------------------------------------------------------
    298.15    0.655597E-01    0.104290E+01    0.157763E+00    0.885136E+00
   ------------------------------------------------------------------------

         :::::::::::::::::::::::::::::::::::::::::::::::::::::
         ::                  THERMODYNAMIC                  ::
         :::::::::::::::::::::::::::::::::::::::::::::::::::::
         :: total free energy        -198.405448144207 Eh   ::
         ::.................................................::
         :: total energy             -199.290583898982 Eh   ::
         :: zero point energy           0.977339058519 Eh   ::
         :: G(RRHO) w/o ZPVE           -0.092203303744 Eh   ::
         :: G(RRHO) contrib.            0.885135754775 Eh   ::
         :::::::::::::::::::::::::::::::::::::::::::::::::::::

           -------------------------------------------------
          | TOTAL ENERGY             -199.290583898982 Eh   |
          | TOTAL ENTHALPY           -198.247685095920 Eh   |
          | TOTAL FREE ENERGY        -198.405448144207 Eh   |
          | GRADIENT NORM               0.000055665184 Eh/α |
          | HOMO-LUMO GAP               2.103102269051 eV   |
           -------------------------------------------------

 * finished run on 2025/07/20 at 21:55:05.470
