   * xtb version 6.7.1 (edcfbbe) compiled by 'albert@albert-system' on 2024-07-22

   ID    Z sym.   atoms
    1    6 C      1-7, 9-20, 22-24, 26-33, 35-49, 51, 53-60, 62-77
    2    8 O      8, 34, 61
    3    7 N      21, 25, 50, 52
    4    1 H      78-127

          program call               : xtb data2507/gas/DV-3CzCN/DV-3CzCN.xyz --gfn 2 --ohess vtight --parallel 40 --molden --ceasefiles --namespace data2507/gas/DV-3CzCN/DV-3CzCN_gas_S0_preOpt
          :  Hamiltonian                  GFN2-xTB          :
 * total energy  :  -199.2458755 Eh     change       -0.5243777E-08 Eh
 * total energy  :  -199.2681579 Eh     change       -0.2228244E-01 Eh
 * total energy  :  -199.2738554 Eh     change       -0.5697462E-02 Eh
 * total energy  :  -199.2753447 Eh     change       -0.1489303E-02 Eh
 * total energy  :  -199.2766901 Eh     change       -0.1345462E-02 Eh
 * total energy  :  -199.2776134 Eh     change       -0.9232733E-03 Eh
 * total energy  :  -199.2785022 Eh     change       -0.8888375E-03 Eh
 * total energy  :  -199.2791536 Eh     change       -0.6513401E-03 Eh
 * total energy  :  -199.2797867 Eh     change       -0.6331313E-03 Eh
 * total energy  :  -199.2803411 Eh     change       -0.5543613E-03 Eh
 * total energy  :  -199.2872509 Eh     change       -0.1227940E-06 Eh
 * total energy  :  -199.2872510 Eh     change       -0.1494632E-06 Eh
 * total energy  :  -199.2872512 Eh     change       -0.1837174E-06 Eh
 * total energy  :  -199.2872514 Eh     change       -0.1975431E-06 Eh
 * total energy  :  -199.2872516 Eh     change       -0.2167629E-06 Eh
 * total energy  :  -199.2872518 Eh     change       -0.2308871E-06 Eh
 * total energy  :  -199.2872521 Eh     change       -0.2396786E-06 Eh
 * total energy  :  -199.2872523 Eh     change       -0.2478403E-06 Eh
 * total energy  :  -199.2872523 Eh     change       -0.2671641E-11 Eh
   *** GEOMETRY OPTIMIZATION CONVERGED AFTER 185 ITERATIONS ***

 final structure:
================
127
 xtb: 6.7.1 (edcfbbe)
C            9.70248933746637        5.29614121677167        5.45948319179076
C            8.78391311435755        5.46019880605405        4.51511274412597
C            8.75292320410618        4.81951475502480        3.20615188600376
C            9.67173125986811        3.84522468124978        2.81234994643450
C            9.59713921550245        3.26609095404057        1.56239231148914
C            8.60842413898535        3.64569794596452        0.66227208280952
C            8.54689040046860        3.02064902085979       -0.70982117019193
O            7.26711345262836        3.04988339723319       -1.30103321151833
C            6.27100744202039        2.31382838921189       -0.73963320863161
C            6.39528709738990        1.50322085710592        0.37950362404964
C            5.30050156055012        0.80363932164612        0.87814095324452
C            4.05577271653524        0.86159793015651        0.28503092562218
C            3.92756747834080        1.65013264320949       -0.85058535813544
C            5.01461699409114        2.39114703771637       -1.35357845060934
C            4.52669142928568        3.13972530912720       -2.47700299526189
C            5.12747062534685        4.01728241310516       -3.36938711489621
C            4.35709931554154        4.56080648064716       -4.37844401527254
C            3.01302610469877        4.22446827450934       -4.51386494904451
C            2.39669338762504        3.35170380217358       -3.63652717168793
C            3.15540862306349        2.82631773851281       -2.60261533938848
N            2.80419776955934        1.91955778333647       -1.61543771106325
C            1.53928081950760        1.37106487581489       -1.41676708569077
C            1.40335855554217        0.00123457068678       -1.20344131790650
C            0.15397463454368       -0.55888131448208       -0.97748625977944
N            0.03788756360669       -1.93436682660470       -0.79069538122842
C            0.57146341882963       -2.90394053538800       -1.62510884211295
C            1.27854337966600       -2.76187718583881       -2.80855855637221
C            1.66892612393234       -3.91365022093245       -3.46701975749498
C            1.35476148475616       -5.17605667664162       -2.97111101574896
C            0.62867490869157       -5.32327139003628       -1.80556152323322
C            0.23160700004395       -4.17989265498612       -1.12530921894108
C           -0.52728402349499       -3.95912749265455        0.07273485759620
C           -1.09767575225752       -4.83173373718222        1.00823304944682
O           -0.93988627511422       -6.15771680814276        0.77154418121692
C           -1.45947927273008       -7.08593077306026        1.70018545180132
C           -1.05429086769908       -8.46951784606047        1.26806649778926
C           -1.93721966055854       -9.53666242163240        1.36846900885542
C           -1.55328870807776      -10.80736837885554        0.98936322335641
C           -0.27424580472308      -11.04963796202416        0.48710505806767
C            0.18133894958932      -12.36966970226176        0.06895600134674
C           -0.49229698915081      -13.51012240458765        0.15962727930935
C            0.60231987390839       -9.96787814671507        0.38246655160856
C            0.22277052592375       -8.69985598026906        0.77230330261447
C           -1.75620280107226       -4.27391693490653        2.09492712635240
C           -1.82183443518264       -2.89304093437675        2.25854692496356
C           -1.25804567639113       -2.01823711827948        1.35364893605075
C           -0.63185874725566       -2.56608317504239        0.24336703528077
C           -0.98778981969309        0.26277966460141       -0.97294798229853
C           -2.27782046072783       -0.30419737894608       -0.89411599422686
N           -3.32933875401617       -0.76223469322620       -0.89100019626636
C           -0.84448572753909        1.64890228520782       -1.16747569268825
N           -1.96444276601291        2.47899566034512       -1.13259736566115
C           -2.33723957925047        3.37263264659429       -2.12177102996167
C           -1.75565104397502        3.61862378273097       -3.35463032045286
C           -2.35424519284151        4.55608321910089       -4.17564911159907
C           -3.51192896539601        5.22476661623359       -3.78719404560091
C           -4.11297427646948        4.96198449813285       -2.57171163322382
C           -3.52603998712656        4.02623543590955       -1.73073180587106
C           -3.87309220145361        3.50177335805985       -0.44031546015168
C           -4.91920804219866        3.77826081818461        0.44857881180828
O           -5.82295061620738        4.71321130305794        0.04943466186386
C           -6.88980341301049        5.03659058347818        0.91174917135356
C           -7.88190816063374        3.91940599323311        1.12550653674555
C           -8.70349238646013        3.92448342738962        2.24693212503857
C           -9.62831568154033        2.92066394386933        2.44700545074983
C           -9.75495921997604        1.87217456523668        1.53419379721925
C          -10.71256210540375        0.78563495638809        1.70023096205791
C          -11.67509394753365        0.70844706808795        2.61126158957237
C           -8.91907575959972        1.87284682069055        0.41684363316983
C           -8.00243512287676        2.88404783842767        0.20910748173023
C           -4.94130324248014        3.09375446954347        1.65515476514402
C           -3.94300879627006        2.17885151692625        1.97573416591276
C           -2.90255257194346        1.89514336024530        1.11583797818152
C           -2.89182014783642        2.54888066649744       -0.10726477419075
C            0.41230749216921        2.19031757177504       -1.39500474918668
C            7.69224323795272        4.61707928949876        1.04160790917591
C            7.76120913287653        5.18859712125895        2.29618129280789
H           10.55117681864006        4.64429343839701        5.34273336043556
H            9.63896290866179        5.81989483815128        6.39781872709311
H            7.96090085697560        6.14050576736590        4.69908574071672
H           10.44738170128053        3.52917023887482        3.49221149943916
H           10.31405320210899        2.50809516711252        1.27786369967481
H            9.17483483472770        3.59674619919819       -1.40041435082411
H            8.93416739323644        1.99242098587816       -0.67784541984457
H            7.33740244628406        1.41958311317041        0.89648533355855
H            5.43525187577850        0.19938831544427        1.76265478821723
H            3.21847715523568        0.32793582628463        0.70553062096816
H            6.17422150064426        4.25474278158826       -3.26792329463395
H            4.80197872510512        5.24834990503005       -5.08222911402141
H            2.43848886748561        4.65005242337773       -5.32316514556510
H            1.36047128849428        3.08301569179214       -3.76816346979845
H            2.27384015350693       -0.63518664854246       -1.21750397659756
H            1.50923074892928       -1.78875386364809       -3.21593175109852
H            2.22462179399042       -3.82955352329518       -4.38930602690402
H            1.67625256284735       -6.05110578828789       -3.51618032347404
H            0.35969281165839       -6.29651978332282       -1.42733580953179
H           -2.55436988346254       -7.00795020240732        1.75054656742863
H           -1.05133344027473       -6.88347336931570        2.70405481841302
H           -2.93560946348735       -9.37025004271014        1.74787053154418
H           -2.26027837455923      -11.61746742762940        1.07699180971047
H            1.18062309800856      -12.38557763600949       -0.34980323642174
H           -1.48568892641469      -13.57115637766516        0.56969237283803
H           -0.06592453596765      -14.43944874542392       -0.17725918206223
H            1.59796008987052      -10.12945791392009       -0.00647429551545
H            0.91291151434080       -7.87406803552925        0.68708501247703
H           -2.22323773694104       -4.90167896446586        2.83698972829098
H           -2.32945618751970       -2.49924393722493        3.12605680477233
H           -1.30491863553667       -0.95358711714130        1.51518130868630
H           -0.87366675418969        3.08531628552048       -3.67529313655058
H           -1.91669974929021        4.76894884666677       -5.13985925659047
H           -3.94944000229808        5.95130035294643       -4.45566893870798
H           -5.02030882804389        5.46088787765898       -2.27133260632324
H           -7.39109447241262        5.87665852070859        0.41535000155030
H           -6.50832515637641        5.39451142959107        1.87900154749158
H           -8.61350551738527        4.72443485804783        2.96920978266417
H          -10.24930738134492        2.94598092714342        3.32893353629884
H          -10.60616057648132       -0.01795258423361        0.98145349224910
H          -11.84707722193397        1.47660696490253        3.34573619729166
H          -12.34029952911098       -0.13701270218088        2.65202885601844
H           -8.99355717328736        1.06950345524297       -0.30199383508604
H           -7.36829259063169        2.86785427330542       -0.66497721071516
H           -5.73620302355443        3.25678847301697        2.36488661990270
H           -3.98999613515334        1.67825826244846        2.93099546427413
H           -2.13007223217559        1.19645776575392        1.39421899830672
H            0.51605207387903        3.25751541408782       -1.51328933164103
H            6.91963096476624        4.91910825752436        0.34965625777444
H            7.03675337421606        5.93969001444422        2.57768356541502

          :  Hamiltonian                  GFN2-xTB          :
         :: gradient norm              0.000111332400 Eh/a0 ::
         :: HOMO-LUMO gap              2.234471886719 eV    ::
         :: SCC energy              -202.875298296203 Eh    ::
         :: -> dispersion             -0.178772465286 Eh    ::
         :: repulsion energy           3.588045971940 Eh    ::

    * Orbital Energies and Occupations

         #    Occupation            Energy/Eh            Energy/eV
      -------------------------------------------------------------
         1        2.0000           -0.7186381             -19.5551
       ...           ...                  ...                  ...
       172        2.0000           -0.4045830             -11.0093
       173        2.0000           -0.3988310             -10.8527
       174        2.0000           -0.3945712             -10.7368
       175        2.0000           -0.3934476             -10.7063
       176        2.0000           -0.3870229             -10.5314
       177        2.0000           -0.3837236             -10.4416
       178        2.0000           -0.3808610             -10.3638
       179        2.0000           -0.3768178             -10.2537
       180        2.0000           -0.3723897             -10.1332
       181        2.0000           -0.3715008             -10.1091
       182        2.0000           -0.3659122              -9.9570
       183        2.0000           -0.3621534              -9.8547
       184        2.0000           -0.3602072              -9.8017 (HOMO)
       185                         -0.2780919              -7.5673 (LUMO)
       186                         -0.2565851              -6.9820
       187                         -0.2551499              -6.9430
       188                         -0.2532644              -6.8917
       189                         -0.2500804              -6.8050
       190                         -0.2445977              -6.6558
       191                         -0.2399859              -6.5303
       192                         -0.2384184              -6.4877
       193                         -0.2283021              -6.2124
       194                         -0.2238157              -6.0903
       195                         -0.2219344              -6.0391
       ...                                ...                  ...
       358                          1.1723898              31.9024
      -------------------------------------------------------------
                  HL-Gap            0.0821153 Eh            2.2345 eV

     #   Z          covCN         q      C6AA      α(0)
     1   6 C        2.837    -0.085    30.129     8.995
     2   6 C        2.896    -0.030    28.748     8.791
     3   6 C        2.970     0.014    27.702     8.633
     4   6 C        2.923    -0.032    28.803     8.801
     5   6 C        2.921    -0.041    29.010     8.833
     6   6 C        2.969    -0.001    28.056     8.688
     7   6 C        3.700     0.078    19.433     6.304
     8   8 O        1.705    -0.266    18.409     5.793
     9   6 C        2.858     0.144    24.865     8.173
    10   6 C        2.918    -0.077    29.922     8.970
    11   6 C        2.926    -0.034    28.845     8.808
    12   6 C        2.909    -0.063    29.569     8.916
    13   6 C        3.069     0.046    26.910     8.506
    14   6 C        3.071    -0.037    28.837     8.805
    15   6 C        3.068    -0.007    28.127     8.696
    16   6 C        2.913    -0.032    28.804     8.801
    17   6 C        2.921    -0.039    28.967     8.826
    18   6 C        2.924    -0.033    28.828     8.805
    19   6 C        2.911    -0.050    29.237     8.866
    20   6 C        3.070     0.044    26.939     8.510
    21   7 N        2.805    -0.039    21.990     6.965
    22   6 C        2.909     0.073    26.368     8.420
    23   6 C        2.925    -0.066    29.640     8.928
    24   6 C        2.915     0.075    26.328     8.414
    25   7 N        2.806    -0.043    22.075     6.978
    26   6 C        3.071     0.045    26.922     8.508
    27   6 C        2.910    -0.051    29.260     8.870
    28   6 C        2.924    -0.034    28.838     8.807
    29   6 C        2.921    -0.039    28.971     8.827
    30   6 C        2.913    -0.032    28.797     8.800
    31   6 C        3.068    -0.006    28.091     8.691
    32   6 C        3.073    -0.035    28.800     8.799
    33   6 C        2.858     0.143    24.880     8.176
    34   8 O        1.706    -0.263    18.366     5.786
    35   6 C        3.699     0.083    19.346     6.291
    36   6 C        2.969     0.006    27.884     8.662
    37   6 C        2.921    -0.038    28.953     8.824
    38   6 C        2.923    -0.032    28.801     8.801
    39   6 C        2.970     0.014    27.696     8.632
    40   6 C        2.896    -0.030    28.743     8.790
    41   6 C        2.837    -0.086    30.136     8.996
    42   6 C        2.928    -0.034    28.849     8.808
    43   6 C        2.921    -0.030    28.749     8.793
    44   6 C        2.918    -0.078    29.955     8.975
    45   6 C        2.926    -0.031    28.779     8.798
    46   6 C        2.909    -0.057    29.415     8.893
    47   6 C        3.068     0.049    26.838     8.495
    48   6 C        2.974    -0.018    28.445     8.748
    49   6 C        1.909     0.120    28.141     8.567
    50   7 N        0.911    -0.237    26.208     7.404
    51   6 C        2.916     0.075    26.326     8.414
    52   7 N        2.806    -0.044    22.090     6.981
    53   6 C        3.073     0.045    26.909     8.505
    54   6 C        2.910    -0.050    29.230     8.865
    55   6 C        2.924    -0.034    28.836     8.806
    56   6 C        2.921    -0.039    28.977     8.828
    57   6 C        2.913    -0.032    28.792     8.799
    58   6 C        3.069    -0.006    28.101     8.692
    59   6 C        3.072    -0.036    28.816     8.802
    60   6 C        2.858     0.145    24.850     8.171
    61   8 O        1.705    -0.266    18.409     5.793
    62   6 C        3.700     0.078    19.428     6.303
    63   6 C        2.969    -0.002    28.062     8.689
    64   6 C        2.921    -0.041    29.030     8.836
    65   6 C        2.923    -0.033    28.811     8.802
    66   6 C        2.971     0.014    27.702     8.633
    67   6 C        2.896    -0.030    28.740     8.790
    68   6 C        2.837    -0.086    30.147     8.998
    69   6 C        2.928    -0.033    28.822     8.804
    70   6 C        2.920    -0.030    28.742     8.792
    71   6 C        2.918    -0.076    29.895     8.966
    72   6 C        2.926    -0.031    28.784     8.798
    73   6 C        2.909    -0.057    29.416     8.893
    74   6 C        3.071     0.049    26.835     8.494
    75   6 C        2.924    -0.064    29.599     8.922
    76   6 C        2.920    -0.031    28.770     8.796
    77   6 C        2.928    -0.034    28.846     8.808
    78   1 H        0.926     0.040     2.451     2.448
    79   1 H        0.926     0.038     2.470     2.458
    80   1 H        0.925     0.035     2.514     2.480
    81   1 H        0.926     0.039     2.466     2.456
    82   1 H        0.925     0.027     2.624     2.533
    83   1 H        0.924     0.058     2.225     2.333
    84   1 H        0.923     0.035     2.522     2.484
    85   1 H        0.926     0.034     2.532     2.488
    86   1 H        0.926     0.035     2.520     2.483
    87   1 H        0.926     0.030     2.582     2.513
    88   1 H        0.926     0.046     2.372     2.408
    89   1 H        0.926     0.031     2.579     2.511
    90   1 H        0.926     0.032     2.564     2.504
    91   1 H        0.926     0.026     2.638     2.540
    92   1 H        0.926     0.059     2.211     2.326
    93   1 H        0.926     0.025     2.663     2.552
    94   1 H        0.926     0.030     2.584     2.514
    95   1 H        0.926     0.030     2.585     2.514
    96   1 H        0.926     0.047     2.352     2.398
    97   1 H        0.923     0.034     2.532     2.488
    98   1 H        0.923     0.034     2.526     2.485
    99   1 H        0.926     0.031     2.574     2.509
   100   1 H        0.926     0.039     2.455     2.450
   101   1 H        0.925     0.035     2.515     2.480
   102   1 H        0.926     0.040     2.452     2.449
   103   1 H        0.926     0.038     2.476     2.461
   104   1 H        0.926     0.035     2.513     2.479
   105   1 H        0.926     0.046     2.372     2.408
   106   1 H        0.926     0.032     2.565     2.504
   107   1 H        0.926     0.037     2.492     2.469
   108   1 H        0.926     0.024     2.677     2.559
   109   1 H        0.926     0.021     2.712     2.575
   110   1 H        0.926     0.030     2.585     2.514
   111   1 H        0.926     0.030     2.586     2.515
   112   1 H        0.926     0.046     2.369     2.407
   113   1 H        0.924     0.057     2.235     2.338
   114   1 H        0.923     0.034     2.533     2.489
   115   1 H        0.925     0.026     2.648     2.545
   116   1 H        0.926     0.037     2.483     2.464
   117   1 H        0.925     0.036     2.498     2.472
   118   1 H        0.926     0.039     2.467     2.456
   119   1 H        0.926     0.037     2.486     2.466
   120   1 H        0.926     0.037     2.486     2.466
   121   1 H        0.926     0.043     2.409     2.427
   122   1 H        0.926     0.035     2.522     2.483
   123   1 H        0.926     0.036     2.504     2.475
   124   1 H        0.926     0.022     2.702     2.570
   125   1 H        0.926     0.058     2.223     2.332
   126   1 H        0.926     0.041     2.435     2.440
   127   1 H        0.926     0.034     2.525     2.485

molecular dipole:
                 x           y           z       tot (Debye)
 q only:        0.991       0.061       0.873
   full:        1.336       0.241       1.222       4.643

 projected vibrational frequencies (cm⁻¹)
eigval :       -0.00    -0.00    -0.00     0.00     0.00     0.00
eigval :        4.75     5.13     8.18     9.49    11.27    13.42
eigval :       17.18    17.72    19.69    21.24    21.61    25.31
eigval :       26.02    27.77    30.33    33.69    34.00    38.42
eigval :       41.87    54.23    62.78    71.83    79.55    84.24
eigval :       88.51    98.12   100.16   103.28   106.71   111.62
eigval :      114.90   118.84   120.30   122.41   128.36   138.18
eigval :      149.06   152.89   166.35   171.36   173.51   191.98
eigval :      203.54   205.59   213.55   220.17   231.53   238.17
eigval :      245.07   249.08   249.82   258.05   261.33   270.12
eigval :      271.53   288.53   297.89   302.12   302.79   305.01
eigval :      311.73   313.34   325.26   334.45   338.62   351.54
eigval :      365.51   369.01   369.11   369.87   402.98   403.92
eigval :      404.50   405.97   409.99   410.62   415.36   418.50
eigval :      421.12   430.85   435.29   436.75   437.79   469.20
eigval :      482.17   483.40   489.55   500.14   504.05   507.76
eigval :      521.23   522.75   532.72   535.09   538.81   539.44
eigval :      539.55   540.74   541.02   548.71   556.48   564.38
eigval :      575.73   578.44   583.32   586.06   592.41   600.13
eigval :      606.60   608.64   609.41   611.92   616.14   618.81
eigval :      621.11   623.26   635.34   653.49   656.63   666.81
eigval :      669.11   669.35   672.60   677.74   692.46   696.63
eigval :      698.50   702.30   705.66   706.38   707.20   715.80
eigval :      731.34   738.72   743.70   744.83   764.21   766.36
eigval :      770.59   773.88   776.32   779.79   781.78   785.58
eigval :      788.11   805.25   809.38   810.97   814.30   843.06
eigval :      845.25   848.84   852.77   853.16   855.04   858.73
eigval :      861.79   864.94   867.15   867.56   867.63   872.94
eigval :      873.25   884.59   888.67   889.18   889.57   897.52
eigval :      899.51   901.86   905.46   907.37   908.86   908.95
eigval :      912.72   913.16   913.37   917.04   921.49   923.93
eigval :      924.93   926.30   926.54   928.56   948.75   960.44
eigval :      983.53   987.27   990.72   998.41  1003.93  1004.12
eigval :     1006.08  1012.04  1012.16  1012.17  1012.79  1017.81
eigval :     1023.64  1034.18  1035.94  1038.10  1050.66  1061.01
eigval :     1067.23  1072.00  1072.28  1091.90  1104.68  1115.47
eigval :     1121.95  1124.34  1125.93  1134.12  1139.56  1147.24
eigval :     1149.93  1150.29  1153.85  1170.37  1176.34  1178.96
eigval :     1181.71  1188.82  1190.89  1193.81  1196.54  1196.77
eigval :     1197.86  1199.95  1202.70  1204.32  1205.43  1208.13
eigval :     1212.57  1214.00  1215.47  1222.37  1230.14  1230.39
eigval :     1248.01  1248.94  1250.52  1253.72  1260.79  1261.22
eigval :     1267.42  1275.90  1276.02  1276.61  1288.99  1292.41
eigval :     1295.00  1297.23  1298.15  1302.59  1303.16  1306.01
eigval :     1311.48  1313.43  1323.72  1325.27  1327.38  1333.28
eigval :     1340.15  1341.31  1341.76  1344.86  1360.40  1361.01
eigval :     1362.37  1367.66  1369.29  1369.62  1394.42  1405.25
eigval :     1407.85  1411.83  1411.91  1412.13  1420.06  1420.09
eigval :     1420.19  1420.53  1421.74  1422.69  1445.32  1452.04
eigval :     1452.69  1453.40  1465.97  1467.06  1478.82  1478.86
eigval :     1481.03  1492.56  1492.63  1493.60  1495.35  1496.18
eigval :     1497.54  1525.31  1558.10  1573.73  1573.79  1574.60
eigval :     1577.42  1577.88  1578.84  1588.95  1590.78  1592.22
eigval :     1592.86  1593.56  1595.05  1601.80  1601.86  1602.11
eigval :     1608.11  1608.71  1610.24  1676.18  1676.34  1676.44
eigval :     2362.27  2839.15  2875.94  2881.43  2892.81  2927.82
eigval :     2929.66  3044.45  3045.47  3047.20  3064.88  3066.73
eigval :     3070.97  3071.38  3072.94  3075.81  3076.72  3076.82
eigval :     3080.00  3082.42  3083.83  3086.38  3086.67  3087.82
eigval :     3089.21  3089.52  3092.47  3092.53  3093.26  3094.70
eigval :     3096.27  3098.22  3098.25  3100.30  3100.59  3101.97
eigval :     3103.14  3108.84  3109.72  3110.12  3111.18  3111.40
eigval :     3111.56  3111.58  3111.93  3113.08  3113.20  3114.66
eigval :     3130.14  3131.55  3131.69

   temp. (K)  partition function   enthalpy   heat capacity  entropy
                                   cal/mol     cal/K/mol   cal/K/mol   J/K/mol
 298.15  VIB  0.498E+36            39476.812    234.018    253.366
         ROT  0.493E+09              888.752      2.981     42.760
         INT  0.246E+45            40365.564    236.999    296.125
         TR   0.304E+29             1481.254      4.968     46.546
         TOT                       41846.8180   241.9667   342.6715  1433.7374

       T/K    H(0)-H(T)+PV         H(T)/Eh          T*S/Eh         G(T)/Eh
   ------------------------------------------------------------------------
    298.15    0.666871E-01    0.104297E+01    0.162814E+00    0.880157E+00
   ------------------------------------------------------------------------

         :::::::::::::::::::::::::::::::::::::::::::::::::::::
         ::                  THERMODYNAMIC                  ::
         :::::::::::::::::::::::::::::::::::::::::::::::::::::
         :: total free energy        -198.407095239901 Eh   ::
         ::.................................................::
         :: total energy             -199.287252324264 Eh   ::
         :: zero point energy           0.976284207203 Eh   ::
         :: G(RRHO) w/o ZPVE           -0.096127122840 Eh   ::
         :: G(RRHO) contrib.            0.880157084362 Eh   ::
         :::::::::::::::::::::::::::::::::::::::::::::::::::::

           -------------------------------------------------
          | TOTAL ENERGY             -199.287252324264 Eh   |
          | TOTAL ENTHALPY           -198.244280967687 Eh   |
          | TOTAL FREE ENERGY        -198.407095239901 Eh   |
          | GRADIENT NORM               0.000111411858 Eh/α |
          | HOMO-LUMO GAP               2.234471010290 eV   |
           -------------------------------------------------

 * finished run on 2025/07/20 at 20:49:57.031
