   * xtb version 6.7.1 (edcfbbe) compiled by 'albert@albert-system' on 2024-07-22

   ID    Z sym.   atoms
    1    6 C      1-7, 9-20, 22-24, 26-33, 35-49, 51, 53-60, 62-77
    2    8 O      8, 34, 61
    3    7 N      21, 25, 50, 52
    4    1 H      78-127

          program call               : xtb data2507/gas/DV-3CzCN/DV-3CzCN_gas_S0_finalOpt.xtbopt.xyz --gfn 2 --spinpol --tblite --uhf 2 --ohess vtight --parallel 40 --molden --ceasefiles --namespace data2507/gas/DV-3CzCN/DV-3CzCN_gas_T1_preOpt
 * total energy  :  -199.1958839 Eh     change       -0.4697870E-07 Eh
 * total energy  :  -199.1998308 Eh     change       -0.3946854E-02 Eh
 * total energy  :  -199.2012525 Eh     change       -0.1421751E-02 Eh
 * total energy  :  -199.2013639 Eh     change       -0.1113889E-03 Eh
 * total energy  :  -199.2014452 Eh     change       -0.8133769E-04 Eh
 * total energy  :  -199.2014710 Eh     change       -0.2581745E-04 Eh
 * total energy  :  -199.2015023 Eh     change       -0.3127264E-04 Eh
 * total energy  :  -199.2015164 Eh     change       -0.1408386E-04 Eh
 * total energy  :  -199.2015240 Eh     change       -0.7613983E-05 Eh
 * total energy  :  -199.2015325 Eh     change       -0.8510406E-05 Eh
 * total energy  :  -199.2015962 Eh     change        0.5858092E-07 Eh
 * total energy  :  -199.2015968 Eh     change       -0.5849593E-06 Eh
 * total energy  :  -199.2015973 Eh     change       -0.4619039E-06 Eh
 * total energy  :  -199.2015976 Eh     change       -0.3669152E-06 Eh
 * total energy  :  -199.2015982 Eh     change       -0.5413065E-06 Eh
 * total energy  :  -199.2015986 Eh     change       -0.4427463E-06 Eh
 * total energy  :  -199.2015994 Eh     change       -0.8033438E-06 Eh
 * total energy  :  -199.2016002 Eh     change       -0.7315977E-06 Eh
 * total energy  :  -199.2016002 Eh     change       -0.6238892E-07 Eh
   *** GEOMETRY OPTIMIZATION CONVERGED AFTER 44 ITERATIONS ***

 final structure:
================
127
 xtb: 6.7.1 (edcfbbe)
C            4.89289341558431        0.29801945561776       -3.88529727705835
C            4.95738198094230        1.35504380739197       -3.08640777358354
C            5.97407183578998        1.57559952337829       -2.06374601336274
C            7.24247123136282        1.00183512374455       -2.13658067413539
C            8.14868392448295        1.15759186140597       -1.10696281985595
C            7.81731922555414        1.89044766292848        0.02577556726990
C            8.69770150301203        1.87108372967726        1.24772979591259
O            8.36737933934236        0.76113245392034        2.09008471678064
C            7.02065337926811        0.72468852807427        2.39511960845190
C            6.48849297573578        1.52016413554866        3.40001338301967
C            5.11493861531261        1.56347714600706        3.62965813890359
C            4.22701365342851        0.87678118010775        2.82346393682390
C            4.75099696640534        0.08805233209608        1.80718504222627
C            6.15005003436645       -0.05755883642498        1.63658621374181
C            6.33731137038534       -0.99778827469395        0.57197380787284
C            7.45745750542758       -1.58116399584148       -0.00201176192679
C            7.27996117344786       -2.43558286765137       -1.07321931682171
C            6.00787853575812       -2.70002745723607       -1.57954984430652
C            4.87703007924465       -2.15545713297680       -1.00222558051511
C            5.04338947338393       -1.32562699539657        0.09758352816064
N            4.09715742399682       -0.66076357022989        0.85098655824823
C            2.72581344272523       -0.66281985137992        0.62244205362394
C            2.02117338672440       -1.88034043499370        0.45640029986582
C            0.67264189950853       -1.87793683635339        0.26419113781860
N           -0.05288564935217       -3.07049431393082        0.12725268520600
C            0.05501087501984       -3.98713588677043       -0.89251815096339
C            0.99323351709126       -4.06788631700149       -1.91200952924536
C            0.86083653604749       -5.09316743686797       -2.82796626755900
C           -0.18048467873580       -6.01579507335938       -2.73853710715270
C           -1.12774633716387       -5.93264479097965       -1.73430267806839
C           -1.01552895387022       -4.91069052995813       -0.80392701876278
C           -1.79708736903997       -4.51475030727866        0.33430914748928
C           -2.99996118084613       -4.96546507557152        0.88093183822319
O           -3.66998877442439       -5.95356316180828        0.22953974102561
C           -5.09196294425823       -5.90320661818200        0.27834891116608
C           -5.60628207495366       -4.49172962089241        0.13455544592170
C           -6.64372220798246       -4.01509116192554        0.92419211097830
C           -6.98093220855926       -2.67528891926683        0.89989626494999
C           -6.25957051969235       -1.77122597427130        0.12126699927365
C           -6.51715511879585       -0.33894423582476        0.23747954517613
C           -5.59402300906420        0.59526296747497        0.04833610907827
C           -5.26915030479342       -2.26850404314908       -0.72516628533263
C           -4.96133527097609       -3.61194729177828       -0.72934110403379
C           -3.45862994204056       -4.33880516260046        2.04083472787271
C           -2.77842923481295       -3.26694297365231        2.60191156311411
C           -1.62815226928432       -2.75750947980174        2.03042566509455
C           -1.15685567746626       -3.38570660085669        0.88593903014310
C           -0.07112376234280       -0.63743403377048        0.14317401116448
C           -1.35859257823829       -0.63958572782927       -0.33751013850026
N           -2.45206863131914       -0.65434752788554       -0.73584825599231
C            0.67125600204081        0.59299289341368        0.33910697516977
N            0.00166132690276        1.81132735982809        0.18453125690173
C            0.40550555403147        2.83812403483960       -0.64071585509810
C            1.51566244460269        2.92278918936235       -1.47194354026886
C            1.67898465290051        4.07691361370038       -2.21272523204943
C            0.75932677398953        5.12271586721279       -2.14163261193863
C           -0.36425952407930        5.03253293636133       -1.34206948524687
C           -0.54993013055599        3.88216095258113       -0.58897332826066
C           -1.57828763730379        3.44210269279746        0.30957986215180
C           -2.76973925357997        4.02592963175909        0.75180688536277
O           -3.06627319240718        5.25535907503442        0.25966670505252
C           -4.29501293908588        5.85478577194835        0.61225413276069
C           -5.50674835002453        5.09610640084843        0.12846717719795
C           -5.43457499106679        4.30070478104005       -1.00793659929224
C           -6.53441444202208        3.58255686760088       -1.43309195719274
C           -7.74314013780985        3.64959865575945       -0.74059861852781
C           -8.91358565097637        2.87245608726849       -1.13466549088483
C           -8.88854096365384        1.75183147152954       -1.84449342946713
C           -7.81817381043754        4.48491272302477        0.37454109547815
C           -6.71345938743863        5.18863182697416        0.81071385708437
C           -3.54414280635360        3.30758259880725        1.65944267546391
C           -3.13686156521023        2.06016246120561        2.11902288968263
C           -1.96252716358957        1.46901215289535        1.69687879362011
C           -1.19916884774191        2.16172134854154        0.76540158985931
C            2.01392188549228        0.55922635062931        0.58015025979881
C            6.57986638688791        2.52447071041749        0.07025387439951
C            5.67566130645147        2.37684834383357       -0.96179858084288
H            5.61509275072887       -0.49942819625701       -3.83778812676447
H            4.10194283406996        0.18415401921857       -4.60687666598780
H            4.18590020359295        2.11328653129256       -3.14204169687537
H            7.51730633096618        0.42228508237785       -3.00438259955676
H            9.12034980448715        0.69033250557881       -1.17274901964521
H            9.74775343116523        1.72136240843534        0.98873178687405
H            8.59088273889924        2.80815185570042        1.81259917679166
H            7.15528223255493        2.11778417098788        4.00342242406376
H            4.73691321141079        2.17325596625106        4.43631845279041
H            3.16265361438240        0.94598640140741        2.98604491553616
H            8.43853297457884       -1.36643171915264        0.39067591431217
H            8.13790977672831       -2.90044280066040       -1.53599626528969
H            5.90325915891002       -3.35008345895697       -2.43577077835877
H            3.89739510057546       -2.36100481195242       -1.40412720012837
H            2.55025572673121       -2.81678760064169        0.55006082323695
H            1.79234350472707       -3.34663634728755       -1.99056355783015
H            1.57745522701769       -5.18153276799079       -3.63098013785092
H           -0.24748812546647       -6.80497335904007       -3.47253242451664
H           -1.94085867954217       -6.63786645374809       -1.66591122611048
H           -5.46252930964193       -6.35402074726158        1.20917808432204
H           -5.41334120459789       -6.53411058577936       -0.55785529135643
H           -7.17541016458626       -4.69283063922205        1.57868169771047
H           -7.77867366095997       -2.31377382884141        1.53385660711410
H           -7.51674031544976       -0.06177265439661        0.55248140135567
H           -4.58030083509507        0.34902796281360       -0.22085441102465
H           -5.81627197890088        1.64089767836724        0.17656851554410
H           -4.72066539633879       -1.59572096390650       -1.36298469006165
H           -4.18152232261086       -3.97931423999999       -1.38058143222554
H           -4.36545406545467       -4.68160223435030        2.51218919161400
H           -3.17247350670279       -2.81392917387510        3.49881426933902
H           -1.11293025874685       -1.91159415824496        2.45732425000956
H            2.21625155005303        2.10482501332542       -1.55018579862704
H            2.53456070415055        4.17351829015930       -2.86549053406788
H            0.92647249757808        6.01055019512583       -2.73313863144699
H           -1.08999660671651        5.82877642808989       -1.29860418801844
H           -4.25933335520203        6.84006663617136        0.13207840547627
H           -4.35112582411553        6.00877166286026        1.69912690329229
H           -4.50394809031734        4.23392298914353       -1.55218999364264
H           -6.45612498110244        2.96737945704872       -2.31577128364031
H           -9.85985719849186        3.25301849324867       -0.76898892812414
H           -7.97008749050436        1.31018663577644       -2.19170767238663
H           -9.79257895288469        1.21960677193278       -2.08680137536636
H           -8.74913105310353        4.56215262586539        0.91824357274306
H           -6.78483532548172        5.81399240613555        1.69008071125067
H           -4.47807779420212        3.70803940410089        2.01902359955714
H           -3.76503439226577        1.53990027013146        2.82559129063768
H           -1.66351796555478        0.50415308826534        2.07119732838494
H            2.55856147336444        1.48157266443715        0.71295307705707
H            6.31517757794393        3.12328698966725        0.93071423739870
H            4.71197917915378        2.86349396558877       -0.90101908187499

 projected vibrational frequencies (cm⁻¹)
eigval :       -0.00    -0.00    -0.00     0.00     0.00     0.00
eigval :        8.84    10.25    12.72    15.65    17.45    19.20
eigval :       20.16    22.94    27.48    29.50    33.61    36.68
eigval :       42.44    45.83    51.32    57.75    59.32    65.40
eigval :       68.17    78.18    81.84    84.53    89.95    93.24
eigval :       96.35   105.36   108.97   112.32   113.92   115.34
eigval :      118.31   124.44   128.88   131.71   140.67   146.99
eigval :      149.75   156.51   168.87   174.92   187.31   199.97
eigval :      203.08   205.45   206.32   220.77   225.18   241.68
eigval :      246.60   247.69   249.64   255.94   258.63   268.89
eigval :      270.90   291.16   300.44   303.66   312.65   317.30
eigval :      324.12   325.10   327.80   339.89   352.13   363.95
eigval :      369.01   372.51   377.48   380.03   384.32   386.85
eigval :      390.57   391.34   406.05   408.90   410.08   414.84
eigval :      417.23   421.57   429.65   436.91   441.83   451.28
eigval :      473.15   474.61   486.61   493.95   497.83   505.93
eigval :      506.38   513.89   529.20   529.68   531.32   533.95
eigval :      534.62   535.47   536.22   536.82   537.90   551.94
eigval :      557.99   561.49   574.09   580.84   593.53   598.75
eigval :      604.18   604.45   605.19   609.86   613.05   617.05
eigval :      624.39   630.02   635.69   642.62   648.65   651.45
eigval :      660.75   668.78   672.04   672.84   677.45   695.29
eigval :      700.44   702.95   705.84   706.99   711.52   712.19
eigval :      726.21   731.50   747.27   752.58   757.29   762.67
eigval :      768.90   771.93   772.63   773.48   775.86   781.53
eigval :      794.60   800.92   811.41   815.85   822.51   833.21
eigval :      843.44   847.74   849.52   855.77   856.32   859.24
eigval :      860.45   862.66   864.40   868.65   869.20   870.89
eigval :      876.03   877.50   888.35   890.32   891.60   894.87
eigval :      902.25   904.66   905.38   906.16   906.57   908.61
eigval :      911.43   915.08   915.28   915.52   919.35   919.74
eigval :      922.82   927.48   928.44   930.69   939.96   947.76
eigval :      964.42   979.37   984.52   986.88   991.87  1000.40
eigval :     1002.28  1003.84  1007.73  1011.56  1012.68  1014.46
eigval :     1019.44  1020.43  1034.58  1036.29  1037.12  1039.45
eigval :     1046.88  1061.08  1067.63  1069.59  1076.30  1097.97
eigval :     1098.31  1109.55  1117.72  1121.75  1125.24  1132.82
eigval :     1147.38  1147.65  1147.90  1161.04  1162.24  1172.31
eigval :     1175.50  1176.56  1180.21  1182.04  1186.68  1192.39
eigval :     1193.93  1195.75  1195.99  1198.37  1202.94  1204.35
eigval :     1206.65  1209.13  1212.61  1218.02  1222.26  1227.51
eigval :     1231.62  1233.52  1240.22  1247.81  1248.58  1248.74
eigval :     1252.97  1266.40  1272.27  1273.80  1275.53  1276.48
eigval :     1280.26  1286.20  1286.69  1291.29  1293.21  1298.17
eigval :     1298.32  1301.69  1304.05  1306.76  1311.24  1317.48
eigval :     1326.17  1334.34  1336.30  1337.38  1338.64  1340.76
eigval :     1341.48  1346.84  1353.44  1364.35  1366.42  1369.52
eigval :     1378.05  1400.72  1404.99  1406.37  1407.47  1409.90
eigval :     1409.96  1412.57  1414.37  1414.85  1415.44  1421.36
eigval :     1442.00  1454.18  1457.29  1464.16  1464.52  1466.82
eigval :     1470.20  1484.49  1486.09  1486.83  1491.20  1492.10
eigval :     1493.08  1501.89  1542.10  1552.43  1556.13  1557.85
eigval :     1564.47  1566.45  1569.71  1571.30  1571.92  1573.03
eigval :     1575.11  1578.64  1580.36  1584.71  1593.81  1595.04
eigval :     1599.13  1599.51  1601.14  1672.33  1677.29  1677.72
eigval :     2187.83  2878.47  2881.90  2884.03  2932.03  2937.67
eigval :     2980.69  3033.90  3043.50  3048.86  3057.22  3064.15
eigval :     3064.79  3073.09  3073.41  3076.97  3077.40  3078.60
eigval :     3079.21  3079.41  3083.74  3083.97  3084.14  3086.25
eigval :     3086.46  3087.11  3088.24  3090.04  3091.24  3092.70
eigval :     3093.41  3094.69  3094.89  3095.90  3098.87  3099.08
eigval :     3100.51  3102.18  3107.41  3107.46  3107.71  3107.82
eigval :     3110.06  3110.31  3112.65  3114.00  3116.14  3124.39
eigval :     3130.72  3132.70  3137.42

   temp. (K)  partition function   enthalpy   heat capacity  entropy
                                   cal/mol     cal/K/mol   cal/K/mol   J/K/mol
 298.15  VIB  0.384E+32            39082.951    239.388    246.138
         ROT  0.262E+09              888.752      2.981     41.498
         INT  0.101E+41            39971.703    242.368    287.636
         TR   0.304E+29             1481.254      4.968     46.546
         TOT                       41452.9572   247.3366   334.1817  1398.2162

       T/K    H(0)-H(T)+PV         H(T)/Eh          T*S/Eh         G(T)/Eh
   ------------------------------------------------------------------------
    298.15    0.660595E-01    0.103887E+01    0.158781E+00    0.880088E+00
   ------------------------------------------------------------------------

         :::::::::::::::::::::::::::::::::::::::::::::::::::::
         ::                  THERMODYNAMIC                  ::
         :::::::::::::::::::::::::::::::::::::::::::::::::::::
         :: total free energy        -198.321512505937 Eh   ::
         ::.................................................::
         :: total energy             -199.201600287483 Eh   ::
         :: zero point energy           0.972808792466 Eh   ::
         :: G(RRHO) w/o ZPVE           -0.092721010920 Eh   ::
         :: G(RRHO) contrib.            0.880087781546 Eh   ::
         :::::::::::::::::::::::::::::::::::::::::::::::::::::

           -------------------------------------------------
          | TOTAL ENERGY             -199.201600287483 Eh   |
          | TOTAL ENTHALPY           -198.162732002832 Eh   |
          | TOTAL FREE ENERGY        -198.321512505937 Eh   |
          | GRADIENT NORM               0.000125650299 Eh/α |
           -------------------------------------------------

 * finished run on 2025/07/20 at 21:55:40.254
