   * xtb version 6.7.1 (edcfbbe) compiled by 'albert@albert-system' on 2024-07-22

   ID    Z sym.   atoms
    1    6 C      1-7, 9-20, 22-24, 26-33, 35-49, 51, 53-60, 62-77
    2    8 O      8, 34, 61
    3    7 N      21, 25, 50, 52
    4    1 H      78-127

          program call               : xtb data2507/gas/DV-3CzCN/DV-3CzCN_gas_T1_crest.xyz --gfn 2 --spinpol --tblite --uhf 2 --ohess vtight --parallel 40 --molden --ceasefiles --namespace data2507/gas/DV-3CzCN/DV-3CzCN_gas_T1_finalOpt
 * total energy  :  -199.2027425 Eh     change        0.1205823E-06 Eh
 * total energy  :  -199.2028056 Eh     change       -0.6304044E-04 Eh
 * total energy  :  -199.2028318 Eh     change       -0.2624090E-04 Eh
 * total energy  :  -199.2028358 Eh     change       -0.3943090E-05 Eh
 * total energy  :  -199.2028394 Eh     change       -0.3596079E-05 Eh
 * total energy  :  -199.2028406 Eh     change       -0.1211247E-05 Eh
 * total energy  :  -199.2028421 Eh     change       -0.1508768E-05 Eh
 * total energy  :  -199.2028438 Eh     change       -0.1695220E-05 Eh
 * total energy  :  -199.2028449 Eh     change       -0.1147175E-05 Eh
 * total energy  :  -199.2028455 Eh     change       -0.5619699E-06 Eh
 * total energy  :  -199.2028467 Eh     change       -0.1259021E-05 Eh
 * total energy  :  -199.2028487 Eh     change       -0.1974391E-05 Eh
 * total energy  :  -199.2028507 Eh     change       -0.1955693E-05 Eh
 * total energy  :  -199.2028527 Eh     change       -0.2007523E-05 Eh
 * total energy  :  -199.2028541 Eh     change       -0.1428463E-05 Eh
 * total energy  :  -199.2028555 Eh     change       -0.1413461E-05 Eh
 * total energy  :  -199.2028568 Eh     change       -0.1314931E-05 Eh
 * total energy  :  -199.2028580 Eh     change       -0.1189288E-05 Eh
 * total energy  :  -199.2028581 Eh     change       -0.7917396E-07 Eh
   *** GEOMETRY OPTIMIZATION CONVERGED AFTER 19 ITERATIONS ***

 final structure:
================
127
 xtb: 6.7.1 (edcfbbe)
C           12.12278075431496        4.69912625211611        1.34317624936600
C           11.29764706382351        4.00560805052401        0.56759806802993
C           10.77266467787510        2.67090191517453        0.82568402130053
C           11.00235577495301        1.97909476489223        2.01647034113068
C           10.48178786717644        0.71699071096031        2.21331531054464
C            9.72135737526680        0.10104262590493        1.22588270101194
C            9.17907495868941       -1.28992706526746        1.44497383342583
O            8.04365351368030       -1.60375692099860        0.66940731845567
C            6.86762326696118       -0.98408672713460        0.94652467117230
C            6.68564034382517        0.01637637547374        1.89608653017511
C            5.42584114886420        0.56317785184932        2.12827249694411
C            4.30806981152153        0.15606953571501        1.42718589011102
C            4.48345235054077       -0.82301097482015        0.45618035382629
C            5.74936764960418       -1.40668328030256        0.21975475116980
C            5.55993686022228       -2.40886611275961       -0.78618789900233
C            6.41431997909447       -3.29179093186045       -1.43159638290699
C            5.89161172193150       -4.12637221209021       -2.40078270390157
C            4.53960386612401       -4.07675799249765       -2.74316175904842
C            3.67087824721579       -3.20819742561173       -2.11307460617233
C            4.18059272235745       -2.38481543122388       -1.11654749876971
N            3.54553743854386       -1.42347984718037       -0.35997766579224
C            2.18293810972567       -1.14256385437528       -0.37508915522005
C            1.23998997352009       -2.19931517969203       -0.29246202298386
C           -0.09293818143829       -1.93581751364364       -0.21269683372028
N           -1.03909179122972       -2.97113719359529       -0.14215833306657
C           -1.33564229869117       -3.86499240936452       -1.14448666636753
C           -0.67304870166670       -4.10027344696273       -2.34093203111208
C           -1.19412951656609       -5.06032832923970       -3.18614347847026
C           -2.34860130037589       -5.76837907356049       -2.85499909368160
C           -3.02205037829563       -5.52890053121479       -1.67117347819398
C           -2.51756358214545       -4.56865635119089       -0.80715363314263
C           -2.93875697342952       -4.05963871986645        0.46794800992516
C           -4.05572430461183       -4.28762233408582        1.27413747965042
O           -5.03474862462284       -5.09859010419078        0.79104123918825
C           -6.37157008837028       -4.80838600401775        1.18195230384120
C           -6.64892149024094       -3.32543978044072        1.22390739137877
C           -7.41315512489395       -2.76858877098625        2.24068906376337
C           -7.50728266692173       -1.39678249512598        2.37192481531946
C           -6.80100476642123       -0.54697972266747        1.52105749393806
C           -6.76641357265069        0.88496310242382        1.79660342134996
C           -5.76650848315310        1.68668678453389        1.45350189416746
C           -6.10208604663742       -1.11038402593307        0.45405174515716
C           -6.04574860663520       -2.47921686121317        0.29859085665574
C           -4.11203734959862       -3.62730571514368        2.50226477478026
C           -3.13522208674444       -2.71546457417044        2.87875162225393
C           -2.07047842613182       -2.40834800375995        2.05348802738716
C           -1.98945556291517       -3.08706973343457        0.84538800348386
C           -0.60048560365895       -0.57939043603047       -0.25819595924847
C           -1.94803548726338       -0.33635441884741       -0.37794298041338
N           -3.09242464334025       -0.14085879124791       -0.46629443019104
C            0.38526496430796        0.48028152124221       -0.37751249124734
N           -0.08621559406258        1.78747764450383       -0.55445460115471
C            0.15951781961439        2.58044041229139       -1.65475665377594
C            1.01802483872065        2.36868675865051       -2.72537878558574
C            1.06028479268407        3.33002314383174       -3.71655607007179
C            0.26686159798820        4.47443317607730       -3.65332037115295
C           -0.60554282092871        4.68220452973123       -2.60123594053244
C           -0.66662768579408        3.72918916719273       -1.59535206534157
C           -1.44626336165197        3.60325562527466       -0.39681662918413
C           -2.45421544038384        4.38584366675690        0.17359999887084
O           -2.82670836315292        5.50004013217939       -0.50746125912140
C           -4.01978133820405        6.15529933751757       -0.13457980704083
C           -5.25385647345276        5.28960413330861       -0.23315992773496
C           -6.39259067013301        5.61896671356029        0.49196354014968
C           -7.52837976280044        4.83950485693050        0.40251480914414
C           -7.55303091985317        3.69148558661645       -0.39087179370767
C           -8.75524880348155        2.86653491696556       -0.41424026231599
C           -8.81496324013553        1.59392744064773       -0.78526404422217
C           -6.41008753744801        3.37703000487240       -1.12472529154149
C           -5.28205766129930        4.16992793680075       -1.05471174230287
C           -2.99465411152672        3.96159295699236        1.38501539660820
C           -2.54998687531565        2.79779079997044        2.00226721677282
C           -1.57797733115129        1.99513494526261        1.43871856693734
C           -1.05013303328307        2.39781627028154        0.21827495734412
C            1.71801783053203        0.19305817366942       -0.42267444039269
C            9.48903797611159        0.77810999874367        0.03660781884260
C           10.00163097270817        2.04533122481603       -0.15542291612999
H           12.49939292544473        4.32373807350301        2.27915559618913
H           12.45958155658323        5.68224273456357        1.06248274527807
H           10.96694461561426        4.44333996674598       -0.36673078003354
H           11.58583984766841        2.43481572533036        2.80104209526775
H           10.66512365953000        0.19907117152901        3.14477260466078
H            9.93020325001280       -2.02490957357713        1.13040404726384
H            8.97141664257201       -1.45253111945602        2.51208826825165
H            7.52097247294149        0.38557424525233        2.46897029135920
H            5.32685389017597        1.32509272542231        2.88653424645448
H            3.33608219791134        0.57085745881047        1.64040033887435
H            7.46181560387941       -3.31177043214020       -1.17626639591697
H            6.53835214903950       -4.82248313843151       -2.91392205748018
H            4.16674041194107       -4.72713305674599       -3.52031752964871
H            2.63170390275477       -3.16147690067694       -2.39916450413734
H            1.58991860477072       -3.21883491633483       -0.23276660934028
H            0.21366178995159       -3.54351574367929       -2.60357890774940
H           -0.69867132356892       -5.26615020197128       -4.12341525534265
H           -2.72267967077229       -6.51325089276465       -3.54160308667334
H           -3.92056432602036       -6.06731969546034       -1.41431490805285
H           -6.59235610012805       -5.26280039248744        2.15792795472700
H           -6.98764085813624       -5.30908012422498        0.42635392256740
H           -7.91548427293937       -3.41369976209492        2.94911035667910
H           -8.08911816929434       -0.97659043907067        3.18050430017441
H           -7.59790766839670        1.27105319641585        2.37429867166078
H           -4.90513641972503        1.33189260306294        0.91317055962844
H           -5.76809306150211        2.73013821251991        1.71667032194667
H           -5.57134246887993       -0.47799483890376       -0.23830201527914
H           -5.48721110310389       -2.89824964739588       -0.52557893759521
H           -4.93683914135520       -3.80955733555109        3.17208024127701
H           -3.22714719594481       -2.22232156155145        3.83440580605177
H           -1.33127846117964       -1.67514920299616        2.33459763402587
H            1.62369327853162        1.47749582629248       -2.78888568306236
H            1.72035556087804        3.19045808387903       -4.55983802464991
H            0.33215922499116        5.20420853114954       -4.44666506256914
H           -1.23276113562816        5.55807445457662       -2.55352104571514
H           -4.09807851177608        6.99026673871318       -0.84136641319264
H           -3.93235067377528        6.57911026593350        0.87618188552594
H           -6.38699423459485        6.49334563358786        1.12858814159316
H           -8.40586048565646        5.10931097424556        0.97339817456594
H           -9.65253713172766        3.35932348932986       -0.05858984684103
H           -7.94847227197049        1.04505995115382       -1.11023120183385
H           -9.74022227485863        1.04393409276983       -0.75876268625413
H           -6.40555608382510        2.51039939146314       -1.76622978499449
H           -4.41047940706177        3.91098093850948       -1.63741909534455
H           -3.77391803500019        4.53312387777981        1.86288083679716
H           -2.99163028060565        2.51097785420416        2.94432076079518
H           -1.25287535099400        1.08884934100732        1.92333527517805
H            2.43484570194334        0.99363216739052       -0.52784635309479
H            8.89858698258861        0.30816559841004       -0.73635650707400
H            9.80744328849374        2.56109526974820       -1.08516615313300

 projected vibrational frequencies (cm⁻¹)
eigval :       -0.00    -0.00     0.00     0.00     0.00     0.00
eigval :        6.58     8.33     9.11    11.12    12.95    18.34
eigval :       19.01    19.91    22.92    27.37    29.67    33.80
eigval :       34.61    42.61    44.95    50.36    53.91    61.77
eigval :       63.84    74.61    76.04    86.22    89.06    98.39
eigval :      101.83   106.33   109.14   112.55   113.28   116.86
eigval :      119.33   121.96   125.33   134.19   136.17   140.47
eigval :      147.95   161.86   169.92   174.81   189.93   200.26
eigval :      204.34   207.93   216.64   221.94   232.54   239.13
eigval :      247.67   250.20   253.67   256.92   260.72   266.27
eigval :      270.40   289.51   298.14   301.08   303.76   310.07
eigval :      316.23   322.18   324.64   330.22   340.14   359.38
eigval :      368.90   370.52   372.29   380.78   387.44   389.76
eigval :      391.48   403.28   404.69   407.64   408.14   416.03
eigval :      418.09   420.08   430.50   434.63   440.43   453.54
eigval :      471.36   472.27   483.94   494.92   497.34   504.95
eigval :      506.84   509.00   528.52   530.20   530.82   532.86
eigval :      533.60   533.71   536.44   537.40   539.72   552.04
eigval :      559.66   572.32   576.99   578.90   584.63   593.36
eigval :      602.18   604.66   606.06   609.85   610.31   615.72
eigval :      618.02   622.37   635.49   646.33   650.02   652.38
eigval :      661.69   666.64   669.46   672.22   678.28   694.60
eigval :      696.56   701.10   702.81   703.34   706.72   712.56
eigval :      728.39   731.45   742.15   746.83   757.97   763.15
eigval :      768.28   770.70   772.22   772.80   777.05   779.64
eigval :      781.47   798.28   808.97   810.04   816.19   832.70
eigval :      840.17   844.13   849.96   854.19   854.81   856.03
eigval :      856.31   859.48   864.65   867.20   867.33   868.58
eigval :      870.80   874.74   884.35   888.30   888.53   892.54
eigval :      901.63   904.25   904.70   905.15   906.13   907.78
eigval :      908.90   913.08   914.54   915.38   917.38   919.73
eigval :      920.43   926.02   926.15   932.57   940.94   948.00
eigval :      971.45   983.14   987.29   991.27  1000.22  1001.07
eigval :     1002.03  1003.61  1010.96  1011.39  1013.40  1016.58
eigval :     1018.94  1023.65  1034.44  1037.08  1037.92  1039.74
eigval :     1060.50  1065.62  1066.74  1073.72  1092.36  1097.40
eigval :     1110.07  1116.03  1117.75  1123.95  1124.88  1132.70
eigval :     1148.18  1149.51  1149.65  1161.01  1163.40  1174.05
eigval :     1174.98  1179.34  1184.43  1188.41  1193.21  1193.60
eigval :     1195.72  1196.42  1198.03  1203.31  1203.82  1205.08
eigval :     1207.12  1211.10  1214.51  1220.11  1226.12  1228.35
eigval :     1232.44  1240.68  1247.37  1248.27  1248.39  1252.19
eigval :     1255.91  1269.54  1274.04  1275.42  1275.76  1278.49
eigval :     1282.74  1286.41  1290.22  1292.61  1293.81  1297.48
eigval :     1298.71  1301.77  1305.23  1313.55  1318.53  1323.52
eigval :     1326.23  1336.64  1337.64  1339.99  1340.46  1341.62
eigval :     1342.89  1350.30  1351.26  1366.26  1367.72  1371.19
eigval :     1380.64  1402.03  1405.93  1407.59  1408.55  1409.98
eigval :     1411.47  1413.72  1415.35  1416.19  1419.80  1421.77
eigval :     1440.33  1450.56  1458.18  1463.88  1466.70  1467.26
eigval :     1470.03  1485.08  1486.74  1487.46  1491.09  1491.46
eigval :     1492.84  1505.24  1548.21  1555.22  1556.99  1558.83
eigval :     1563.12  1566.70  1568.59  1570.82  1571.24  1572.88
eigval :     1573.80  1578.66  1581.10  1585.63  1595.03  1595.77
eigval :     1596.32  1599.35  1601.09  1669.38  1674.20  1677.41
eigval :     2184.69  2875.00  2880.25  2881.80  2928.04  2931.25
eigval :     2934.66  3038.98  3040.87  3045.94  3057.62  3061.72
eigval :     3066.84  3073.36  3073.50  3075.98  3078.39  3078.60
eigval :     3079.83  3085.02  3086.01  3086.27  3088.22  3088.30
eigval :     3088.93  3089.07  3089.30  3089.84  3091.40  3092.75
eigval :     3093.89  3094.84  3098.55  3098.65  3100.68  3105.51
eigval :     3105.87  3106.64  3107.57  3109.09  3109.28  3110.00
eigval :     3112.20  3112.34  3112.73  3112.98  3113.58  3121.39
eigval :     3131.76  3137.17  3137.56

   temp. (K)  partition function   enthalpy   heat capacity  entropy
                                   cal/mol     cal/K/mol   cal/K/mol   J/K/mol
 298.15  VIB  0.654E+33            39220.678    238.629    248.403
         ROT  0.329E+09              888.752      2.981     41.957
         INT  0.215E+42            40109.431    241.610    290.360
         TR   0.304E+29             1481.254      4.968     46.546
         TOT                       41590.6847   246.5778   336.9064  1409.6162

       T/K    H(0)-H(T)+PV         H(T)/Eh          T*S/Eh         G(T)/Eh
   ------------------------------------------------------------------------
    298.15    0.662790E-01    0.103903E+01    0.160075E+00    0.878957E+00
   ------------------------------------------------------------------------

         :::::::::::::::::::::::::::::::::::::::::::::::::::::
         ::                  THERMODYNAMIC                  ::
         :::::::::::::::::::::::::::::::::::::::::::::::::::::
         :: total free energy        -198.323900616570 Eh   ::
         ::.................................................::
         :: total energy             -199.202858095808 Eh   ::
         :: zero point energy           0.972753583708 Eh   ::
         :: G(RRHO) w/o ZPVE           -0.093796104470 Eh   ::
         :: G(RRHO) contrib.            0.878957479238 Eh   ::
         :::::::::::::::::::::::::::::::::::::::::::::::::::::

           -------------------------------------------------
          | TOTAL ENERGY             -199.202858095808 Eh   |
          | TOTAL ENTHALPY           -198.163825537155 Eh   |
          | TOTAL FREE ENERGY        -198.323900616570 Eh   |
          | GRADIENT NORM               0.000149038266 Eh/α |
           -------------------------------------------------

 * finished run on 2025/07/20 at 23:09:44.519
