   * xtb version 6.7.1 (edcfbbe) compiled by 'albert@albert-system' on 2024-07-22

   ID    Z sym.   atoms
    1    6 C      1-20, 22-25, 27, 28, 30, 32-34, 36-56
    2    7 N      21, 29, 31, 35
    3    8 O      26
    4    1 H      57-110

          program call               : xtb data2507/gas/35tCzBPym/35tCzBPym_gas_S0_finalOpt.xtbopt.xyz --gfn 2 --spinpol --tblite --uhf 2 --ohess vtight --parallel 40 --molden --ceasefiles --namespace data2507/gas/35tCzBPym/35tCzBPym_gas_T1_preOpt
 * total energy  :  -152.5589020 Eh     change       -0.1989449E-07 Eh
 * total energy  :  -152.5630060 Eh     change       -0.4103957E-02 Eh
 * total energy  :  -152.5645297 Eh     change       -0.1523654E-02 Eh
 * total energy  :  -152.5651485 Eh     change       -0.6188049E-03 Eh
 * total energy  :  -152.5658387 Eh     change       -0.6902881E-03 Eh
 * total energy  :  -152.5664687 Eh     change       -0.6300027E-03 Eh
 * total energy  :  -152.5670514 Eh     change       -0.5826414E-03 Eh
 * total energy  :  -152.5673486 Eh     change       -0.2971732E-03 Eh
 * total energy  :  -152.5675223 Eh     change       -0.1737151E-03 Eh
 * total energy  :  -152.5676535 Eh     change       -0.1312424E-03 Eh
 * total energy  :  -152.5685801 Eh     change       -0.8561303E-06 Eh
 * total energy  :  -152.5685812 Eh     change       -0.1152031E-05 Eh
 * total energy  :  -152.5685817 Eh     change       -0.5097057E-06 Eh
 * total energy  :  -152.5685822 Eh     change       -0.4717369E-06 Eh
 * total energy  :  -152.5685823 Eh     change       -0.7587971E-07 Eh
 * total energy  :  -152.5685826 Eh     change       -0.3125682E-06 Eh
 * total energy  :  -152.5685827 Eh     change       -0.1315142E-06 Eh
 * total energy  :  -152.5685829 Eh     change       -0.2054950E-06 Eh
 * total energy  :  -152.5685830 Eh     change       -0.9050677E-07 Eh
   *** GEOMETRY OPTIMIZATION CONVERGED AFTER 74 ITERATIONS ***

 final structure:
================
110
 xtb: 6.7.1 (edcfbbe)
C           -4.61193158040632        5.54420960796360        3.05748971673707
C           -3.20126242271352        4.99992296122358        3.29875986944065
C           -3.05462394766677        4.70341778265510        4.79805986103569
C           -2.19571343442278        6.08266597013516        2.88136706791735
C           -2.92126753285419        3.73023744748873        2.50952023841089
C           -1.66423889852525        3.12292257956512        2.62808268567398
C           -1.31762712447172        1.97509603557215        1.94448142719395
C           -2.26118600723856        1.41164476135367        1.09867282585673
C           -3.54454981057115        1.98693501926076        0.98325727998609
C           -3.86624035688629        3.14085595418661        1.68214986835560
C           -4.28977005910006        1.14434029626364        0.08581350566791
C           -5.58293762103229        1.20223178444209       -0.41239232026091
C           -6.02467575789879        0.22789243355263       -1.29607849271795
C           -7.43337307874302        0.21807648307357       -1.86888575317369
C           -7.35662219686589        0.32096068147680       -3.39891755701207
C           -8.28580747239638        1.38210850125203       -1.35614106912609
C           -8.12616203596190       -1.09265096654788       -1.46954051067889
C           -5.13214757088719       -0.78167114762172       -1.68014515105587
C           -3.84014627551813       -0.85906024441485       -1.20293219166396
C           -3.42019081989324        0.10018903545941       -0.29453597788019
N           -2.19471619223958        0.27421690035152        0.31708230534531
C           -1.09303882972165       -0.58420157887064        0.22269794232661
C           -1.25998199909442       -1.94753058952986        0.44261866792006
C           -0.15655307268117       -2.80115569778784        0.39868119145013
C           -0.25350344972749       -4.25038908753989        0.69679892389169
O            0.67790848785201       -4.80073515749744        1.33023377648165
C           -1.40086541047339       -4.96091503927010        0.23751879799785
C           -1.61502278808136       -6.30532728841913        0.66736775528957
N           -2.63592390099559       -6.99715547045543        0.27620662149994
C           -3.51561141496212       -6.48137088145418       -0.57825985255822
N           -3.36471402575646       -5.26914748257338       -1.10712028835126
C           -2.35067063437099       -4.54182689035948       -0.73029129392077
C            1.11137504773131       -2.26655672912382        0.17182261891987
C            1.27735585341622       -0.90327149457904       -0.02969201534595
N            2.55603816894324       -0.38791590631643       -0.25769785559338
C            2.91585891936320        0.48397369584982       -1.26565677043946
C            2.16060222989328        1.03032534164897       -2.29277852895359
C            2.79377961431056        1.87019063654644       -3.18667216060988
C            4.15709528833937        2.18193714157873       -3.10434950878936
C            4.75903485698024        3.12534554858794       -4.13424995485886
C            6.25302878166194        3.37079266086231       -3.90583644841841
C            4.58399471014018        2.52021369849288       -5.53446079830627
C            4.03733340379708        4.47851958120597       -4.05788822254739
C            4.90830555522932        1.60622765123239       -2.08919609785644
C            4.29757531077090        0.75889595590742       -1.17757152989845
C            4.79170658476049        0.00692422397297       -0.05398236138923
C            6.04655117262615       -0.11351360092351        0.52379224479569
C            6.21473714016550       -0.92244467649078        1.63898726354970
C            7.56272976274422       -1.11269996450072        2.31668015388209
C            8.68389764226161       -0.32838213781899        1.62922650310435
C            7.46788362379093       -0.63231658965318        3.77195064612277
C            7.93333992564691       -2.60231742018272        2.28332694659127
C            5.09503298293693       -1.58310271750012        2.16201794317726
C            3.83477086564521       -1.47891454715885        1.60938512746812
C            3.68622436107264       -0.68991797789847        0.47788328399110
C            0.17175593256629       -0.05617027284633       -0.02068344910852
H           -4.75295725156964        6.45363733599589        3.63805101879033
H           -4.76298709760409        5.78929067408571        2.00867976925613
H           -5.36736194042926        4.82716277129953        3.37031751078210
H           -2.04750118051111        4.37787384352744        5.04262372264109
H           -3.74770720484797        3.91914035996378        5.09532172095835
H           -3.27384669918229        5.59663753169958        5.37916009185843
H           -1.17387327613045        5.77855679125211        3.08985417951461
H           -2.39305199236998        7.00516837194873        3.42321440074700
H           -2.28081206482514        6.28342307654842        1.81531636902525
H           -0.92573703602166        3.55889427256098        3.28305025146696
H           -0.34484866012865        1.52794076514685        2.08181956326938
H           -4.85396807717002        3.55502201517546        1.56876693632641
H           -6.22076990152345        2.01231897789285       -0.10080093484171
H           -6.84189105446028        1.23473524059024       -3.68901114876858
H           -8.35838270290731        0.33956448227192       -3.82280275640720
H           -6.82243163569185       -0.52195118500808       -3.82790411358298
H           -8.39045164208298        1.34392719574433       -0.27428667311707
H           -9.28116678237043        1.32068357565521       -1.79141113281496
H           -7.85451145665418        2.33913653098706       -1.64083840910734
H           -7.59623328661243       -1.95740592648836       -1.85845000444877
H           -9.14197675879326       -1.11232395481187       -1.85857586054682
H           -8.16973205314532       -1.17929641046438       -0.38580603847529
H           -5.45393611702266       -1.53776094115528       -2.37905642929340
H           -3.17985046173012       -1.64180567483384       -1.54126148103037
H           -2.23534548648726       -2.31915245820616        0.71701627721707
H           -0.89732443822137       -6.75245496922677        1.34309262009163
H           -4.36568839918215       -7.07338690489430       -0.87035617455660
H           -2.23372198125684       -3.59100726756045       -1.23488165341722
H            1.95878434441669       -2.93276430831375        0.13421800289124
H            1.11249809893021        0.79903993786325       -2.40707326888733
H            2.20117053040784        2.29468743526066       -3.98236092269562
H            6.62699858694037        4.05623507187326       -4.66366472239119
H            6.43168107008142        3.81896494563080       -2.93111020568924
H            6.81857957955459        2.44518146505842       -3.98377823893201
H            3.53468433425321        2.38724285971389       -5.78220715649145
H            5.07231949815052        1.54938042515538       -5.58772134170650
H            5.02988940302934        3.17263783785498       -6.28217567345833
H            4.46870728899617        5.17334219697842       -4.77529200197817
H            2.97822335403971        4.37783521038371       -4.27760624093598
H            4.13984515902551        4.90320370985987       -3.06133400107011
H            5.96375654532123        1.79678628132160       -1.99096628009791
H            6.86952103625449        0.43061941083151        0.09159049160356
H            8.80859605254401       -0.64711767691828        0.59691027770353
H            9.62219954502875       -0.50675000032536        2.15054193684651
H            8.48599667379262        0.74086164459470        1.65278245886565
H            8.43163841987321       -0.74110951733293        4.26482658918316
H            7.18014664598125        0.41663235307279        3.80370552856383
H            6.73369946756481       -1.20393311843229        4.33238069715460
H            7.20174790085796       -3.20618919105016        2.81233871756765
H            7.98475370859965       -2.95353996124158        1.25482002566942
H            8.90388054520443       -2.75684408087531        2.75003992132664
H            5.20786499159692       -2.20377950681348        3.03713434819721
H            2.99806617149701       -1.99636392602833        2.05225244341473
H            0.29503669421923        1.00384690027347       -0.17639419521051

 projected vibrational frequencies (cm⁻¹)
eigval :       -0.00    -0.00     0.00     0.00     0.00     0.00
eigval :        8.95     9.58    12.61    13.97    24.52    30.32
eigval :       30.43    31.61    33.38    34.07    43.30    47.02
eigval :       60.79    61.25    67.56    73.60    78.06    86.22
eigval :       88.26   106.28   112.48   129.84   144.00   152.99
eigval :      157.69   159.00   169.83   175.69   181.28   185.40
eigval :      193.39   201.18   201.36   205.79   216.73   218.96
eigval :      220.47   222.46   226.65   230.24   235.33   241.25
eigval :      249.88   257.75   258.01   273.62   282.92   286.62
eigval :      291.34   314.02   318.07   318.55   322.37   322.88
eigval :      326.75   334.84   337.11   341.39   348.27   351.49
eigval :      358.54   358.61   366.58   370.53   382.72   391.44
eigval :      394.70   396.98   407.66   407.86   416.67   423.61
eigval :      440.35   441.20   441.54   442.08   455.78   461.58
eigval :      462.71   463.49   465.95   466.10   494.23   511.23
eigval :      517.80   536.65   543.21   576.14   576.72   584.01
eigval :      585.38   586.92   593.41   598.22   617.05   622.73
eigval :      636.67   639.67   641.19   641.57   655.24   662.01
eigval :      672.31   689.53   690.29   701.50   708.01   709.04
eigval :      718.33   721.06   745.10   766.25   778.58   810.03
eigval :      816.01   820.13   823.82   824.91   831.32   833.32
eigval :      839.94   856.40   865.02   867.02   870.62   872.85
eigval :      873.72   874.57   883.27   883.80   899.72   914.69
eigval :      915.60   918.35   919.99   924.58   927.05   932.27
eigval :      933.94   953.54   960.26   960.26   960.37   960.38
eigval :      962.77   962.85   963.18   963.22   963.23   963.24
eigval :      963.39   963.47   986.77  1021.66  1029.22  1032.37
eigval :     1033.45  1035.04  1035.06  1035.16  1035.22  1036.11
eigval :     1038.81  1042.99  1044.01  1098.01  1112.52  1116.55
eigval :     1127.99  1129.61  1134.39  1136.97  1138.16  1156.48
eigval :     1168.92  1169.50  1189.01  1205.39  1211.86  1216.18
eigval :     1226.46  1226.80  1226.88  1227.01  1227.09  1229.36
eigval :     1230.76  1231.08  1232.12  1233.84  1233.89  1236.33
eigval :     1241.40  1246.29  1254.17  1260.85  1278.33  1282.03
eigval :     1283.27  1295.62  1297.97  1300.26  1304.49  1325.53
eigval :     1336.37  1341.42  1344.25  1347.61  1349.10  1349.88
eigval :     1379.20  1401.66  1401.83  1404.42  1404.45  1405.60
eigval :     1405.67  1405.77  1405.87  1409.92  1410.70  1423.98
eigval :     1426.68  1428.60  1428.64  1428.72  1428.78  1443.32
eigval :     1446.41  1452.55  1462.81  1469.12  1471.04  1480.23
eigval :     1481.16  1490.91  1491.06  1491.26  1491.28  1493.37
eigval :     1493.44  1493.61  1493.78  1500.00  1500.06  1500.07
eigval :     1500.20  1504.18  1504.36  1504.56  1504.58  1513.46
eigval :     1514.31  1514.36  1514.53  1514.61  1519.02  1519.06
eigval :     1519.74  1519.88  1531.09  1561.79  1564.40  1567.55
eigval :     1576.72  1579.02  1586.34  1589.52  1602.87  1610.09
eigval :     3022.83  3022.93  3023.08  3023.11  3024.59  3024.72
eigval :     3024.76  3024.87  3027.25  3027.25  3027.50  3027.61
eigval :     3030.78  3030.86  3031.05  3031.20  3031.67  3031.70
eigval :     3031.75  3032.01  3033.61  3035.69  3035.71  3036.09
eigval :     3036.22  3038.72  3038.79  3038.97  3039.18  3045.98
eigval :     3047.89  3047.99  3049.31  3049.67  3051.24  3051.36
eigval :     3052.86  3053.31  3083.76  3083.92  3091.90  3092.11
eigval :     3096.26  3096.59  3096.97  3102.76  3103.16  3106.97
eigval :     3111.02  3113.82  3117.48  3117.49  3120.93  3121.18

   temp. (K)  partition function   enthalpy   heat capacity  entropy
                                   cal/mol     cal/K/mol   cal/K/mol   J/K/mol
 298.15  VIB  0.212E+26            32320.185    196.682    201.017
         ROT  0.161E+09              888.752      2.981     40.530
         INT  0.341E+34            33208.937    199.663    241.547
         TR   0.194E+29             1481.254      4.968     45.659
         TOT                       34690.1909   204.6311   287.2066  1201.6726

       T/K    H(0)-H(T)+PV         H(T)/Eh          T*S/Eh         G(T)/Eh
   ------------------------------------------------------------------------
    298.15    0.552823E-01    0.961583E+00    0.136461E+00    0.825122E+00
   ------------------------------------------------------------------------

         :::::::::::::::::::::::::::::::::::::::::::::::::::::
         ::                  THERMODYNAMIC                  ::
         :::::::::::::::::::::::::::::::::::::::::::::::::::::
         :: total free energy        -151.743461328467 Eh   ::
         ::.................................................::
         :: total energy             -152.568583085848 Eh   ::
         :: zero point energy           0.906300561184 Eh   ::
         :: G(RRHO) w/o ZPVE           -0.081178803803 Eh   ::
         :: G(RRHO) contrib.            0.825121757381 Eh   ::
         :::::::::::::::::::::::::::::::::::::::::::::::::::::

           -------------------------------------------------
          | TOTAL ENERGY             -152.568583085848 Eh   |
          | TOTAL ENTHALPY           -151.607000186629 Eh   |
          | TOTAL FREE ENERGY        -151.743461328467 Eh   |
          | GRADIENT NORM               0.000127963330 Eh/α |
           -------------------------------------------------

 * finished run on 2025/09/04 at 02:01:33.668
