   * xtb version 6.7.1 (edcfbbe) compiled by 'albert@albert-system' on 2024-07-22

   ID    Z sym.   atoms
    1    6 C      1-20, 22-25, 27, 28, 30, 32-34, 36-56
    2    7 N      21, 29, 31, 35
    3    8 O      26
    4    1 H      57-110

          program call               : xtb data2507/gas/35tCzBPym/35tCzBPym_gas_T1_crest.xyz --gfn 2 --spinpol --tblite --uhf 2 --ohess vtight --parallel 40 --molden --ceasefiles --namespace data2507/gas/35tCzBPym/35tCzBPym_gas_T1_finalOpt
 * total energy  :  -152.5685567 Eh     change       -0.2892313E-07 Eh
 * total energy  :  -152.5685730 Eh     change       -0.1637798E-04 Eh
 * total energy  :  -152.5685790 Eh     change       -0.5980540E-05 Eh
 * total energy  :  -152.5685803 Eh     change       -0.1280880E-05 Eh
 * total energy  :  -152.5685814 Eh     change       -0.1122329E-05 Eh
 * total energy  :  -152.5685821 Eh     change       -0.6375054E-06 Eh
 * total energy  :  -152.5685826 Eh     change       -0.5258449E-06 Eh
 * total energy  :  -152.5685832 Eh     change       -0.6375786E-06 Eh
 * total energy  :  -152.5685840 Eh     change       -0.7989028E-06 Eh
 * total energy  :  -152.5685848 Eh     change       -0.7479448E-06 Eh
 * total energy  :  -152.5685858 Eh     change       -0.4760000E-06 Eh
 * total energy  :  -152.5685864 Eh     change       -0.5298071E-06 Eh
 * total energy  :  -152.5685867 Eh     change       -0.3607545E-06 Eh
 * total energy  :  -152.5685873 Eh     change       -0.5386229E-06 Eh
 * total energy  :  -152.5685875 Eh     change       -0.2778154E-06 Eh
 * total energy  :  -152.5685884 Eh     change       -0.8537127E-06 Eh
 * total energy  :  -152.5685884 Eh     change        0.2561507E-08 Eh
 * total energy  :  -152.5685885 Eh     change       -0.1258378E-06 Eh
 * total energy  :  -152.5685886 Eh     change       -0.7663118E-07 Eh
   *** GEOMETRY OPTIMIZATION CONVERGED AFTER 20 ITERATIONS ***

 final structure:
================
110
 xtb: 6.7.1 (edcfbbe)
C           -4.66822722811816        5.49318595602765        3.08870169391962
C           -3.25451309342287        4.95799842738730        3.33251498943554
C           -3.11263940897495        4.65078565077385        4.83013039270281
C           -2.25555853380445        6.05184785999046        2.92851492753863
C           -2.96104028208647        3.69652005705740        2.53506809406027
C           -1.69913788891046        3.09926768407693        2.65321341151195
C           -1.34104266471192        1.95862137067378        1.96354741242360
C           -2.27802148266277        1.39205932824076        1.11256151077054
C           -3.56562482426611        1.95758473951664        0.99635556552997
C           -3.89868224616958        3.10469441876823        1.70106039596932
C           -4.30126511452091        1.11366060359427        0.09223804523285
C           -5.59275200419232        1.16434330266562       -0.41091674061133
C           -6.02360602201851        0.19095379743186       -1.30103029837355
C           -7.42919186001415        0.17496123007371       -1.88124401706988
C           -7.34460237170154        0.28660276708064       -3.41026463974639
C           -8.29189912912128        1.33078217171980       -1.36708271079212
C           -8.11581006568438       -1.14220482689817       -1.49268730647686
C           -5.12258814415081       -0.81101041003640       -1.68526910404176
C           -3.83198808399604       -0.88125823040180       -1.20316344450993
C           -3.42248002429377        0.07782612637535       -0.28982997526174
N           -2.20040897775036        0.25897076364789        0.32598612438399
C           -1.09115615368677       -0.58972482892115        0.23162894896183
C           -1.24525754001892       -1.95405632920757        0.45398123538293
C           -0.13362782115644       -2.79722899924106        0.41271483732043
C           -0.21669540975261       -4.24671224377508        0.71290196322246
O            0.72104755937416       -4.78770792071487        1.34521044961750
C           -1.35806629789419       -4.96898233187860        0.25661642204228
C           -1.55740724039862       -6.31494862349685        0.68870028353216
N           -2.57168850624990       -7.01806399306799        0.30041375102528
C           -3.45828130682124       -6.51268102379968       -0.55314618036511
N           -3.32124111479152       -5.29958434756620       -1.08369153141762
C           -2.31423164931543       -4.56100256529483       -0.70969806114279
C            1.12938649543293       -2.25079378900441        0.18570051038784
C            1.28169905845684       -0.88690334702347       -0.02127430978405
N            2.55468167492167       -0.35921502859412       -0.25400921613553
C            2.90375654347482        0.50514071946245       -1.27193700605174
C            2.14142116322450        1.02867336019600       -2.30563623682095
C            2.76400341378851        1.86464525289537       -3.21045427015850
C            4.12327654339479        2.19469401471674       -3.13201504593565
C            4.71341908334000        3.13090733783973       -4.17526001576610
C            6.20336017287157        3.40116229821819       -3.94846583485950
C            4.54926379218512        2.50157856018803       -5.56611743241237
C            3.97252755629297        4.47474342975782       -4.12112281798966
C            4.88154826281036        1.64257655102575       -2.10899942696098
C            4.28166009946736        0.79924017520547       -1.18643354968399
C            4.78442163948941        0.06809500410244       -0.05289432410742
C            6.03934570405376       -0.02696772858724        0.52951643566541
C            6.21605806641963       -0.81883468168558        1.65560728212419
C            7.56396584792285       -0.97755890141226        2.34161911242855
C            8.67560395700780       -0.18586222287779        1.64719215099000
C            7.45425958191216       -0.47623265328088        3.78880436314650
C            7.95888156836463       -2.46122659438108        2.33316633004042
C            5.10512066162827       -1.49058351601325        2.18330854865450
C            3.84502591134527       -1.41189850907031        1.62617930896139
C            3.68783014951802       -0.63758521180956        0.48580881260748
C            0.16823476287287       -0.05022625328305       -0.01414123435993
H           -4.81885984767024        6.39735223015660        3.67503766356409
H           -4.81643397671172        5.74450800710458        2.04095886659615
H           -5.41953582998480        4.76820398018401        3.39304158644976
H           -2.10429484533047        4.33060716335424        5.07677808967485
H           -3.80134517602748        3.85918620089438        5.11802641387332
H           -3.34106247527129        5.53780036011442        5.41716341398753
H           -1.23242427677631        5.75465567276637        3.14056193477863
H           -2.46343762737968        6.96874408853346        3.47590909857580
H           -2.33640110607384        6.25965196323537        1.86348632050838
H           -0.96615235870581        3.53741806838494        3.31291060044553
H           -0.36470853958601        1.51892293249062        2.09997364784304
H           -4.88939128225561        3.51153232798486        1.58718065046137
H           -6.23774820861884        1.96835263555934       -0.09835056536081
H           -6.83391007665833        1.20510893739020       -3.69246936222168
H           -8.34404854367949        0.30134109162508       -3.83971973238230
H           -6.80273130049159       -0.55062941553020       -3.84075302941235
H           -8.40196748152682        1.28636385400859       -0.28600242345594
H           -9.28454255454646        1.26518447611990       -1.80792250295564
H           -7.86533889617001        2.29203158178520       -1.64460444885340
H           -7.57863903116045       -2.00151586259639       -1.88370858646210
H           -9.12953303126211       -1.16597287767656       -1.88692135753333
H           -8.16424160239412       -1.23513402066207       -0.40968334990992
H           -5.43640836027316       -1.56651024830460       -2.38843566144396
H           -3.16464924854629       -1.65817958947915       -1.54134158371298
H           -2.21734256856779       -2.33414218718547        0.72843746185520
H           -0.83375419142691       -6.75345695536261        1.36373596744873
H           -4.30253257582353       -7.11407832198929       -0.84294492082826
H           -2.20881124448072       -3.60950662657007       -1.21553561077695
H            1.98360055083689       -2.90850589062333        0.15188253157194
H            1.09622605570235        0.78270262354108       -2.41610261293503
H            2.16633511405083        2.27095250974995       -4.01182433818264
H            6.56846689395947        4.08123882161027       -4.71539214453527
H            6.37403574038124        3.86549825995961       -2.97989322884112
H            6.78238844016224        2.48286332654213       -4.01268585152538
H            3.50232701611777        2.34951814974485       -5.81296169002704
H            5.05165297339226        1.53720295403904       -5.60361739455733
H            4.98674505089971        3.14865733644784       -6.32338436047511
H            4.39532242612742        5.16432611695329       -4.84861969929485
H            2.91534915493291        4.35579163721469       -4.34095868714222
H            4.06724900691859        4.91631297515825       -3.13116255421697
H            5.93437260740469        1.84829891383107       -2.01312839295966
H            6.85555798464758        0.52359022586001        0.09265082452761
H            8.80987400731343       -0.51788168689842        0.62027640492892
H            9.61427835192934       -0.34152999726610        2.17506292161979
H            8.46076317666115        0.88034098178291        1.65397006638368
H            8.41700740781532       -0.56227239210324        4.28808842633071
H            7.15006094311988        0.56845593434246        3.80275586544546
H            6.72607353426668       -1.05045996461015        4.35438178094418
H            7.23500050748376       -3.06873420029268        2.86856620522258
H            8.02061249902430       -2.82758166105787        1.31053060856229
H            8.92973091076730       -2.59250179168708        2.80632089339090
H            5.22498647943813       -2.09915873764825        3.06595599661170
H            3.01467981758158       -1.93700040589610        2.07206088943723
H            0.28143158574944        1.01048315688200       -0.17317641159069

 projected vibrational frequencies (cm⁻¹)
eigval :       -0.00    -0.00    -0.00    -0.00     0.00     0.00
eigval :        8.76     9.58    12.41    14.00    24.83    30.23
eigval :       30.39    31.48    33.33    33.95    43.23    47.11
eigval :       60.79    61.20    67.34    73.47    78.13    85.90
eigval :       88.15   106.24   112.34   129.80   144.19   153.08
eigval :      157.66   158.90   169.81   175.51   181.19   185.39
eigval :      193.44   201.17   201.31   205.90   216.66   218.91
eigval :      220.32   222.39   226.63   230.22   234.91   240.96
eigval :      249.75   257.69   257.88   273.46   282.90   286.54
eigval :      291.19   314.08   318.08   318.50   322.40   322.80
eigval :      326.80   334.87   337.07   341.49   348.18   351.44
eigval :      358.52   358.56   366.53   370.42   382.78   391.38
eigval :      394.60   396.91   407.55   407.71   416.57   423.63
eigval :      440.32   441.15   441.51   442.00   455.89   461.51
eigval :      462.61   463.47   465.93   466.10   494.53   511.04
eigval :      517.66   536.38   543.16   576.14   576.68   583.80
eigval :      585.43   586.83   593.39   598.35   617.01   623.18
eigval :      636.68   639.64   641.18   641.56   655.29   661.80
eigval :      672.28   689.49   690.23   701.41   707.98   708.99
eigval :      718.36   720.95   745.22   766.55   778.36   810.04
eigval :      816.02   820.11   823.69   824.78   831.25   833.32
eigval :      839.48   856.25   864.98   866.98   870.48   872.82
eigval :      873.69   874.26   883.25   883.55   899.69   914.56
eigval :      915.37   918.03   919.62   924.58   927.01   932.14
eigval :      933.85   953.91   960.21   960.23   960.33   960.34
eigval :      962.74   962.81   963.15   963.17   963.19   963.19
eigval :      963.33   963.41   986.61  1021.67  1029.15  1032.27
eigval :     1033.38  1034.98  1035.01  1035.10  1035.16  1036.06
eigval :     1038.74  1042.90  1043.90  1098.20  1112.55  1116.46
eigval :     1127.91  1129.46  1134.19  1136.94  1137.84  1156.39
eigval :     1168.73  1169.25  1188.91  1205.07  1211.69  1216.00
eigval :     1226.32  1226.77  1226.83  1226.99  1227.06  1229.34
eigval :     1230.73  1231.05  1231.97  1233.82  1233.87  1236.37
eigval :     1241.10  1246.40  1254.13  1261.00  1278.27  1282.14
eigval :     1283.31  1295.66  1298.17  1300.40  1304.45  1325.52
eigval :     1336.52  1341.27  1344.25  1347.65  1349.14  1350.02
eigval :     1379.46  1401.64  1401.77  1404.28  1404.30  1405.46
eigval :     1405.54  1405.65  1405.73  1410.03  1410.82  1423.97
eigval :     1426.74  1428.64  1428.67  1428.76  1428.80  1443.53
eigval :     1446.60  1452.77  1462.81  1469.13  1471.13  1480.35
eigval :     1481.29  1490.75  1490.88  1491.11  1491.15  1493.24
eigval :     1493.30  1493.43  1493.59  1499.84  1499.86  1499.91
eigval :     1500.01  1504.00  1504.16  1504.40  1504.43  1513.28
eigval :     1514.17  1514.22  1514.39  1514.43  1518.81  1518.86
eigval :     1519.53  1519.67  1531.03  1561.64  1564.48  1567.53
eigval :     1576.92  1579.12  1586.20  1589.52  1603.36  1610.18
eigval :     3022.83  3022.89  3023.04  3023.10  3024.59  3024.70
eigval :     3024.73  3024.85  3027.24  3027.25  3027.50  3027.62
eigval :     3030.76  3030.85  3031.01  3031.18  3031.70  3031.73
eigval :     3031.78  3032.02  3033.90  3035.67  3035.72  3036.05
eigval :     3036.19  3038.74  3038.78  3038.98  3039.18  3046.16
eigval :     3047.95  3048.02  3049.30  3049.67  3051.25  3051.34
eigval :     3052.82  3053.30  3083.60  3083.71  3091.33  3091.96
eigval :     3096.29  3096.55  3097.01  3102.67  3102.72  3106.42
eigval :     3110.88  3113.95  3117.52  3117.60  3121.00  3121.15

   temp. (K)  partition function   enthalpy   heat capacity  entropy
                                   cal/mol     cal/K/mol   cal/K/mol   J/K/mol
 298.15  VIB  0.223E+26            32325.210    196.687    201.086
         ROT  0.161E+09              888.752      2.981     40.530
         INT  0.359E+34            33213.962    199.668    241.616
         TR   0.194E+29             1481.254      4.968     45.659
         TOT                       34695.2158   204.6361   287.2757  1201.9615

       T/K    H(0)-H(T)+PV         H(T)/Eh          T*S/Eh         G(T)/Eh
   ------------------------------------------------------------------------
    298.15    0.552903E-01    0.961555E+00    0.136494E+00    0.825061E+00
   ------------------------------------------------------------------------

         :::::::::::::::::::::::::::::::::::::::::::::::::::::
         ::                  THERMODYNAMIC                  ::
         :::::::::::::::::::::::::::::::::::::::::::::::::::::
         :: total free energy        -151.743527177328 Eh   ::
         ::.................................................::
         :: total energy             -152.568588631254 Eh   ::
         :: zero point energy           0.906265060573 Eh   ::
         :: G(RRHO) w/o ZPVE           -0.081203606647 Eh   ::
         :: G(RRHO) contrib.            0.825061453926 Eh   ::
         :::::::::::::::::::::::::::::::::::::::::::::::::::::

           -------------------------------------------------
          | TOTAL ENERGY             -152.568588631254 Eh   |
          | TOTAL ENTHALPY           -151.607033224892 Eh   |
          | TOTAL FREE ENERGY        -151.743527177328 Eh   |
          | GRADIENT NORM               0.000098597515 Eh/α |
           -------------------------------------------------

 * finished run on 2025/09/04 at 02:24:22.978
