   * xtb version 6.7.1 (edcfbbe) compiled by 'albert@albert-system' on 2024-07-22

   ID    Z sym.   atoms
    1    6 C      1-20, 22-25, 27, 28, 30, 32-34, 36-56
    2    7 N      21, 29, 31, 35
    3    8 O      26
    4    1 H      57-110

          program call               : xtb data2507/gas/35tCzBPym/35tCzBPym_gas_S0_crest.xyz --gfn 2 --ohess vtight --parallel 40 --molden --ceasefiles --namespace data2507/gas/35tCzBPym/35tCzBPym_gas_S0_finalOpt
          :  Hamiltonian                  GFN2-xTB          :
 * total energy  :  -152.6362505 Eh     change       -0.1484466E-08 Eh
 * total energy  :  -152.6362518 Eh     change       -0.1362867E-05 Eh
 * total energy  :  -152.6362538 Eh     change       -0.1964056E-05 Eh
 * total energy  :  -152.6362568 Eh     change       -0.3019704E-05 Eh
 * total energy  :  -152.6362604 Eh     change       -0.3625313E-05 Eh
 * total energy  :  -152.6362643 Eh     change       -0.3883456E-05 Eh
 * total energy  :  -152.6362675 Eh     change       -0.3217678E-05 Eh
 * total energy  :  -152.6362696 Eh     change       -0.2070732E-05 Eh
 * total energy  :  -152.6362712 Eh     change       -0.1559495E-05 Eh
 * total energy  :  -152.6362727 Eh     change       -0.1552564E-05 Eh
 * total energy  :  -152.6362969 Eh     change       -0.3258355E-06 Eh
 * total energy  :  -152.6362973 Eh     change       -0.3703354E-06 Eh
 * total energy  :  -152.6362977 Eh     change       -0.4451528E-06 Eh
 * total energy  :  -152.6362982 Eh     change       -0.4853866E-06 Eh
 * total energy  :  -152.6362987 Eh     change       -0.4689570E-06 Eh
 * total energy  :  -152.6362991 Eh     change       -0.4272837E-06 Eh
 * total energy  :  -152.6362995 Eh     change       -0.4054184E-06 Eh
 * total energy  :  -152.6362999 Eh     change       -0.4310922E-06 Eh
 * total energy  :  -152.6362999 Eh     change       -0.4877876E-08 Eh
   *** GEOMETRY OPTIMIZATION CONVERGED AFTER 44 ITERATIONS ***

 final structure:
================
110
 xtb: 6.7.1 (edcfbbe)
C           -4.63808812521908        5.55964945114196        2.91274815923146
C           -3.22468871618626        5.03693339015117        3.18393473492039
C           -3.09124098195656        4.78484926452085        4.69247469535649
C           -2.22613612447112        6.11780313010238        2.74635666032020
C           -2.92510273196746        3.74700754908827        2.43444252843000
C           -1.66284969975429        3.15725680274515        2.58054592688748
C           -1.29963122825530        1.99076605599385        1.93795329090932
C           -2.23034060876296        1.38882913266670        1.10628981715704
C           -3.51748880310358        1.94576032895954        0.96458457697650
C           -3.85620866843017        3.12062920949498        1.62256309904194
C           -4.25401832936767        1.06367306415930        0.10072757117763
C           -5.54656277321376        1.10004837099634       -0.40556993877811
C           -5.98276663653673        0.09344044634086       -1.25137955360575
C           -7.38642867087203        0.06312516893455       -1.83773525650178
C           -7.29329112687115        0.12055668127144       -3.36904854002675
C           -8.24510511599589        1.24101638370819       -1.36899267851344
C           -8.08324207713767       -1.23528075475116       -1.40717954503220
C           -5.08785755074298       -0.93031111840941       -1.58819682133802
C           -3.79769223787267       -0.98832360476367       -1.10172920334807
C           -3.38224336941376        0.00734172360862       -0.23220789434292
N           -2.15468936300345        0.21386154241062        0.37603478167994
C           -1.05141691261842       -0.63432966232027        0.29843769102837
C           -1.21540803429050       -2.00744481241495        0.46154546287705
C           -0.10888857898842       -2.84874801260794        0.39744552881349
C           -0.24455600377495       -4.31453470938259        0.57315972455896
O            0.64380463825547       -5.01163597987623        1.01331762280884
C           -1.55127751609031       -4.88782799431788        0.15803020548992
C           -2.19316591191978       -5.87049772378967        0.91411496413084
N           -3.34996157556701       -6.39236688287607        0.55184635511604
C           -3.88806127337327       -5.93752022418398       -0.56543276057394
N           -3.36080557905451       -5.03764847022278       -1.37644021384414
C           -2.19419564586835       -4.52818498235614       -1.02747969008644
C            1.16153274810039       -2.32249658497448        0.18957352401499
C            1.32862575031620       -0.95151486695731        0.01764786652821
N            2.59612172328474       -0.42117034075393       -0.21094403559142
C            2.93120755726768        0.49937881035044       -1.18990922175778
C            2.15659916617559        1.07440526206686       -2.18470043098464
C            2.77086957381873        1.94257319341935       -3.06480812183533
C            4.13458364893549        2.25590652378554       -2.99926922756885
C            4.71481126803159        3.22719443734541       -4.01683903358247
C            6.21150336137773        3.47328343668592       -3.80763727612808
C            4.51903509645775        2.65385556373677       -5.42753592137818
C            3.99024037762546        4.57540689644738       -3.89765245992760
C            4.90377912498218        1.65416822677833       -2.01691517965599
C            4.31153270927914        0.77668751716532       -1.11856117271142
C            4.83291137082007       -0.01146907360717       -0.03503598002974
C            6.10162041727200       -0.13744177608696        0.51526584064049
C            6.30073013364195       -0.97976041944688        1.59659607033902
C            7.66304467502060       -1.17428232959495        2.24597546615450
C            8.76309793980882       -0.35910474521524        1.56037941308170
C            7.58898362931099       -0.73359591920633        3.71475196104195
C            8.05070434433966       -2.65757114149548        2.16632061117979
C            5.19878937671651       -1.67109634403708        2.11708827982960
C            3.92746493700657       -1.56411800197371        1.59038309899760
C            3.74739706372793       -0.74003620309451        0.49101110740849
C            0.21840675693132       -0.11198151555111        0.06766382810810
H           -4.79374539414585        6.48539532408229        3.46315677616118
H           -4.78109295027499        5.76974213930619        1.85527236414071
H           -5.38950486672882        4.84500190436072        3.24045744129415
H           -2.08351746990178        4.47621130739400        4.95607723515142
H           -3.77966165470871        4.00214163669350        5.00462865498164
H           -3.32514923147039        5.69169786830279        5.24628742156424
H           -1.20345622944832        5.82981327697683        2.97297018961487
H           -2.43752867243413        7.05327823312865        3.26015154344615
H           -2.30259248846232        6.28760463976445        1.67429851139840
H           -0.93281845767566        3.62180167545112        3.22553485767018
H           -0.32267910820121        1.56086409155144        2.10054253815055
H           -4.84882724714331        3.51709890753100        1.48993674331507
H           -6.18501667525946        1.92211280145606       -0.12844923905668
H           -6.77905153648273        1.02764960402857       -3.68014840666994
H           -8.28998583441258        0.12161437059650       -3.80537319640682
H           -6.74949202217962       -0.73207480460854       -3.76577808415779
H           -8.35729471717184        1.23717079518222       -0.28720534043413
H           -9.23709418729904        1.16416042476003       -1.80969329963249
H           -7.81290132890649        2.18916447348791       -1.68049033233508
H           -7.55078485028299       -2.11065805977703       -1.76819486116496
H           -9.09626336068707       -1.26587626687839       -1.80300202520001
H           -8.13487834634689       -1.29149012761173       -0.32171145204768
H           -5.40355546193503       -1.71455104537770       -2.25867110069067
H           -3.13987168604535       -1.78699400927088       -1.40773602905677
H           -2.19538172644096       -2.40077665703613        0.68375161382238
H           -1.76047572831011       -6.23043548846895        1.83848452331446
H           -4.84818874080729       -6.34789951759864       -0.84915635809158
H           -1.74681168930318       -3.82818919382726       -1.72271726292594
H            2.00501227323489       -2.99246438868165        0.13213063154790
H            1.10660481855040        0.84523104198502       -2.28939790016790
H            2.16156788505544        2.38818961817199       -3.83620050772590
H            6.57024630786143        4.17983154555641       -4.55351567004210
H            6.40456556065091        3.89617231404189       -2.82441540111443
H            6.77899414204660        2.55224239784718       -3.91876831753696
H            3.46604676364812        2.52201191180303       -5.66016607426901
H            5.00984111520645        1.68630806736426       -5.51082772570818
H            4.94967482883008        3.32460460126794       -6.16812771476374
H            4.40615753417736        5.28836337991685       -4.60655350826400
H            2.92774731289110        4.47537992396371       -4.10090496778463
H            4.10853630311779        4.97766995155905       -2.89357079793783
H            5.96092698325439        1.84210564626265       -1.93210863922744
H            6.90831261666240        0.43284106586620        0.08604958657007
H            8.87020020307165       -0.64673492904865        0.51700732264126
H            9.71328636805057       -0.54212247361686        2.05826806112499
H            8.55455600267181        0.70674932926944        1.61815890628016
H            8.56169430517393       -0.84561652768056        4.18924652880970
H            7.29157563577171        0.31117303549836        3.77879986921175
H            6.86920233723177       -1.32684438475513        4.27164193327670
H            7.33690526064526       -3.28397183210427        2.69369449742223
H            8.08546318316744       -2.98110073107560        1.12802746561428
H            9.03216595940466       -2.81298423330608        2.60959102906383
H            5.33450507540382       -2.31808922538471        2.97000992803470
H            3.10502663861202       -2.10342520972036        2.03522066054610
H            0.34359099855412        0.95114340568782       -0.06570367739647

          :  Hamiltonian                  GFN2-xTB          :
         :: gradient norm              0.000040771349 Eh/a0 ::
         :: HOMO-LUMO gap              1.465407252427 eV    ::
         :: SCC energy              -155.210085290270 Eh    ::
         :: -> dispersion             -0.139104087018 Eh    ::
         :: repulsion energy           2.573785357280 Eh    ::

    * Orbital Energies and Occupations

         #    Occupation            Energy/Eh            Energy/eV
      -------------------------------------------------------------
         1        2.0000           -0.7226113             -19.6633
       ...           ...                  ...                  ...
       130        2.0000           -0.4156420             -11.3102
       131        2.0000           -0.4111203             -11.1872
       132        2.0000           -0.4095630             -11.1448
       133        2.0000           -0.4086328             -11.1195
       134        2.0000           -0.4069489             -11.0736
       135        2.0000           -0.4023343             -10.9481
       136        2.0000           -0.3986350             -10.8474
       137        2.0000           -0.3969232             -10.8008
       138        2.0000           -0.3848499             -10.4723
       139        2.0000           -0.3755682             -10.2197
       140        2.0000           -0.3738523             -10.1730
       141        2.0000           -0.3619819              -9.8500
       142        2.0000           -0.3603269              -9.8050 (HOMO)
       143                         -0.3064741              -8.3396 (LUMO)
       144                         -0.2852541              -7.7622
       145                         -0.2670396              -7.2665
       146                         -0.2524752              -6.8702
       147                         -0.2424350              -6.5970
       148                         -0.2388233              -6.4987
       149                         -0.2197394              -5.9794
       150                         -0.2181115              -5.9351
       151                         -0.2171543              -5.9091
       152                         -0.1902925              -5.1781
       153                         -0.1875449              -5.1034
       ...                                ...                  ...
       278                          0.7422374              20.1973
      -------------------------------------------------------------
                  HL-Gap            0.0538528 Eh            1.4654 eV

     #   Z          covCN         q      C6AA      α(0)
     1   6 C        3.761    -0.107    22.595     6.776
     2   6 C        3.903     0.026    20.086     6.371
     3   6 C        3.762    -0.105    22.559     6.771
     4   6 C        3.762    -0.105    22.561     6.771
     5   6 C        2.973    -0.000    28.034     8.685
     6   6 C        2.931    -0.039    28.960     8.825
     7   6 C        2.909    -0.054    29.330     8.880
     8   6 C        3.073     0.042    26.983     8.517
     9   6 C        3.067    -0.018    28.400     8.739
    10   6 C        2.918    -0.043    29.075     8.842
    11   6 C        3.066    -0.019    28.406     8.740
    12   6 C        2.918    -0.043    29.076     8.842
    13   6 C        2.973    -0.000    28.028     8.684
    14   6 C        3.903     0.026    20.086     6.371
    15   6 C        3.762    -0.106    22.567     6.772
    16   6 C        3.761    -0.107    22.594     6.776
    17   6 C        3.762    -0.106    22.567     6.772
    18   6 C        2.931    -0.039    28.960     8.826
    19   6 C        2.909    -0.054    29.341     8.882
    20   6 C        3.074     0.041    27.001     8.520
    21   7 N        2.802    -0.046    22.123     6.986
    22   6 C        2.909     0.071    26.416     8.428
    23   6 C        2.924    -0.051    29.266     8.872
    24   6 C        2.972    -0.015    28.372     8.737
    25   6 C        2.826     0.227    23.236     7.899
    26   8 O        0.858    -0.354    20.790     6.113
    27   6 C        2.960    -0.027    28.664     8.782
    28   6 C        2.936     0.089    26.016     8.365
    29   7 N        1.834    -0.217    26.559     7.637
    30   6 C        2.925     0.153    24.682     8.147
    31   7 N        1.834    -0.219    26.625     7.646
    32   6 C        2.935     0.084    26.132     8.384
    33   6 C        2.927    -0.041    29.023     8.835
    34   6 C        2.909     0.071    26.410     8.427
    35   7 N        2.803    -0.044    22.089     6.980
    36   6 C        3.073     0.042    26.992     8.518
    37   6 C        2.909    -0.054    29.337     8.881
    38   6 C        2.931    -0.039    28.968     8.827
    39   6 C        2.973    -0.001    28.041     8.686
    40   6 C        3.903     0.026    20.086     6.371
    41   6 C        3.761    -0.107    22.594     6.776
    42   6 C        3.762    -0.105    22.557     6.770
    43   6 C        3.762    -0.105    22.558     6.771
    44   6 C        2.918    -0.043    29.075     8.842
    45   6 C        3.067    -0.018    28.396     8.738
    46   6 C        3.067    -0.019    28.406     8.739
    47   6 C        2.918    -0.043    29.078     8.843
    48   6 C        2.973    -0.000    28.031     8.684
    49   6 C        3.903     0.026    20.086     6.371
    50   6 C        3.761    -0.107    22.591     6.775
    51   6 C        3.761    -0.105    22.559     6.771
    52   6 C        3.762    -0.106    22.564     6.771
    53   6 C        2.931    -0.038    28.941     8.823
    54   6 C        2.908    -0.053    29.309     8.877
    55   6 C        3.074     0.042    26.981     8.517
    56   6 C        2.926    -0.056    29.395     8.891
    57   1 H        0.925     0.036     2.508     2.477
    58   1 H        0.925     0.036     2.507     2.476
    59   1 H        0.925     0.036     2.509     2.477
    60   1 H        0.925     0.036     2.507     2.476
    61   1 H        0.925     0.033     2.540     2.492
    62   1 H        0.925     0.037     2.494     2.470
    63   1 H        0.925     0.036     2.505     2.475
    64   1 H        0.925     0.036     2.497     2.471
    65   1 H        0.925     0.033     2.538     2.491
    66   1 H        0.926     0.031     2.577     2.510
    67   1 H        0.926     0.025     2.659     2.550
    68   1 H        0.926     0.039     2.464     2.455
    69   1 H        0.926     0.039     2.464     2.455
    70   1 H        0.925     0.033     2.541     2.493
    71   1 H        0.925     0.037     2.493     2.469
    72   1 H        0.925     0.037     2.492     2.469
    73   1 H        0.925     0.035     2.511     2.478
    74   1 H        0.925     0.036     2.507     2.476
    75   1 H        0.925     0.035     2.510     2.478
    76   1 H        0.925     0.037     2.491     2.468
    77   1 H        0.925     0.037     2.493     2.469
    78   1 H        0.925     0.033     2.546     2.495
    79   1 H        0.926     0.034     2.530     2.487
    80   1 H        0.926     0.022     2.700     2.570
    81   1 H        0.926     0.042     2.426     2.436
    82   1 H        0.925     0.064     2.148     2.292
    83   1 H        0.925     0.059     2.211     2.325
    84   1 H        0.925     0.048     2.340     2.392
    85   1 H        0.926     0.067     2.122     2.278
    86   1 H        0.926     0.023     2.682     2.561
    87   1 H        0.926     0.030     2.588     2.516
    88   1 H        0.925     0.035     2.512     2.479
    89   1 H        0.925     0.036     2.508     2.476
    90   1 H        0.925     0.036     2.507     2.476
    91   1 H        0.925     0.035     2.510     2.478
    92   1 H        0.925     0.033     2.538     2.492
    93   1 H        0.925     0.036     2.498     2.472
    94   1 H        0.925     0.036     2.500     2.473
    95   1 H        0.925     0.036     2.509     2.477
    96   1 H        0.925     0.033     2.540     2.492
    97   1 H        0.926     0.039     2.466     2.455
    98   1 H        0.926     0.038     2.474     2.459
    99   1 H        0.925     0.036     2.509     2.477
   100   1 H        0.925     0.035     2.513     2.479
   101   1 H        0.925     0.035     2.516     2.480
   102   1 H        0.925     0.036     2.499     2.472
   103   1 H        0.925     0.033     2.547     2.496
   104   1 H        0.925     0.036     2.501     2.473
   105   1 H        0.925     0.037     2.490     2.468
   106   1 H        0.925     0.034     2.535     2.490
   107   1 H        0.925     0.036     2.502     2.473
   108   1 H        0.926     0.032     2.552     2.498
   109   1 H        0.926     0.030     2.582     2.513
   110   1 H        0.926     0.059     2.206     2.323

molecular dipole:
                 x           y           z       tot (Debye)
 q only:       -0.265       1.283      -0.265
   full:       -0.089       1.338      -0.207       3.449

 projected vibrational frequencies (cm⁻¹)
eigval :       -0.00    -0.00    -0.00    -0.00     0.00     0.00
eigval :        9.68    10.12    12.32    13.87    22.14    30.44
eigval :       30.79    31.42    33.73    33.99    44.70    45.07
eigval :       59.51    62.12    63.95    67.99    74.56    85.26
eigval :       87.27   106.09   109.56   126.06   141.95   153.81
eigval :      159.15   160.23   172.06   175.55   180.85   184.97
eigval :      191.73   198.94   202.55   202.60   216.45   219.14
eigval :      221.27   222.38   225.39   230.13   235.14   239.77
eigval :      244.55   258.76   259.52   268.71   281.53   284.25
eigval :      290.15   313.99   317.06   317.78   318.13   322.10
eigval :      322.63   334.68   338.52   342.49   348.62   354.95
eigval :      357.32   360.10   360.38   367.35   372.11   382.05
eigval :      396.84   398.18   399.65   411.45   411.71   429.48
eigval :      440.80   441.10   442.44   442.86   459.62   461.73
eigval :      463.27   463.69   466.19   467.00   489.45   512.60
eigval :      520.26   540.39   555.76   575.75   580.25   584.55
eigval :      585.16   595.99   601.61   609.90   627.12   640.71
eigval :      640.74   641.81   664.74   666.46   670.68   687.86
eigval :      687.98   703.69   707.25   707.45   711.90   720.01
eigval :      722.95   723.29   768.34   793.59   817.10   820.74
eigval :      822.79   823.89   832.26   833.65   837.82   847.26
eigval :      869.15   870.02   872.58   874.11   874.54   877.09
eigval :      888.83   900.89   902.61   914.81   916.57   918.31
eigval :      923.53   924.62   925.74   927.47   929.61   935.21
eigval :      936.20   960.42   960.45   960.52   960.53   963.01
eigval :      963.09   963.11   963.19   963.19   963.44   963.46
eigval :      963.56   992.45  1015.65  1030.06  1030.74  1033.93
eigval :     1035.66  1035.87  1035.95  1035.97  1036.04  1038.79
eigval :     1040.23  1045.27  1054.47  1114.57  1119.14  1131.32
eigval :     1131.44  1136.12  1141.88  1145.15  1168.61  1175.49
eigval :     1177.81  1178.74  1193.51  1219.11  1224.03  1228.28
eigval :     1228.35  1228.37  1228.45  1228.54  1231.63  1232.08
eigval :     1232.46  1234.37  1237.00  1237.44  1240.70  1242.69
eigval :     1248.99  1251.99  1256.65  1268.92  1284.37  1285.48
eigval :     1297.85  1308.20  1309.22  1310.46  1326.08  1344.77
eigval :     1347.15  1347.60  1356.60  1360.10  1392.05  1393.35
eigval :     1397.41  1402.46  1402.80  1404.94  1405.00  1406.30
eigval :     1406.33  1406.36  1406.38  1412.34  1412.77  1429.67
eigval :     1429.69  1429.76  1429.81  1432.91  1433.57  1457.84
eigval :     1465.39  1482.82  1483.18  1484.52  1484.67  1492.24
eigval :     1492.34  1492.38  1492.47  1494.83  1494.91  1494.98
eigval :     1495.14  1501.43  1501.55  1501.83  1501.92  1505.62
eigval :     1505.70  1505.81  1505.90  1514.96  1515.06  1515.15
eigval :     1515.26  1520.16  1520.23  1521.00  1521.08  1544.41
eigval :     1548.06  1558.56  1564.64  1571.82  1572.78  1582.64
eigval :     1583.30  1605.22  1605.53  1616.63  1617.30  1706.36
eigval :     3021.50  3021.70  3021.93  3022.07  3023.05  3023.17
eigval :     3023.49  3023.53  3026.79  3026.83  3027.02  3027.05
eigval :     3029.95  3030.19  3030.38  3030.55  3030.92  3030.95
eigval :     3031.11  3031.21  3035.39  3035.44  3035.79  3035.85
eigval :     3037.80  3038.05  3038.30  3038.45  3043.81  3046.95
eigval :     3047.20  3047.97  3047.98  3050.39  3050.64  3051.73
eigval :     3051.77  3062.37  3067.07  3077.98  3079.76  3083.92
eigval :     3088.10  3093.33  3094.30  3096.77  3098.85  3100.86
eigval :     3109.44  3110.11  3116.60  3116.74  3120.12  3120.23

   temp. (K)  partition function   enthalpy   heat capacity  entropy
                                   cal/mol     cal/K/mol   cal/K/mol   J/K/mol
 298.15  VIB  0.253E+26            32223.794    195.069    200.860
         ROT  0.158E+09              888.752      2.981     40.497
         INT  0.400E+34            33112.546    198.050    241.356
         TR   0.194E+29             1481.254      4.968     45.659
         TOT                       34593.8002   203.0183   287.0155  1200.8726

       T/K    H(0)-H(T)+PV         H(T)/Eh          T*S/Eh         G(T)/Eh
   ------------------------------------------------------------------------
    298.15    0.551287E-01    0.965165E+00    0.136370E+00    0.828795E+00
   ------------------------------------------------------------------------

         :::::::::::::::::::::::::::::::::::::::::::::::::::::
         ::                  THERMODYNAMIC                  ::
         :::::::::::::::::::::::::::::::::::::::::::::::::::::
         :: total free energy        -151.807505068168 Eh   ::
         ::.................................................::
         :: total energy             -152.636299932989 Eh   ::
         :: zero point energy           0.910036437615 Eh   ::
         :: G(RRHO) w/o ZPVE           -0.081241572794 Eh   ::
         :: G(RRHO) contrib.            0.828794864821 Eh   ::
         :::::::::::::::::::::::::::::::::::::::::::::::::::::

           -------------------------------------------------
          | TOTAL ENERGY             -152.636299932989 Eh   |
          | TOTAL ENTHALPY           -151.671134765610 Eh   |
          | TOTAL FREE ENERGY        -151.807505068168 Eh   |
          | GRADIENT NORM               0.000040769883 Eh/α |
          | HOMO-LUMO GAP               1.465408228789 eV   |
           -------------------------------------------------

 * finished run on 2025/09/04 at 02:01:07.694
