   * xtb version 6.7.1 (edcfbbe) compiled by 'albert@albert-system' on 2024-07-22

   ID    Z sym.   atoms
    1    6 C      1-20, 22-25, 27, 28, 30, 32-34, 36-56
    2    7 N      21, 29, 31, 35
    3    8 O      26
    4    1 H      57-110

          program call               : xtb data2507/gas/35tCzBPym/35tCzBPym.xyz --gfn 2 --ohess vtight --parallel 40 --molden --ceasefiles --namespace data2507/gas/35tCzBPym/35tCzBPym_gas_S0_preOpt
          :  Hamiltonian                  GFN2-xTB          :
 * total energy  :  -152.6060773 Eh     change       -0.2073392E-08 Eh
 * total energy  :  -152.6244790 Eh     change       -0.1840170E-01 Eh
 * total energy  :  -152.6298556 Eh     change       -0.5376667E-02 Eh
 * total energy  :  -152.6314906 Eh     change       -0.1634989E-02 Eh
 * total energy  :  -152.6324625 Eh     change       -0.9718543E-03 Eh
 * total energy  :  -152.6327805 Eh     change       -0.3180428E-03 Eh
 * total energy  :  -152.6329547 Eh     change       -0.1742148E-03 Eh
 * total energy  :  -152.6331030 Eh     change       -0.1482422E-03 Eh
 * total energy  :  -152.6332246 Eh     change       -0.1215987E-03 Eh
 * total energy  :  -152.6333257 Eh     change       -0.1011727E-03 Eh
 * total energy  :  -152.6340122 Eh     change       -0.1230078E-05 Eh
 * total energy  :  -152.6340134 Eh     change       -0.1191342E-05 Eh
 * total energy  :  -152.6340145 Eh     change       -0.1149652E-05 Eh
 * total energy  :  -152.6340155 Eh     change       -0.9616258E-06 Eh
 * total energy  :  -152.6340163 Eh     change       -0.7776673E-06 Eh
 * total energy  :  -152.6340170 Eh     change       -0.7177973E-06 Eh
 * total energy  :  -152.6340178 Eh     change       -0.7803140E-06 Eh
 * total energy  :  -152.6340188 Eh     change       -0.9848987E-06 Eh
 * total energy  :  -152.6340188 Eh     change       -0.6791367E-08 Eh
   *** GEOMETRY OPTIMIZATION CONVERGED AFTER 68 ITERATIONS ***

 final structure:
================
110
 xtb: 6.7.1 (edcfbbe)
C           -4.23495112280719       -4.53774347824919       -3.17375908536320
C           -3.78978681216794       -3.29799966022273       -3.96276210357465
C           -4.97577581816827       -2.73476432483223       -4.75843962451594
C           -2.71263831128594       -3.73345425518908       -4.95993339902436
C           -3.29930372058288       -2.23932922896170       -2.98524500370659
C           -2.00420750247344       -1.71807527114207       -3.03101746231532
C           -1.55037103601052       -0.76480927087608       -2.13668415994013
C           -2.41734591612098       -0.32259781246791       -1.15273712981668
C           -3.74138145676350       -0.80815352500231       -1.10579059151146
C           -4.17039687378497       -1.76119477158596       -2.01473161226491
C           -4.39326150127236       -0.11881103266399       -0.02475456288593
C           -5.66986867772820       -0.18763439308661        0.50818678610839
C           -6.01252223960310        0.60101064702116        1.59908342297659
C           -7.42457829142728        0.51387585308093        2.16076352477005
C           -7.65161521695071        1.44929316464995        3.35140835198845
C           -7.68917073321398       -0.92446424297543        2.62820644587575
C           -8.42494750531544        0.89506710230151        1.06017255815863
C           -5.03696400974077        1.43662712094822        2.14794825264116
C           -3.75428496343465        1.52357234941535        1.63643293552980
C           -3.43567041486549        0.75713607709379        0.52892372671827
N           -2.24038157072457        0.62685882018930       -0.15940901939589
C           -1.06671697617082        1.33062455774536        0.10732425468140
C           -1.11179906694204        2.70809966638947        0.30663163548689
C            0.05894922451901        3.40302422492714        0.59507497576973
C            0.06349124485860        4.86268444304100        0.85182097691658
O            0.94309049893879        5.41323763378864        1.48006014201632
C           -1.07170650116775        5.64038356244441        0.29038474839545
C           -1.57310220698844        5.45863076681751       -0.99944631253110
N           -2.57256508083422        6.18124867349237       -1.47085637958770
C           -3.06765812053336        7.11342026810312       -0.67667827284581
N           -2.65043642446343        7.40246319679594        0.54303610476365
C           -1.66302357599843        6.67146958470589        1.02421306875870
C            1.27087909502583        2.72487832765282        0.68523418100831
C            1.32586283910379        1.35488391774364        0.44967684694858
N            2.54263383764033        0.68013995828862        0.51101739122023
C            2.78175960662781       -0.52226258053872        1.15656042912977
C            1.94170278584292       -1.31359782032230        1.92377486344937
C            2.46339513522259       -2.46378351930742        2.48140580515393
C            3.79770017927047       -2.85516669563949        2.31374773472258
C            4.27118161075012       -4.14943086979172        2.95871728196563
C            5.74868419326442       -4.43885197062173        2.67997337603864
C            4.08314972986719       -4.05462308218245        4.47935376319762
C            3.44481048473381       -5.31826872989761        2.40360870497988
C            4.63633774688779       -2.03811115718374        1.57342004179980
C            4.13735162769914       -0.87596275569008        1.00131700881533
C            4.74661927154618        0.16556708259344        0.21925790630896
C            6.03184563891579        0.35962935748326       -0.25992104810513
C            6.32675141323756        1.47968166637141       -1.02624196597396
C            7.75036480344182        1.67954594263065       -1.52650042360380
C            8.14408599637108        0.48777577721786       -2.41072947984237
C            7.91870686367451        2.95851339902585       -2.35111251254794
C            8.69465525768818        1.76529146410827       -0.31886448488004
C            5.29669064001184        2.37819903649472       -1.31488551434542
C            4.00487180511689        2.20790836079613       -0.84990334724541
C            3.73241817023101        1.10625526340997       -0.05779693992829
C            0.15244834072503        0.66078313539789        0.16415494934821
H           -4.57520996422631       -5.31441866975249       -3.85550618417032
H           -3.40421757480134       -4.92982209323641       -2.59056054522163
H           -5.04807807701625       -4.30390000685226       -2.49235472998825
H           -4.67296484901804       -1.84278642746937       -5.30303553261300
H           -5.80188715902447       -2.46952263123628       -4.10465469042875
H           -5.33156467815608       -3.47265772856046       -5.47449159832400
H           -2.38704617023323       -2.89832396763564       -5.57582374603951
H           -3.11911825094421       -4.49724930643376       -5.61997527899697
H           -1.85209630151398       -4.15709197866335       -4.44722535520366
H           -1.31485975298290       -2.05490215221487       -3.78724098840850
H           -0.54750481803761       -0.37469891379998       -2.22521560716021
H           -5.18723515719312       -2.11722334952772       -1.95573442004749
H           -6.38382116632414       -0.86462677640378        0.06526051742617
H           -6.99212693341307        1.19873146122407        4.17911149681786
H           -8.67782722398011        1.34848927484076        3.69925235453668
H           -7.49393137929110        2.48787514119396        3.06970390953277
H           -7.60970835159289       -1.62978123352810        1.80572163667368
H           -8.68904430249376       -1.00412515040335        3.04970318592520
H           -6.96855882874033       -1.20966979977575        3.39197216456494
H           -8.23105441458650        1.90706201048387        0.71060003493070
H           -9.44145749882821        0.85173265335052        1.44568157296811
H           -8.35516163672738        0.22265936979968        0.20978483451980
H           -5.26928724507724        2.04312825119807        3.00746139024538
H           -3.02561808380891        2.16532214873571        2.10933626566078
H           -2.05931657905367        3.21978341450868        0.24200528697048
H           -1.15019843250683        4.72678450612825       -1.67662127587628
H           -3.88844867965451        7.70129616236082       -1.06597171227094
H           -1.32881288019352        6.89795099120122        2.02842597236898
H            2.15893607500922        3.27580383944833        0.95264315949690
H            0.91234316549743       -1.04150784075438        2.10258249810172
H            1.80223276532977       -3.07706348589063        3.07438813153512
H            6.03004020153850       -5.37671464100463        3.15481836703800
H            5.93391792284853       -4.53447249178138        1.61252326164278
H            6.38423208586493       -3.65468030871005        3.08481689606236
H            3.03800145637626       -3.91908463306900        4.74297543586803
H            4.64626993886057       -3.21203835433461        4.87537566485534
H            4.43946397370898       -4.96419430788159        4.95849181217644
H            3.78183162025229       -6.25631289090435        2.83984623720620
H            2.38836533651953       -5.19978944839279        2.62753470091215
H            3.55918796674655       -5.37903612829743        1.32319135769775
H            5.67699116300025       -2.27652177955942        1.43098482401668
H            6.79007444337229       -0.37270510822126       -0.02969647591475
H            8.10971679791032       -0.44597839808158       -1.85652317995103
H            9.15471674278195        0.62061808167088       -2.79125606429693
H            7.46432627523823        0.40693121238022       -3.25654244429996
H            8.95509349373827        3.04841761614258       -2.67075918592944
H            7.29478712999818        2.93650574334205       -3.24168682666897
H            7.67207954714249        3.83934374170785       -1.76288899829313
H            8.40838063165997        2.59597415632992        0.32288912662861
H            8.66671975536186        0.85412902221197        0.27209265150397
H            9.71806188843601        1.92350480392083       -0.65272991544746
H            5.49332271904006        3.24450970401683       -1.92423752804776
H            3.23673389679474        2.91915533204184       -1.11390251528912
H            0.18632200270340       -0.40350458964268       -0.00722570886440

          :  Hamiltonian                  GFN2-xTB          :
         :: gradient norm              0.000062866709 Eh/a0 ::
         :: HOMO-LUMO gap              1.461578308871 eV    ::
         :: SCC energy              -155.207011257631 Eh    ::
         :: -> dispersion             -0.137613455868 Eh    ::
         :: repulsion energy           2.572992497749 Eh    ::

    * Orbital Energies and Occupations

         #    Occupation            Energy/Eh            Energy/eV
      -------------------------------------------------------------
         1        2.0000           -0.7215219             -19.6336
       ...           ...                  ...                  ...
       130        2.0000           -0.4165945             -11.3361
       131        2.0000           -0.4106870             -11.1754
       132        2.0000           -0.4103782             -11.1670
       133        2.0000           -0.4096911             -11.1483
       134        2.0000           -0.4078148             -11.0972
       135        2.0000           -0.4017320             -10.9317
       136        2.0000           -0.3979487             -10.8287
       137        2.0000           -0.3967949             -10.7973
       138        2.0000           -0.3835214             -10.4361
       139        2.0000           -0.3778108             -10.2808
       140        2.0000           -0.3752278             -10.2105
       141        2.0000           -0.3617531              -9.8438
       142        2.0000           -0.3604437              -9.8082 (HOMO)
       143                         -0.3067317              -8.3466 (LUMO)
       144                         -0.2840469              -7.7293
       145                         -0.2663939              -7.2489
       146                         -0.2521738              -6.8620
       147                         -0.2433415              -6.6217
       148                         -0.2397806              -6.5248
       149                         -0.2216412              -6.0312
       150                         -0.2191742              -5.9640
       151                         -0.2157523              -5.8709
       152                         -0.1912147              -5.2032
       153                         -0.1881570              -5.1200
       ...                                ...                  ...
       278                          0.7446074              20.2618
      -------------------------------------------------------------
                  HL-Gap            0.0537120 Eh            1.4616 eV

     #   Z          covCN         q      C6AA      α(0)
     1   6 C        3.762    -0.105    22.559     6.771
     2   6 C        3.903     0.026    20.085     6.370
     3   6 C        3.762    -0.105    22.558     6.770
     4   6 C        3.761    -0.107    22.596     6.776
     5   6 C        2.973    -0.000    28.031     8.684
     6   6 C        2.929    -0.043    29.064     8.841
     7   6 C        2.909    -0.054    29.347     8.883
     8   6 C        3.071     0.043    26.973     8.516
     9   6 C        3.065    -0.018    28.383     8.736
    10   6 C        2.920    -0.038    28.957     8.824
    11   6 C        3.064    -0.018    28.384     8.736
    12   6 C        2.920    -0.039    28.958     8.825
    13   6 C        2.972    -0.000    28.031     8.684
    14   6 C        3.903     0.026    20.085     6.370
    15   6 C        3.761    -0.107    22.594     6.776
    16   6 C        3.762    -0.105    22.557     6.770
    17   6 C        3.762    -0.105    22.559     6.771
    18   6 C        2.929    -0.043    29.068     8.842
    19   6 C        2.909    -0.054    29.348     8.883
    20   6 C        3.072     0.042    26.977     8.516
    21   7 N        2.801    -0.046    22.130     6.987
    22   6 C        2.909     0.070    26.424     8.429
    23   6 C        2.923    -0.052    29.283     8.874
    24   6 C        2.971    -0.015    28.378     8.738
    25   6 C        2.827     0.226    23.258     7.902
    26   8 O        0.858    -0.357    20.833     6.120
    27   6 C        2.959    -0.026    28.659     8.781
    28   6 C        2.933     0.082    26.171     8.390
    29   7 N        1.834    -0.220    26.636     7.648
    30   6 C        2.925     0.153    24.683     8.148
    31   7 N        1.833    -0.217    26.565     7.638
    32   6 C        2.938     0.089    26.014     8.365
    33   6 C        2.928    -0.041    29.017     8.834
    34   6 C        2.909     0.071    26.413     8.427
    35   7 N        2.802    -0.043    22.071     6.978
    36   6 C        3.072     0.042    26.974     8.516
    37   6 C        2.909    -0.053    29.325     8.880
    38   6 C        2.931    -0.039    28.960     8.825
    39   6 C        2.973    -0.000    28.035     8.685
    40   6 C        3.903     0.026    20.086     6.370
    41   6 C        3.761    -0.107    22.592     6.776
    42   6 C        3.761    -0.105    22.560     6.771
    43   6 C        3.762    -0.105    22.558     6.771
    44   6 C        2.918    -0.043    29.066     8.841
    45   6 C        3.066    -0.018    28.389     8.737
    46   6 C        3.065    -0.018    28.380     8.736
    47   6 C        2.920    -0.039    28.965     8.826
    48   6 C        2.973    -0.000    28.026     8.684
    49   6 C        3.903     0.026    20.085     6.370
    50   6 C        3.762    -0.105    22.557     6.770
    51   6 C        3.761    -0.107    22.595     6.776
    52   6 C        3.762    -0.105    22.561     6.771
    53   6 C        2.929    -0.042    29.055     8.840
    54   6 C        2.909    -0.053    29.316     8.878
    55   6 C        3.072     0.042    26.975     8.516
    56   6 C        2.926    -0.057    29.414     8.894
    57   1 H        0.925     0.036     2.497     2.471
    58   1 H        0.925     0.033     2.540     2.492
    59   1 H        0.925     0.036     2.503     2.474
    60   1 H        0.925     0.033     2.537     2.491
    61   1 H        0.925     0.036     2.503     2.474
    62   1 H        0.925     0.037     2.495     2.470
    63   1 H        0.925     0.035     2.513     2.479
    64   1 H        0.925     0.036     2.504     2.475
    65   1 H        0.925     0.035     2.512     2.478
    66   1 H        0.926     0.038     2.480     2.463
    67   1 H        0.926     0.025     2.664     2.552
    68   1 H        0.926     0.032     2.564     2.504
    69   1 H        0.926     0.032     2.561     2.503
    70   1 H        0.925     0.035     2.513     2.479
    71   1 H        0.925     0.036     2.501     2.473
    72   1 H        0.925     0.035     2.512     2.479
    73   1 H        0.925     0.036     2.503     2.474
    74   1 H        0.925     0.037     2.493     2.469
    75   1 H        0.925     0.033     2.541     2.493
    76   1 H        0.925     0.033     2.538     2.492
    77   1 H        0.925     0.037     2.494     2.470
    78   1 H        0.925     0.036     2.501     2.473
    79   1 H        0.926     0.037     2.485     2.465
    80   1 H        0.926     0.022     2.707     2.573
    81   1 H        0.926     0.043     2.404     2.424
    82   1 H        0.925     0.051     2.304     2.374
    83   1 H        0.925     0.059     2.214     2.327
    84   1 H        0.925     0.065     2.143     2.289
    85   1 H        0.926     0.070     2.086     2.259
    86   1 H        0.926     0.025     2.663     2.552
    87   1 H        0.926     0.030     2.582     2.513
    88   1 H        0.925     0.035     2.511     2.478
    89   1 H        0.925     0.035     2.511     2.478
    90   1 H        0.925     0.036     2.507     2.476
    91   1 H        0.925     0.036     2.508     2.476
    92   1 H        0.925     0.034     2.533     2.489
    93   1 H        0.925     0.036     2.497     2.471
    94   1 H        0.925     0.036     2.498     2.472
    95   1 H        0.925     0.036     2.508     2.477
    96   1 H        0.925     0.033     2.541     2.493
    97   1 H        0.926     0.038     2.471     2.458
    98   1 H        0.926     0.032     2.560     2.502
    99   1 H        0.925     0.036     2.504     2.474
   100   1 H        0.925     0.036     2.499     2.472
   101   1 H        0.925     0.033     2.546     2.495
   102   1 H        0.925     0.036     2.508     2.476
   103   1 H        0.925     0.035     2.519     2.482
   104   1 H        0.925     0.036     2.501     2.473
   105   1 H        0.925     0.034     2.529     2.487
   106   1 H        0.925     0.036     2.501     2.473
   107   1 H        0.925     0.036     2.500     2.473
   108   1 H        0.926     0.038     2.474     2.460
   109   1 H        0.926     0.025     2.660     2.550
   110   1 H        0.926     0.059     2.208     2.324

molecular dipole:
                 x           y           z       tot (Debye)
 q only:       -0.317      -1.294      -0.450
   full:       -0.193      -1.418      -0.362       3.753

 projected vibrational frequencies (cm⁻¹)
eigval :       -0.00    -0.00     0.00     0.00     0.00     0.00
eigval :        9.24     9.85    12.39    12.57    20.86    30.05
eigval :       30.27    30.88    31.97    33.06    42.50    44.30
eigval :       55.04    63.99    65.90    70.35    73.45    83.24
eigval :       85.17   105.89   111.93   123.81   144.83   153.06
eigval :      154.58   158.29   171.10   175.57   179.57   183.84
eigval :      186.68   191.93   193.49   197.65   216.89   217.48
eigval :      218.21   220.80   222.31   235.69   240.68   250.40
eigval :      259.42   263.88   265.66   274.45   288.33   301.96
eigval :      307.36   309.10   313.68   314.24   319.39   321.40
eigval :      323.17   326.19   328.64   334.72   346.01   355.24
eigval :      355.94   357.43   361.57   369.47   371.91   381.67
eigval :      397.44   399.67   402.04   411.94   412.27   429.63
eigval :      441.52   443.06   443.94   445.14   460.73   461.77
eigval :      462.71   462.80   470.20   471.78   482.57   512.61
eigval :      521.40   539.73   570.92   574.30   577.72   582.33
eigval :      584.01   590.60   601.10   609.84   622.45   639.68
eigval :      640.08   640.26   660.22   667.41   673.03   687.93
eigval :      688.17   702.47   707.40   707.67   711.87   719.55
eigval :      719.70   725.47   767.50   792.89   815.38   818.23
eigval :      819.20   822.79   833.26   835.15   837.88   849.90
eigval :      872.03   873.18   874.26   877.58   879.95   883.50
eigval :      890.32   898.72   901.51   910.62   912.84   913.61
eigval :      923.43   924.95   926.39   927.02   929.78   934.10
eigval :      935.99   960.18   960.21   960.23   960.52   962.64
eigval :      962.69   962.78   962.79   962.86   962.93   963.19
eigval :      963.27   992.97  1015.69  1030.51  1034.23  1035.52
eigval :     1035.76  1035.90  1035.91  1035.95  1035.97  1036.26
eigval :     1038.78  1044.69  1055.70  1115.15  1120.28  1132.07
eigval :     1132.47  1136.52  1141.60  1146.62  1169.73  1177.09
eigval :     1179.71  1182.31  1196.87  1219.88  1223.75  1227.66
eigval :     1227.92  1228.02  1228.12  1228.37  1228.91  1230.17
eigval :     1232.09  1233.61  1235.54  1237.40  1245.99  1247.51
eigval :     1249.74  1254.16  1256.16  1270.78  1285.34  1286.27
eigval :     1295.89  1303.74  1304.42  1308.27  1327.20  1339.39
eigval :     1348.53  1352.29  1361.21  1365.76  1391.50  1392.43
eigval :     1397.83  1402.18  1402.66  1404.79  1405.00  1406.08
eigval :     1406.16  1406.26  1406.37  1412.47  1413.13  1429.51
eigval :     1429.56  1429.71  1429.76  1432.18  1433.74  1457.43
eigval :     1465.74  1475.04  1475.44  1475.61  1483.64  1492.27
eigval :     1492.31  1492.38  1492.42  1494.65  1494.93  1495.05
eigval :     1495.16  1501.66  1502.09  1502.58  1502.85  1505.70
eigval :     1505.73  1505.96  1506.07  1515.14  1515.53  1515.58
eigval :     1515.67  1520.53  1520.56  1520.63  1520.70  1544.60
eigval :     1547.52  1559.24  1565.67  1573.22  1574.38  1584.87
eigval :     1586.75  1605.71  1606.31  1618.51  1620.19  1698.62
eigval :     3021.39  3021.62  3021.72  3021.78  3023.25  3023.31
eigval :     3023.42  3023.67  3026.94  3027.09  3027.12  3027.23
eigval :     3030.03  3030.26  3030.37  3030.73  3031.15  3031.19
eigval :     3031.39  3031.50  3035.65  3035.76  3035.92  3036.04
eigval :     3038.22  3038.32  3038.66  3038.79  3047.09  3047.20
eigval :     3047.25  3047.36  3047.64  3050.46  3050.75  3050.88
eigval :     3051.10  3061.54  3066.63  3077.83  3079.89  3081.78
eigval :     3082.50  3089.25  3090.83  3092.95  3094.05  3102.46
eigval :     3110.33  3111.85  3118.70  3120.27  3120.57  3121.04

   temp. (K)  partition function   enthalpy   heat capacity  entropy
                                   cal/mol     cal/K/mol   cal/K/mol   J/K/mol
 298.15  VIB  0.391E+26            32227.113    194.854    201.096
         ROT  0.159E+09              888.752      2.981     40.510
         INT  0.623E+34            33115.865    197.835    241.606
         TR   0.194E+29             1481.254      4.968     45.659
         TOT                       34597.1193   202.8031   287.2650  1201.9167

       T/K    H(0)-H(T)+PV         H(T)/Eh          T*S/Eh         G(T)/Eh
   ------------------------------------------------------------------------
    298.15    0.551340E-01    0.965178E+00    0.136489E+00    0.828689E+00
   ------------------------------------------------------------------------

         :::::::::::::::::::::::::::::::::::::::::::::::::::::
         ::                  THERMODYNAMIC                  ::
         :::::::::::::::::::::::::::::::::::::::::::::::::::::
         :: total free energy        -151.805330037818 Eh   ::
         ::.................................................::
         :: total energy             -152.634018759882 Eh   ::
         :: zero point energy           0.910043567320 Eh   ::
         :: G(RRHO) w/o ZPVE           -0.081354845256 Eh   ::
         :: G(RRHO) contrib.            0.828688722064 Eh   ::
         :::::::::::::::::::::::::::::::::::::::::::::::::::::

           -------------------------------------------------
          | TOTAL ENERGY             -152.634018759882 Eh   |
          | TOTAL ENTHALPY           -151.668841173552 Eh   |
          | TOTAL FREE ENERGY        -151.805330037818 Eh   |
          | GRADIENT NORM               0.000062858364 Eh/α |
          | HOMO-LUMO GAP               1.461578836764 eV   |
           -------------------------------------------------

 * finished run on 2025/09/04 at 01:41:08.170
