   * xtb version 6.7.1 (edcfbbe) compiled by 'albert@albert-system' on 2024-07-22

   ID    Z sym.   atoms
    1    6 C      1-11, 13-17, 19, 20, 22-26, 28
    2    7 N      12, 18, 21, 27
    3    1 H      29-40

          program call               : xtb data2507/toluene/APPT/APPT_toluene_S0_crest.xyz --gfn 2 --gbsa toluene --ohess vtight --parallel 40 --molden --ceasefiles --namespace data2507/toluene/APPT/APPT_toluene_S0_finalOpt
      * Solvation model:               GBSA
        Solvent                        toluene
        Solvent mass                       9.2140E+01 g/mol
          :  Hamiltonian                  GFN2-xTB          :
 * total energy  :   -69.2663658 Eh     change       -0.2045510E-08 Eh
 * total energy  :   -69.2663880 Eh     change       -0.2224658E-04 Eh
 * total energy  :   -69.2663917 Eh     change       -0.3634898E-05 Eh
 * total energy  :   -69.2663928 Eh     change       -0.1162770E-05 Eh
 * total energy  :   -69.2663935 Eh     change       -0.6413098E-06 Eh
 * total energy  :   -69.2663940 Eh     change       -0.5602996E-06 Eh
 * total energy  :   -69.2663947 Eh     change       -0.6888697E-06 Eh
 * total energy  :   -69.2663956 Eh     change       -0.9196060E-06 Eh
 * total energy  :   -69.2663966 Eh     change       -0.9505049E-06 Eh
 * total energy  :   -69.2663973 Eh     change       -0.7169321E-06 Eh
 * total energy  :   -69.2663977 Eh     change       -0.4052763E-06 Eh
 * total energy  :   -69.2663979 Eh     change       -0.1605051E-06 Eh
 * total energy  :   -69.2663979 Eh     change       -0.5895920E-07 Eh
   *** GEOMETRY OPTIMIZATION CONVERGED AFTER 13 ITERATIONS ***

 final structure:
================
40
 xtb: 6.7.1 (edcfbbe)
C            4.72396638550299        2.41611582331770        0.00802820283232
C            3.31633415203092        2.39535987985639        0.00886578657179
C            2.68372734967749        1.17632490591723        0.00689767521919
C            3.47078578763651        0.00016658401791        0.00440807026602
C            2.68382365038072       -1.17605562396867        0.00280737926254
C            3.31651971237086       -2.39504327612732       -0.00001571385901
C            4.72415329569026       -2.41568779656920       -0.00144635768056
C            5.48651426995452       -1.27123466541585        0.00010726029218
C            4.86799366566701        0.00022199296914        0.00325133165267
C            5.48641771763042        1.27172578076248        0.00518870176544
C            1.30339689041721       -0.71931456075266        0.00410003891323
N            0.19381036047037       -1.41791539892497        0.00345697360472
C           -0.95005787985527       -0.70571379935015        0.00369276177790
C           -2.19875216421534       -1.42416416187039        0.00345893286637
C           -2.23934122655575       -2.82468913713159        0.00426911655723
C           -3.46029783797492       -3.45913216890359        0.00453151763075
C           -4.61349931814368       -2.67029361687117        0.00424845184493
N           -4.59945285646238       -1.35866463555718        0.00310692296580
C           -3.42418799932684       -0.72515894151706        0.00244026897743
C           -3.42425483073523        0.72486858417646        0.00027395294779
N           -4.59957559053125        1.35825577557016       -0.00319059610786
C           -4.61375119544231        2.66988274121771       -0.00565906068572
C           -3.46063194075617        3.45883540163505       -0.00470223672778
C           -2.23961694770534        2.82451520067621       -0.00115163846630
C           -2.19888633579591        1.42399523731967        0.00129692063635
C           -0.95012188997868        0.70566756977633        0.00384581416400
N            0.19368338621665        1.41797294958673        0.00561255571304
C            1.30333467691110        0.71947148224802        0.00604737768976
H            5.21866174536499        3.37660288980210        0.00952828949813
H            2.75781912614567        3.31886193852003        0.01092804196551
H            2.75806885241206       -3.31858287853350       -0.00139966629283
H            5.21892117474912       -3.37613484797677       -0.00389840612560
H            6.56463873373240       -1.33748605905727       -0.00112866883124
H            6.56453849259261        1.33806354252124        0.00441875591120
H           -1.30785724680767       -3.37026442049379        0.00465255061494
H           -3.53252766149223       -4.53537709517570        0.00500650493347
H           -5.59706257161504       -3.12275693968575        0.00494683602006
H           -5.59735474438101        3.12224308540991       -0.00866359339176
H           -3.53296578135066        4.53507158040343       -0.00688120209268
H           -1.30819004462817        3.37018752957859       -0.00040215933342

          :  Hamiltonian                  GFN2-xTB          :
         :: gradient norm              0.000033058106 Eh/a0 ::
         :: HOMO-LUMO gap              1.544281464439 eV    ::
         :: SCC energy               -70.494701207332 Eh    ::
         :: -> dispersion             -0.055447455694 Eh    ::
         :: -> Gsolv                  -0.033520315019 Eh    ::
         :: repulsion energy           1.228303266511 Eh    ::

    * Orbital Energies and Occupations

         #    Occupation            Energy/Eh            Energy/eV
      -------------------------------------------------------------
         1        2.0000           -0.6879082             -18.7189
       ...           ...                  ...                  ...
        52        2.0000           -0.4454639             -12.1217
        53        2.0000           -0.4450774             -12.1112
        54        2.0000           -0.4388541             -11.9418
        55        2.0000           -0.4329265             -11.7805
        56        2.0000           -0.4326027             -11.7717
        57        2.0000           -0.4293702             -11.6838
        58        2.0000           -0.4191342             -11.4052
        59        2.0000           -0.4150613             -11.2944
        60        2.0000           -0.3998968             -10.8817
        61        2.0000           -0.3993333             -10.8664
        62        2.0000           -0.3736171             -10.1666
        63        2.0000           -0.3725503             -10.1376
        64        2.0000           -0.3643216              -9.9137 (HOMO)
        65                         -0.3075703              -8.3694 (LUMO)
        66                         -0.2989287              -8.1343
        67                         -0.2768518              -7.5335
        68                         -0.2741739              -7.4607
        69                         -0.2444710              -6.6524
        70                         -0.2318921              -6.3101
        71                         -0.2179296              -5.9302
        72                         -0.2051456              -5.5823
        73                         -0.1904796              -5.1832
        74                         -0.1665634              -4.5324
        75                         -0.1264936              -3.4421
       ...                                ...                  ...
       124                          0.7161784              19.4882
      -------------------------------------------------------------
                  HL-Gap            0.0567513 Eh            1.5443 eV

     #   Z          covCN         q      C6AA      α(0)
     1   6 C        2.918    -0.027    28.666     8.780
     2   6 C        2.912    -0.017    28.445     8.746
     3   6 C        3.029    -0.011    28.270     8.721
     4   6 C        3.145    -0.010    28.006     8.658
     5   6 C        3.029    -0.011    28.270     8.721
     6   6 C        2.912    -0.017    28.445     8.746
     7   6 C        2.918    -0.027    28.666     8.780
     8   6 C        2.918    -0.026    28.649     8.777
     9   6 C        2.976     0.019    27.591     8.616
    10   6 C        2.918    -0.026    28.649     8.777
    11   6 C        3.061     0.084    26.066     8.372
    12   7 N        1.839    -0.260    27.619     7.788
    13   6 C        2.980     0.074    26.343     8.419
    14   6 C        2.983    -0.016    28.397     8.741
    15   6 C        2.928    -0.013    28.345     8.731
    16   6 C        2.912    -0.039    28.976     8.827
    17   6 C        2.905     0.063    26.584     8.454
    18   7 N        1.841    -0.223    26.709     7.659
    19   6 C        2.970     0.083    26.139     8.386
    20   6 C        2.970     0.083    26.139     8.386
    21   7 N        1.841    -0.223    26.709     7.659
    22   6 C        2.905     0.063    26.584     8.454
    23   6 C        2.912    -0.039    28.976     8.827
    24   6 C        2.928    -0.013    28.345     8.731
    25   6 C        2.983    -0.016    28.397     8.741
    26   6 C        2.980     0.074    26.343     8.419
    27   7 N        1.839    -0.260    27.619     7.788
    28   6 C        3.061     0.084    26.066     8.372
    29   1 H        0.926     0.052     2.296     2.370
    30   1 H        0.926     0.052     2.297     2.370
    31   1 H        0.926     0.052     2.297     2.370
    32   1 H        0.926     0.052     2.296     2.370
    33   1 H        0.926     0.054     2.271     2.356
    34   1 H        0.926     0.054     2.271     2.356
    35   1 H        0.926     0.062     2.175     2.306
    36   1 H        0.926     0.054     2.269     2.356
    37   1 H        0.925     0.050     2.318     2.381
    38   1 H        0.925     0.050     2.318     2.381
    39   1 H        0.926     0.054     2.269     2.356
    40   1 H        0.926     0.062     2.175     2.306

molecular dipole:
                 x           y           z       tot (Debye)
 q only:        1.982       0.000      -0.001
   full:        2.568       0.000      -0.001       6.527

 projected vibrational frequencies (cm⁻¹)
eigval :       -0.00    -0.00    -0.00     0.00     0.00     0.00
eigval :       26.17    36.34    73.28    92.74    94.34   114.89
eigval :      153.64   161.02   184.75   207.49   223.74   226.98
eigval :      265.32   280.26   356.28   381.69   389.57   395.45
eigval :      397.87   413.15   417.99   426.14   461.61   462.92
eigval :      519.08   519.75   528.14   528.36   563.20   582.52
eigval :      593.15   599.12   605.95   628.96   674.54   676.80
eigval :      686.94   700.55   705.64   732.87   739.34   766.69
eigval :      784.88   788.83   795.17   798.93   808.68   814.38
eigval :      862.43   892.82   897.71   914.34   915.11   923.16
eigval :      927.28   927.53   929.35   944.00   964.25  1038.53
eigval :     1067.33  1069.92  1079.26  1087.97  1099.38  1127.69
eigval :     1129.11  1133.07  1152.73  1173.37  1182.56  1188.19
eigval :     1213.03  1226.65  1229.26  1241.80  1268.69  1278.28
eigval :     1303.82  1318.63  1326.24  1333.83  1357.37  1363.00
eigval :     1371.19  1393.39  1398.32  1413.88  1434.18  1440.82
eigval :     1452.45  1462.64  1480.77  1516.22  1536.82  1559.13
eigval :     1559.56  1565.93  1577.17  1581.15  1605.55  1609.68
eigval :     3049.52  3049.76  3076.85  3077.72  3087.40  3088.35
eigval :     3088.36  3088.96  3096.89  3098.22  3099.70  3100.11

   temp. (K)  partition function   enthalpy   heat capacity  entropy
                                   cal/mol     cal/K/mol   cal/K/mol   J/K/mol
 298.15  VIB  0.212E+07            10259.564     72.148     60.055
         ROT  0.691E+07              888.752      2.981     34.278
         INT  0.146E+14            11148.316     75.129     94.333
         TR   0.651E+28             1481.254      4.968     43.486
         TOT                       12629.5701    80.0973   137.8194   576.6365

       T/K    H(0)-H(T)+PV         H(T)/Eh          T*S/Eh         G(T)/Eh
   ------------------------------------------------------------------------
    298.15    0.201265E-01    0.308165E+00    0.654825E-01    0.242683E+00
   ------------------------------------------------------------------------

         :::::::::::::::::::::::::::::::::::::::::::::::::::::
         ::                  THERMODYNAMIC                  ::
         :::::::::::::::::::::::::::::::::::::::::::::::::::::
         :: total free energy         -69.023714956641 Eh   ::
         ::.................................................::
         :: total energy              -69.266397940860 Eh   ::
         :: zero point energy           0.288038940887 Eh   ::
         :: G(RRHO) w/o ZPVE           -0.045355956668 Eh   ::
         :: G(RRHO) contrib.            0.242682984219 Eh   ::
         :::::::::::::::::::::::::::::::::::::::::::::::::::::

           -------------------------------------------------
          | TOTAL ENERGY              -69.266397940860 Eh   |
          | TOTAL ENTHALPY            -68.958232498909 Eh   |
          | TOTAL FREE ENERGY         -69.023714956641 Eh   |
          | GRADIENT NORM               0.000033034442 Eh/α |
          | HOMO-LUMO GAP               1.544281481389 eV   |
           -------------------------------------------------

 * finished run on 2025/09/13 at 13:01:01.640
