   * xtb version 6.7.1 (edcfbbe) compiled by 'albert@albert-system' on 2024-07-22

   ID    Z sym.   atoms
    1    6 C      1-11, 13-17, 19, 20, 22-26, 28
    2    7 N      12, 18, 21, 27
    3    1 H      29-40

          program call               : xtb data2507/toluene/APPT/APPT_toluene_T1_crest.xyz --gfn 2 --uhf 2 --gbsa toluene --ohess vtight --parallel 40 --molden --ceasefiles --namespace data2507/toluene/APPT/APPT_toluene_T1_finalOpt
      * Solvation model:               GBSA
        Solvent                        toluene
        Solvent mass                       9.2140E+01 g/mol
          :  Hamiltonian                  GFN2-xTB          :
 * total energy  :   -69.2059936 Eh     change       -0.2712937E-08 Eh
 * total energy  :   -69.2060073 Eh     change       -0.1364450E-04 Eh
 * total energy  :   -69.2060094 Eh     change       -0.2121901E-05 Eh
 * total energy  :   -69.2060102 Eh     change       -0.7808953E-06 Eh
 * total energy  :   -69.2060107 Eh     change       -0.5557212E-06 Eh
 * total energy  :   -69.2060111 Eh     change       -0.3541495E-06 Eh
 * total energy  :   -69.2060114 Eh     change       -0.3347585E-06 Eh
 * total energy  :   -69.2060117 Eh     change       -0.3062878E-06 Eh
 * total energy  :   -69.2060120 Eh     change       -0.2526834E-06 Eh
 * total energy  :   -69.2060122 Eh     change       -0.1993112E-06 Eh
 * total energy  :   -69.2060124 Eh     change       -0.1701980E-06 Eh
 * total energy  :   -69.2060125 Eh     change       -0.1623266E-06 Eh
 * total energy  :   -69.2060127 Eh     change       -0.1677276E-06 Eh
 * total energy  :   -69.2060128 Eh     change       -0.1649513E-06 Eh
 * total energy  :   -69.2060130 Eh     change       -0.1333966E-06 Eh
 * total energy  :   -69.2060131 Eh     change       -0.1111005E-06 Eh
 * total energy  :   -69.2060132 Eh     change       -0.6585819E-07 Eh
   *** GEOMETRY OPTIMIZATION CONVERGED AFTER 17 ITERATIONS ***

 final structure:
================
40
 xtb: 6.7.1 (edcfbbe)
C            4.72782336819886        2.42294817005412       -0.01211236062595
C            3.33368235420964        2.41323928288788       -0.01071719164590
C            2.69044878385992        1.17783031958343       -0.00404467005837
C            3.47680670931010        0.00014363781297        0.00084472258993
C            2.69053868868605       -1.17759027007821        0.00617497967192
C            3.33382106252961       -2.41296853919474        0.01238383769655
C            4.72796077477977       -2.42261168995021        0.01281593681476
C            5.49365092176514       -1.26986953374349        0.00674513650522
C            4.87667059405666        0.00017507855285        0.00034176349963
C            5.49358618548897        1.27025099154341       -0.00654626883197
C            1.33416886751559       -0.75803456602713        0.00387912611711
N            0.19633717090053       -1.36349448203045        0.00401608489284
C           -0.96191961133839       -0.72751965687356        0.00171317883134
C           -2.20180758885556       -1.42510443555992       -0.00126477075167
C           -2.25423176078142       -2.83059405252563       -0.00480718476043
C           -3.47747047468031       -3.45877302247423       -0.00939668543571
C           -4.63125920741421       -2.67291389858531       -0.01033838153865
N           -4.60075230086137       -1.35812420693948       -0.00653123136891
C           -3.43382341240064       -0.72804829329788       -0.00193168692942
C           -3.43391476968935        0.72762417335282        0.00251099875478
N           -4.60093722754641        1.35753026548713        0.00573412872406
C           -4.63164757923457        2.67231266574443        0.00965677974224
C           -3.47797544770765        3.45833319342063        0.01046023560389
C           -2.25463738009430        2.83032969206122        0.00718603367331
C           -2.20199531989774        1.42485482753578        0.00324891279294
C           -0.96199573864167        0.72744163611669        0.00094202147373
N            0.19618631468972        1.36353268992745       -0.00122801685905
C            1.33410522595817        0.75818761911801       -0.00117751217609
H            5.23119397104110        3.37972743761547       -0.01772627010996
H            2.77400679585358        3.33554225374131       -0.01505311812599
H            2.77417762821115       -3.33528962519515        0.01703480266101
H            5.23138449918538       -3.37936528571677        0.01802603451891
H            6.57147361273933       -1.33827530299324        0.00712721702859
H            6.57140424551701        1.33871360108802       -0.00772710741580
H           -1.32463076368624       -3.38078544892157       -0.00422033843778
H           -3.55097947140410       -4.53470277692616       -0.01252341443452
H           -5.61652737182208       -3.11854278690934       -0.01435502857498
H           -5.61698839566270        3.11779117071260        0.01235942480150
H           -3.55164461595403        4.53425133634680        0.01382442984068
H           -1.32512518462354        3.38067084143944        0.00788377584624

          :  Hamiltonian                  GFN2-xTB          :
         :: gradient norm              0.000030919365 Eh/a0 ::
         :: HOMO-LUMO gap              0.244937586133 eV    ::
         :: SCC energy               -70.446245672132 Eh    ::
         :: -> dispersion             -0.055294740528 Eh    ::
         :: -> Gsolv                  -0.030136187454 Eh    ::
         :: repulsion energy           1.240232491396 Eh    ::

    * Orbital Energies and Occupations

         #    Occupation            Energy/Eh            Energy/eV
      -------------------------------------------------------------
         1        2.0000           -0.7018213             -19.0975
       ...           ...                  ...                  ...
        53        2.0000           -0.4494752             -12.2308
        54        2.0000           -0.4488295             -12.2133
        55        2.0000           -0.4366242             -11.8811
        56        2.0000           -0.4263036             -11.6003
        57        2.0000           -0.4216886             -11.4747
        58        2.0000           -0.4198254             -11.4240
        59        2.0000           -0.4086914             -11.1211
        60        2.0000           -0.3957544             -10.7690
        61        2.0000           -0.3914930             -10.6531
        62        1.9919           -0.3797253             -10.3329
        63        1.9839           -0.3790623             -10.3148
        64        1.0242           -0.3716432             -10.1129
        65        0.9913           -0.3107717              -8.4565 (HOMO)
        66        0.0087           -0.3017705              -8.2116 (LUMO)
        67                         -0.2789916              -7.5917
        68                         -0.2778509              -7.5607
        69                         -0.2332762              -6.3478
        70                         -0.2310819              -6.2881
        71                         -0.2212295              -6.0200
        72                         -0.2070192              -5.6333
        73                         -0.1776651              -4.8345
        74                         -0.1643919              -4.4733
        75                         -0.1292245              -3.5164
        76                         -0.1100746              -2.9953
       ...                                ...                  ...
       124                          0.7418727              20.1874
      -------------------------------------------------------------
                  HL-Gap            0.0090013 Eh            0.2449 eV

     #   Z          covCN         q      C6AA      α(0)
     1   6 C        2.917    -0.031    28.767     8.795
     2   6 C        2.909    -0.035    28.872     8.811
     3   6 C        3.021    -0.016    28.393     8.740
     4   6 C        3.153    -0.006    27.879     8.635
     5   6 C        3.021    -0.016    28.393     8.740
     6   6 C        2.909    -0.035    28.872     8.811
     7   6 C        2.917    -0.031    28.767     8.795
     8   6 C        2.918    -0.043    29.059     8.840
     9   6 C        2.973     0.015    27.680     8.630
    10   6 C        2.918    -0.043    29.059     8.840
    11   6 C        3.028     0.072    26.355     8.421
    12   7 N        1.841    -0.158    25.212     7.441
    13   6 C        2.951     0.059    26.671     8.471
    14   6 C        2.979    -0.009    28.247     8.718
    15   6 C        2.928    -0.019    28.475     8.751
    16   6 C        2.911    -0.037    28.911     8.817
    17   6 C        2.902     0.056    26.743     8.479
    18   7 N        1.842    -0.206    26.305     7.601
    19   6 C        2.967     0.082    26.165     8.390
    20   6 C        2.967     0.082    26.165     8.390
    21   7 N        1.842    -0.206    26.305     7.601
    22   6 C        2.902     0.056    26.743     8.479
    23   6 C        2.911    -0.037    28.911     8.817
    24   6 C        2.928    -0.019    28.475     8.751
    25   6 C        2.979    -0.009    28.247     8.718
    26   6 C        2.950     0.059    26.671     8.470
    27   7 N        1.841    -0.158    25.212     7.441
    28   6 C        3.028     0.072    26.355     8.421
    29   1 H        0.926     0.038     2.475     2.460
    30   1 H        0.926     0.036     2.505     2.475
    31   1 H        0.926     0.036     2.505     2.475
    32   1 H        0.926     0.038     2.475     2.460
    33   1 H        0.926     0.036     2.498     2.471
    34   1 H        0.926     0.036     2.498     2.471
    35   1 H        0.926     0.057     2.233     2.337
    36   1 H        0.926     0.059     2.210     2.325
    37   1 H        0.925     0.053     2.286     2.365
    38   1 H        0.925     0.053     2.286     2.365
    39   1 H        0.926     0.059     2.210     2.325
    40   1 H        0.926     0.057     2.233     2.337

molecular dipole:
                 x           y           z       tot (Debye)
 q only:        0.171      -0.000       0.000
   full:        0.727       0.000       0.001       1.849

 projected vibrational frequencies (cm⁻¹)
eigval :       -0.00    -0.00    -0.00    -0.00     0.00     0.00
eigval :       30.73    36.66    76.84    93.69    93.93   108.52
eigval :      162.22   163.55   184.68   198.54   221.14   228.13
eigval :      270.15   275.88   297.92   387.45   388.07   392.08
eigval :      402.81   419.38   425.05   436.81   442.84   451.86
eigval :      499.24   512.86   513.51   520.72   543.23   555.95
eigval :      563.42   573.28   586.19   620.55   625.68   652.87
eigval :      661.13   671.05   689.52   692.37   717.83   739.60
eigval :      756.38   779.14   783.04   785.16   790.60   792.83
eigval :      833.61   848.32   857.29   895.13   895.42   907.94
eigval :      908.37   909.33   912.95   914.63   927.69   969.07
eigval :     1020.51  1045.93  1072.85  1088.81  1089.19  1096.80
eigval :     1107.25  1113.78  1122.65  1133.05  1176.31  1176.99
eigval :     1185.44  1215.84  1227.25  1232.41  1257.98  1264.81
eigval :     1267.51  1287.24  1292.73  1321.81  1326.81  1358.35
eigval :     1363.37  1373.00  1376.37  1392.61  1407.64  1409.48
eigval :     1421.51  1433.99  1478.63  1496.09  1501.72  1518.37
eigval :     1530.60  1531.91  1549.91  1554.35  1560.71  1599.23
eigval :     3061.88  3062.16  3067.24  3067.80  3077.06  3077.34
eigval :     3083.11  3085.47  3094.49  3096.11  3099.96  3100.23

   temp. (K)  partition function   enthalpy   heat capacity  entropy
                                   cal/mol     cal/K/mol   cal/K/mol   J/K/mol
 298.15  VIB  0.220E+07            10515.225     74.278     61.280
         ROT  0.695E+07              888.752      2.981     34.289
         INT  0.153E+14            11403.978     77.258     95.568
         TR   0.651E+28             1481.254      4.968     43.486
         TOT                       12885.2317    82.2266   139.0547   581.8048

       T/K    H(0)-H(T)+PV         H(T)/Eh          T*S/Eh         G(T)/Eh
   ------------------------------------------------------------------------
    298.15    0.205339E-01    0.304279E+00    0.660694E-01    0.238209E+00
   ------------------------------------------------------------------------

         :::::::::::::::::::::::::::::::::::::::::::::::::::::
         ::                  THERMODYNAMIC                  ::
         :::::::::::::::::::::::::::::::::::::::::::::::::::::
         :: total free energy         -68.967803993444 Eh   ::
         ::.................................................::
         :: total energy              -69.206013180653 Eh   ::
         :: zero point energy           0.283744630450 Eh   ::
         :: G(RRHO) w/o ZPVE           -0.045535443241 Eh   ::
         :: G(RRHO) contrib.            0.238209187209 Eh   ::
         :::::::::::::::::::::::::::::::::::::::::::::::::::::

           -------------------------------------------------
          | TOTAL ENERGY              -69.206013180653 Eh   |
          | TOTAL ENTHALPY            -68.901734626508 Eh   |
          | TOTAL FREE ENERGY         -68.967803993444 Eh   |
          | GRADIENT NORM               0.000030855863 Eh/α |
          | HOMO-LUMO GAP               0.244936501166 eV   |
           -------------------------------------------------

 * finished run on 2025/09/13 at 13:02:11.512
