   * xtb version 6.7.1 (edcfbbe) compiled by 'albert@albert-system' on 2024-07-22

   ID    Z sym.   atoms
    1    6 C      1-11, 13-17, 19, 20, 22-26, 28
    2    7 N      12, 18, 21, 27
    3    1 H      29-40

          program call               : xtb data2507/toluene/APPT/APPT_toluene_S0_finalOpt.xtbopt.xyz --gfn 2 --uhf 2 --gbsa toluene --ohess vtight --parallel 40 --molden --ceasefiles --namespace data2507/toluene/APPT/APPT_toluene_T1_preOpt
      * Solvation model:               GBSA
        Solvent                        toluene
        Solvent mass                       9.2140E+01 g/mol
          :  Hamiltonian                  GFN2-xTB          :
 * total energy  :   -69.1986251 Eh     change       -0.5679652E-09 Eh
 * total energy  :   -69.2018171 Eh     change       -0.3192016E-02 Eh
 * total energy  :   -69.2047772 Eh     change       -0.2960084E-02 Eh
 * total energy  :   -69.2054787 Eh     change       -0.7015039E-03 Eh
 * total energy  :   -69.2059085 Eh     change       -0.4298646E-03 Eh
 * total energy  :   -69.2059880 Eh     change       -0.7947878E-04 Eh
 * total energy  :   -69.2060088 Eh     change       -0.2079547E-04 Eh
 * total energy  :   -69.2060132 Eh     change       -0.4342262E-05 Eh
 * total energy  :   -69.2060140 Eh     change       -0.8814948E-06 Eh
 * total energy  :   -69.2060124 Eh     change        0.1634850E-05 Eh
 * total energy  :   -69.2060142 Eh     change       -0.1784586E-05 Eh
 * total energy  :   -69.2060141 Eh     change        0.1218259E-06 Eh
 * total energy  :   -69.2060142 Eh     change       -0.1431499E-06 Eh
 * total energy  :   -69.2060142 Eh     change        0.5167303E-07 Eh
 * total energy  :   -69.2060142 Eh     change       -0.3960965E-07 Eh
   *** GEOMETRY OPTIMIZATION CONVERGED AFTER 15 ITERATIONS ***

 final structure:
================
40
 xtb: 6.7.1 (edcfbbe)
C            4.72877319809339        2.42302213980421        0.00679277855599
C            3.33463538936656        2.41328420547300        0.00672513026139
C            2.69143270309787        1.17783589508631        0.00514310925665
C            3.47778541536108        0.00014659359875        0.00384527692355
C            2.69152327353877       -1.17760670153970        0.00256150438870
C            3.33482849282841       -2.41300387835486        0.00082721566645
C            4.72896629678385       -2.42262888867051        0.00039644590501
C            5.49464488964659       -1.26985273226226        0.00178740397545
C            4.87763839629952        0.00020212537922        0.00362945727263
C            5.49454206630781        1.27030626683679        0.00520137791488
C            1.33516913480692       -0.75806037801507        0.00310599957203
N            0.19732005749743       -1.36346575829590        0.00270274419423
C           -0.96092645867513       -0.72750517080543        0.00267371610598
C           -2.20084806926353       -1.42506193502444        0.00276039769616
C           -2.25331714042727       -2.83054886594744        0.00404409964378
C           -3.47660515565414       -3.45868302270126        0.00440111667097
C           -4.63034983733269       -2.67279338529007        0.00346386779856
N           -4.59980812266813       -1.35798529664549        0.00212536518813
C           -3.43283200316802       -0.72797411689615        0.00170650800397
C           -3.43288740994806        0.72772080609070        0.00001704251962
N           -4.59991428100738        1.35763629781685       -0.00242944674336
C           -4.63055181695372        2.67244410403475       -0.00396157387408
C           -3.47686895426812        3.45842347632479       -0.00297238933567
C           -2.25353433155585        2.83038843162907       -0.00053387041730
C           -2.20095634253115        1.42490304784170        0.00089301865122
C           -0.96098803839289        0.72744373216054        0.00266722554572
N            0.19721506563568        1.36349487770715        0.00380365134830
C            1.33510466693587        0.75818045746498        0.00434507503874
H            5.23213706203336        3.37981816094022        0.00808916793393
H            2.77492977922946        3.33558207251322        0.00792050290263
H            2.77519689425289       -3.33534648587572       -0.00028048621240
H            5.23240566271454       -3.37938516912502       -0.00110273023810
H            6.57246584150208       -1.33823795604551        0.00137406468644
H            6.57235781002630        1.33877870029514        0.00519686678852
H           -1.32374487006930       -3.38078227688076        0.00480424877568
H           -3.55016478865079       -4.53460616840284        0.00543723148397
H           -5.61564850536536       -3.11838629835810        0.00381632904697
H           -5.61588296564727        3.11795934203390       -0.00608562120047
H           -3.55051224657710        4.53434056575584       -0.00423159369476
H           -1.32400707507958        3.38069673151371        0.00018608764321

          :  Hamiltonian                  GFN2-xTB          :
         :: gradient norm              0.000075233238 Eh/a0 ::
         :: HOMO-LUMO gap              0.245111936062 eV    ::
         :: SCC energy               -70.446260022971 Eh    ::
         :: -> dispersion             -0.055294841712 Eh    ::
         :: -> Gsolv                  -0.030136006178 Eh    ::
         :: repulsion energy           1.240245791363 Eh    ::

    * Orbital Energies and Occupations

         #    Occupation            Energy/Eh            Energy/eV
      -------------------------------------------------------------
         1        2.0000           -0.7018293             -19.0977
       ...           ...                  ...                  ...
        53        2.0000           -0.4494731             -12.2308
        54        2.0000           -0.4488260             -12.2132
        55        2.0000           -0.4366240             -11.8811
        56        2.0000           -0.4263049             -11.6003
        57        2.0000           -0.4216902             -11.4748
        58        2.0000           -0.4198263             -11.4241
        59        2.0000           -0.4086935             -11.1211
        60        2.0000           -0.3957554             -10.7691
        61        2.0000           -0.3914938             -10.6531
        62        1.9919           -0.3797242             -10.3328
        63        1.9839           -0.3790606             -10.3148
        64        1.0242           -0.3716406             -10.1129
        65        0.9913           -0.3107744              -8.4566 (HOMO)
        66        0.0087           -0.3017669              -8.2115 (LUMO)
        67                         -0.2789927              -7.5918
        68                         -0.2778520              -7.5607
        69                         -0.2332755              -6.3478
        70                         -0.2310814              -6.2880
        71                         -0.2212315              -6.0200
        72                         -0.2070182              -5.6333
        73                         -0.1776659              -4.8345
        74                         -0.1643924              -4.4733
        75                         -0.1292239              -3.5164
        76                         -0.1100728              -2.9952
       ...                                ...                  ...
       124                          0.7419210              20.1887
      -------------------------------------------------------------
                  HL-Gap            0.0090075 Eh            0.2451 eV

     #   Z          covCN         q      C6AA      α(0)
     1   6 C        2.917    -0.031    28.767     8.795
     2   6 C        2.909    -0.035    28.872     8.811
     3   6 C        3.021    -0.016    28.393     8.740
     4   6 C        3.153    -0.006    27.879     8.635
     5   6 C        3.021    -0.016    28.393     8.740
     6   6 C        2.909    -0.035    28.872     8.811
     7   6 C        2.917    -0.031    28.767     8.795
     8   6 C        2.918    -0.043    29.059     8.840
     9   6 C        2.973     0.015    27.680     8.630
    10   6 C        2.918    -0.043    29.059     8.840
    11   6 C        3.028     0.072    26.355     8.421
    12   7 N        1.841    -0.158    25.211     7.441
    13   6 C        2.951     0.059    26.671     8.470
    14   6 C        2.979    -0.009    28.247     8.718
    15   6 C        2.928    -0.019    28.475     8.751
    16   6 C        2.911    -0.037    28.911     8.817
    17   6 C        2.902     0.056    26.743     8.479
    18   7 N        1.842    -0.206    26.305     7.601
    19   6 C        2.967     0.082    26.165     8.390
    20   6 C        2.967     0.082    26.165     8.390
    21   7 N        1.842    -0.206    26.305     7.601
    22   6 C        2.902     0.056    26.743     8.479
    23   6 C        2.911    -0.037    28.911     8.817
    24   6 C        2.928    -0.019    28.475     8.751
    25   6 C        2.979    -0.009    28.247     8.718
    26   6 C        2.951     0.059    26.671     8.470
    27   7 N        1.841    -0.158    25.211     7.441
    28   6 C        3.028     0.072    26.355     8.421
    29   1 H        0.926     0.038     2.475     2.460
    30   1 H        0.926     0.036     2.505     2.475
    31   1 H        0.926     0.036     2.505     2.475
    32   1 H        0.926     0.038     2.475     2.460
    33   1 H        0.926     0.036     2.498     2.471
    34   1 H        0.926     0.036     2.498     2.471
    35   1 H        0.926     0.057     2.233     2.337
    36   1 H        0.926     0.059     2.210     2.325
    37   1 H        0.925     0.053     2.286     2.365
    38   1 H        0.925     0.053     2.286     2.365
    39   1 H        0.926     0.059     2.210     2.325
    40   1 H        0.926     0.057     2.233     2.337

molecular dipole:
                 x           y           z       tot (Debye)
 q only:        0.171       0.000      -0.000
   full:        0.728       0.000       0.000       1.850

 projected vibrational frequencies (cm⁻¹)
eigval :       -0.00    -0.00     0.00     0.00     0.00     0.00
eigval :       30.54    36.70    76.91    93.69    93.94   108.60
eigval :      162.07   163.33   184.70   198.51   220.99   228.13
eigval :      270.18   275.86   297.91   387.34   387.96   392.08
eigval :      402.80   419.29   425.03   436.72   442.64   451.86
eigval :      499.07   512.86   513.49   520.64   543.02   555.84
eigval :      563.43   573.28   586.21   620.45   625.66   653.26
eigval :      660.98   671.06   689.55   692.38   717.82   739.58
eigval :      756.30   779.15   782.83   784.96   790.44   792.82
eigval :      833.58   848.11   857.16   895.09   895.21   908.10
eigval :      908.44   909.46   912.90   914.77   927.68   968.82
eigval :     1020.53  1045.90  1072.87  1088.82  1089.20  1096.80
eigval :     1106.98  1113.74  1122.51  1133.51  1176.48  1176.99
eigval :     1185.23  1215.86  1227.30  1233.02  1257.87  1264.70
eigval :     1267.53  1287.26  1292.68  1321.81  1326.75  1358.29
eigval :     1363.30  1372.87  1376.36  1392.55  1407.48  1409.31
eigval :     1421.52  1434.03  1478.63  1496.13  1501.71  1518.57
eigval :     1530.57  1532.01  1549.84  1554.40  1560.72  1599.23
eigval :     3061.79  3062.07  3067.29  3067.82  3077.08  3077.38
eigval :     3083.14  3085.46  3094.47  3096.03  3100.03  3100.29

   temp. (K)  partition function   enthalpy   heat capacity  entropy
                                   cal/mol     cal/K/mol   cal/K/mol   J/K/mol
 298.15  VIB  0.221E+07            10516.530     74.281     61.288
         ROT  0.695E+07              888.752      2.981     34.289
         INT  0.154E+14            11405.282     77.261     95.577
         TR   0.651E+28             1481.254      4.968     43.486
         TOT                       12886.5359    82.2296   139.0634   581.8412

       T/K    H(0)-H(T)+PV         H(T)/Eh          T*S/Eh         G(T)/Eh
   ------------------------------------------------------------------------
    298.15    0.205360E-01    0.304275E+00    0.660735E-01    0.238201E+00
   ------------------------------------------------------------------------

         :::::::::::::::::::::::::::::::::::::::::::::::::::::
         ::                  THERMODYNAMIC                  ::
         :::::::::::::::::::::::::::::::::::::::::::::::::::::
         :: total free energy         -68.967813008728 Eh   ::
         ::.................................................::
         :: total energy              -69.206014232345 Eh   ::
         :: zero point energy           0.283738717902 Eh   ::
         :: G(RRHO) w/o ZPVE           -0.045537494285 Eh   ::
         :: G(RRHO) contrib.            0.238201223617 Eh   ::
         :::::::::::::::::::::::::::::::::::::::::::::::::::::

           -------------------------------------------------
          | TOTAL ENERGY              -69.206014232345 Eh   |
          | TOTAL ENTHALPY            -68.901739512349 Eh   |
          | TOTAL FREE ENERGY         -68.967813008728 Eh   |
          | GRADIENT NORM               0.000081709566 Eh/α |
          | HOMO-LUMO GAP               0.245107044782 eV   |
           -------------------------------------------------

 * finished run on 2025/09/13 at 13:01:03.150
