   * xtb version 6.7.1 (edcfbbe) compiled by 'albert@albert-system' on 2024-07-22

   ID    Z sym.   atoms
    1    6 C      1-11, 13-17, 19, 20, 22-26, 28
    2    7 N      12, 18, 21, 27
    3    1 H      29-40

          program call               : xtb data2507/toluene/APPT/APPT.xyz --gfn 2 --gbsa toluene --ohess vtight --parallel 40 --molden --ceasefiles --namespace data2507/toluene/APPT/APPT_toluene_S0_preOpt
      * Solvation model:               GBSA
        Solvent                        toluene
        Solvent mass                       9.2140E+01 g/mol
          :  Hamiltonian                  GFN2-xTB          :
 * total energy  :   -69.2494188 Eh     change       -0.2877982E-09 Eh
 * total energy  :   -69.2635777 Eh     change       -0.1415890E-01 Eh
 * total energy  :   -69.2661533 Eh     change       -0.2575602E-02 Eh
 * total energy  :   -69.2663275 Eh     change       -0.1742313E-03 Eh
 * total energy  :   -69.2663930 Eh     change       -0.6547920E-04 Eh
 * total energy  :   -69.2663975 Eh     change       -0.4473515E-05 Eh
 * total energy  :   -69.2663981 Eh     change       -0.6466242E-06 Eh
 * total energy  :   -69.2663974 Eh     change        0.6883382E-06 Eh
 * total energy  :   -69.2663982 Eh     change       -0.7405360E-06 Eh
 * total energy  :   -69.2663980 Eh     change        0.1700335E-06 Eh
 * total energy  :   -69.2663982 Eh     change       -0.1679202E-06 Eh
 * total energy  :   -69.2663980 Eh     change        0.1738002E-06 Eh
 * total energy  :   -69.2663982 Eh     change       -0.1749321E-06 Eh
 * total energy  :   -69.2663980 Eh     change        0.1887851E-06 Eh
 * total energy  :   -69.2663982 Eh     change       -0.1919986E-06 Eh
 * total energy  :   -69.2663981 Eh     change        0.7674416E-07 Eh
 * total energy  :   -69.2663982 Eh     change       -0.7646743E-07 Eh
   *** GEOMETRY OPTIMIZATION CONVERGED AFTER 17 ITERATIONS ***

 final structure:
================
40
 xtb: 6.7.1 (edcfbbe)
C            4.49936409606377        2.41591248248104       -0.00000107684176
C            3.09172984274826        2.39520742313154       -0.00000068692222
C            2.45907944112736        1.17619568479714       -0.00000008940432
C            3.24609064893707        0.00000255332172        0.00000007270583
C            2.45908044938664       -1.17619117847620        0.00000062313294
C            3.09173118075192       -2.39520273287253        0.00000115717554
C            4.49936539375772       -2.41590731977094        0.00000109369550
C            5.26177596685534       -1.27148511010649        0.00000041939852
C            4.64330178724717        0.00000263439858       -0.00000014576740
C            5.26177534231404        1.27149071315216       -0.00000086314422
C            1.07866823685128       -0.71939008764082        0.00000071679194
N           -0.03095228462347       -1.41793942542680        0.00000064394839
C           -1.17479674446797       -0.70569089146376        0.00000042648903
C           -2.42352479925853       -1.42409181917122       -0.00000014462905
C           -2.46421920965722       -2.82461167723395        0.00000000289612
C           -3.68522551471805       -3.45897925332578       -0.00000028549901
C           -4.83837479344600       -2.67007377419979       -0.00000082237893
N           -4.82422555091800       -1.35843915304769       -0.00000148671977
C           -3.64892786401020       -0.72501726748655       -0.00000083225106
C           -3.64892913081797        0.72501226390328       -0.00000032570141
N           -4.82422814248359        1.35843162779148       -0.00000037299154
C           -4.83838031724538        2.67006621488514        0.00000033447609
C           -3.68523273898100        3.45897411349797        0.00000116191719
C           -2.46422503461111        2.82460915038996        0.00000120694412
C           -2.42352739853721        1.42408938006169        0.00000048284669
C           -1.17479778068531        0.70569098752970        0.00000059222387
N           -0.03095423936857        1.41794116938186        0.00000052543657
C            1.07866740254717        0.71939343568245        0.00000041401773
H            4.99409159836582        3.37638479560949       -0.00000153945230
H            2.53324835237919        3.31873022328301       -0.00000090009067
H            2.53324977648825       -3.31872558206572        0.00000171780043
H            4.99409333243583       -3.37637940788396        0.00000133575926
H            6.33990195188281       -1.33777826240140        0.00000005893405
H            6.33990128396685        1.33778446780610       -0.00000115183669
H           -1.53279860536741       -3.37029889669398        0.00000039786501
H           -3.75751178599369       -4.53522063675542       -0.00000046137048
H           -5.82197374793029       -3.12245563246337       -0.00000215827957
H           -5.82198028308504        3.12244586513928        0.00000032635925
H           -3.75752139607508        4.53521533574688        0.00000180524756
H           -1.53280572182542        3.37029858649588        0.00000182721877

          :  Hamiltonian                  GFN2-xTB          :
         :: gradient norm              0.000012261741 Eh/a0 ::
         :: HOMO-LUMO gap              1.544278096692 eV    ::
         :: SCC energy               -70.494692044953 Eh    ::
         :: -> dispersion             -0.055447303178 Eh    ::
         :: -> Gsolv                  -0.033520299218 Eh    ::
         :: repulsion energy           1.228293859097 Eh    ::

    * Orbital Energies and Occupations

         #    Occupation            Energy/Eh            Energy/eV
      -------------------------------------------------------------
         1        2.0000           -0.6879073             -18.7189
       ...           ...                  ...                  ...
        52        2.0000           -0.4454644             -12.1217
        53        2.0000           -0.4450767             -12.1112
        54        2.0000           -0.4388534             -11.9418
        55        2.0000           -0.4329263             -11.7805
        56        2.0000           -0.4326017             -11.7717
        57        2.0000           -0.4293695             -11.6837
        58        2.0000           -0.4191336             -11.4052
        59        2.0000           -0.4150612             -11.2944
        60        2.0000           -0.3998966             -10.8817
        61        2.0000           -0.3993332             -10.8664
        62        2.0000           -0.3736160             -10.1666
        63        2.0000           -0.3725491             -10.1376
        64        2.0000           -0.3643210              -9.9137 (HOMO)
        65                         -0.3075698              -8.3694 (LUMO)
        66                         -0.2989282              -8.1342
        67                         -0.2768519              -7.5335
        68                         -0.2741743              -7.4607
        69                         -0.2444709              -6.6524
        70                         -0.2318925              -6.3101
        71                         -0.2179289              -5.9301
        72                         -0.2051460              -5.5823
        73                         -0.1904802              -5.1832
        74                         -0.1665633              -4.5324
        75                         -0.1264942              -3.4421
       ...                                ...                  ...
       124                          0.7161763              19.4881
      -------------------------------------------------------------
                  HL-Gap            0.0567512 Eh            1.5443 eV

     #   Z          covCN         q      C6AA      α(0)
     1   6 C        2.918    -0.027    28.666     8.780
     2   6 C        2.912    -0.017    28.445     8.746
     3   6 C        3.029    -0.011    28.270     8.721
     4   6 C        3.145    -0.010    28.006     8.658
     5   6 C        3.029    -0.011    28.270     8.721
     6   6 C        2.912    -0.017    28.445     8.746
     7   6 C        2.918    -0.027    28.666     8.780
     8   6 C        2.918    -0.026    28.649     8.777
     9   6 C        2.976     0.019    27.591     8.616
    10   6 C        2.918    -0.026    28.649     8.777
    11   6 C        3.060     0.084    26.066     8.372
    12   7 N        1.839    -0.260    27.619     7.788
    13   6 C        2.980     0.074    26.343     8.419
    14   6 C        2.983    -0.016    28.397     8.741
    15   6 C        2.928    -0.013    28.345     8.731
    16   6 C        2.912    -0.039    28.976     8.827
    17   6 C        2.905     0.063    26.584     8.454
    18   7 N        1.841    -0.223    26.709     7.659
    19   6 C        2.970     0.083    26.139     8.386
    20   6 C        2.970     0.083    26.139     8.386
    21   7 N        1.841    -0.223    26.709     7.659
    22   6 C        2.905     0.063    26.584     8.454
    23   6 C        2.912    -0.039    28.976     8.827
    24   6 C        2.928    -0.013    28.345     8.731
    25   6 C        2.983    -0.016    28.397     8.741
    26   6 C        2.980     0.074    26.343     8.419
    27   7 N        1.839    -0.260    27.619     7.788
    28   6 C        3.060     0.084    26.066     8.372
    29   1 H        0.926     0.052     2.296     2.370
    30   1 H        0.926     0.052     2.297     2.370
    31   1 H        0.926     0.052     2.297     2.370
    32   1 H        0.926     0.052     2.296     2.370
    33   1 H        0.926     0.054     2.271     2.356
    34   1 H        0.926     0.054     2.271     2.356
    35   1 H        0.926     0.062     2.175     2.306
    36   1 H        0.926     0.054     2.269     2.356
    37   1 H        0.925     0.050     2.318     2.381
    38   1 H        0.925     0.050     2.318     2.381
    39   1 H        0.926     0.054     2.269     2.356
    40   1 H        0.926     0.062     2.175     2.306

molecular dipole:
                 x           y           z       tot (Debye)
 q only:        1.982      -0.000      -0.000
   full:        2.568      -0.000      -0.000       6.527

 projected vibrational frequencies (cm⁻¹)
eigval :       -0.00    -0.00    -0.00     0.00     0.00     0.00
eigval :       25.00    36.43    74.05    93.20    94.35   115.94
eigval :      154.15   158.92   184.75   207.49   224.12   227.49
eigval :      265.32   279.55   356.47   381.77   389.11   397.23
eigval :      397.87   413.15   418.19   426.14   461.81   462.92
eigval :      519.08   519.76   528.19   528.51   563.20   582.56
eigval :      593.15   599.00   605.96   628.96   674.16   676.80
eigval :      686.95   700.55   705.67   732.89   739.39   766.58
eigval :      785.19   788.83   795.04   798.93   808.67   814.37
eigval :      862.44   892.72   897.62   914.31   915.00   923.12
eigval :      927.22   927.45   929.30   944.00   964.26  1038.53
eigval :     1067.33  1069.92  1079.25  1087.97  1099.37  1127.70
eigval :     1129.12  1133.07  1152.74  1173.36  1182.55  1188.17
eigval :     1213.00  1226.63  1229.27  1241.80  1268.69  1278.27
eigval :     1303.82  1318.61  1326.23  1333.82  1357.37  1363.00
eigval :     1371.20  1393.39  1398.33  1413.88  1434.18  1440.82
eigval :     1452.45  1462.64  1480.77  1516.22  1536.83  1559.13
eigval :     1559.56  1565.92  1577.16  1581.15  1605.56  1609.69
eigval :     3049.49  3049.72  3076.84  3077.71  3087.39  3088.35
eigval :     3088.35  3088.94  3096.91  3098.23  3099.70  3100.11

   temp. (K)  partition function   enthalpy   heat capacity  entropy
                                   cal/mol     cal/K/mol   cal/K/mol   J/K/mol
 298.15  VIB  0.217E+07            10258.617     72.144     60.053
         ROT  0.691E+07              888.752      2.981     34.278
         INT  0.150E+14            11147.369     75.125     94.330
         TR   0.651E+28             1481.254      4.968     43.486
         TOT                       12628.6233    80.0929   137.8165   576.6244

       T/K    H(0)-H(T)+PV         H(T)/Eh          T*S/Eh         G(T)/Eh
   ------------------------------------------------------------------------
    298.15    0.201250E-01    0.308166E+00    0.654811E-01    0.242685E+00
   ------------------------------------------------------------------------

         :::::::::::::::::::::::::::::::::::::::::::::::::::::
         ::                  THERMODYNAMIC                  ::
         :::::::::::::::::::::::::::::::::::::::::::::::::::::
         :: total free energy         -69.023713101100 Eh   ::
         ::.................................................::
         :: total energy              -69.266398185856 Eh   ::
         :: zero point energy           0.288041174388 Eh   ::
         :: G(RRHO) w/o ZPVE           -0.045356089632 Eh   ::
         :: G(RRHO) contrib.            0.242685084756 Eh   ::
         :::::::::::::::::::::::::::::::::::::::::::::::::::::

           -------------------------------------------------
          | TOTAL ENERGY              -69.266398185856 Eh   |
          | TOTAL ENTHALPY            -68.958232019164 Eh   |
          | TOTAL FREE ENERGY         -69.023713101100 Eh   |
          | GRADIENT NORM               0.000012252458 Eh/α |
          | HOMO-LUMO GAP               1.544277696667 eV   |
           -------------------------------------------------

 * finished run on 2025/09/13 at 13:00:13.279
