   * xtb version 6.7.1 (edcfbbe) compiled by 'albert@albert-system' on 2024-07-22

   ID    Z sym.   atoms
    1    6 C      1-6, 8-13, 15-38
    2    5 B      7
    3    7 N      14
    4    1 H      39-72

          program call               : xtb data2507/gas/CzoB/CzoB_gas_T1_crest.xyz --gfn 2 --spinpol --tblite --uhf 2 --ohess vtight --parallel 40 --molden --ceasefiles --namespace data2507/gas/CzoB/CzoB_gas_T1_finalOpt
 * total energy  :   -98.5410708 Eh     change        0.8846158E-08 Eh
 * total energy  :   -98.5410823 Eh     change       -0.1149526E-04 Eh
 * total energy  :   -98.5410882 Eh     change       -0.5841042E-05 Eh
 * total energy  :   -98.5410906 Eh     change       -0.2407190E-05 Eh
 * total energy  :   -98.5410941 Eh     change       -0.3539350E-05 Eh
 * total energy  :   -98.5410972 Eh     change       -0.3098376E-05 Eh
 * total energy  :   -98.5411010 Eh     change       -0.3754558E-05 Eh
 * total energy  :   -98.5411036 Eh     change       -0.2673156E-05 Eh
 * total energy  :   -98.5411050 Eh     change       -0.1421860E-05 Eh
 * total energy  :   -98.5411063 Eh     change       -0.1220461E-05 Eh
 * total energy  :   -98.5411160 Eh     change        0.1779377E-06 Eh
 * total energy  :   -98.5411164 Eh     change       -0.4297753E-06 Eh
 * total energy  :   -98.5411166 Eh     change       -0.1997143E-06 Eh
 * total energy  :   -98.5411167 Eh     change       -0.1373349E-06 Eh
 * total energy  :   -98.5411169 Eh     change       -0.1827340E-06 Eh
 * total energy  :   -98.5411171 Eh     change       -0.1887856E-06 Eh
 * total energy  :   -98.5411173 Eh     change       -0.1711513E-06 Eh
 * total energy  :   -98.5411174 Eh     change       -0.1374152E-06 Eh
 * total energy  :   -98.5411174 Eh     change       -0.9108902E-08 Eh
   *** GEOMETRY OPTIMIZATION CONVERGED AFTER 36 ITERATIONS ***

 final structure:
================
72
 xtb: 6.7.1 (edcfbbe)
C            3.10822399376058        3.37301025820915        1.41231486809550
C            1.92435340149409        2.48097827922034        1.22069820892097
C            1.80938184923445        1.28214338930720        1.91393133025084
C            0.72627647301978        0.44256145991377        1.73755381817630
C            0.61662337423111       -0.76726090236356        2.61506303894173
C           -0.27331682489334        0.75544067126581        0.77464881163902
B           -1.28927255012015       -0.32458563204014        0.29844235783692
C           -0.84894397282988       -1.72644726336087       -0.10355578096167
C           -1.74620900227532       -2.82840735415106       -0.05916988477056
C           -1.35280852721264       -4.12503733065812       -0.23254877913833
C           -0.00897085631367       -4.42647518416997       -0.50638574695796
C            0.89922814207521       -3.39167335098865       -0.60532387508705
C            0.51290249763712       -2.06641863494965       -0.45123450023603
N            1.50428984770755       -1.08916724438155       -0.58837310544876
C            2.71598145694057       -1.09000631111086        0.06987801214683
C            3.19575163316790       -1.96277343599313        1.03839738308751
C            4.44940161203649       -1.71831276509901        1.56625660166799
C            5.21667457519912       -0.63425853817146        1.14547361277624
C            4.74649076264708        0.23820353911570        0.18028662921236
C            3.49089488226232        0.01475276798581       -0.36077937817871
C            2.70917011239368        0.69145593624793       -1.35925571544621
C            2.93963204417014        1.79347252835544       -2.16741572458853
C            1.97713564414490        2.14551323159440       -3.09535838255809
C            0.81223201138712        1.39682924437525       -3.23882118356712
C            0.56106286183734        0.29596227385608       -2.44196960154286
C            1.50237771501179       -0.03527191361333       -1.47990016785368
C           -2.84276097124108        0.02295412679680        0.25464350092204
C           -3.45664464259721        0.56547139951127        1.39717554718363
C           -2.68623522219778        0.78348518360342        2.66498140923577
C           -4.80896699342915        0.86420227273079        1.39064774667781
C           -5.59931474110609        0.64499634589786        0.27091789157794
C           -7.06127444292696        0.97737622707910        0.29318058251853
C           -4.99256233894856        0.11188324332352       -0.85173155362078
C           -3.63731888507388       -0.19750849168987       -0.87919563600376
C           -3.08569085459301       -0.69724817970999       -2.18441331442791
C           -0.22371331727116        2.04902695780987        0.18933746164586
C           -1.33520750690018        2.52229443596168       -0.69349190908851
C            0.86883196568855        2.86244758998812        0.39040294611679
H            3.34265331373919        3.90025935418664        0.48966238983128
H            3.97588669877817        2.79698716006217        1.72647062745405
H            2.90013614540509        4.11992148827450        2.18052601733604
H            2.58634654939182        1.00261517372345        2.61301390097980
H            0.20542702114578       -1.61981730889067        2.08151644918426
H            1.58835068220171       -1.03228357863556        3.02597204094811
H           -0.05118736543949       -0.54901636841723        3.44982417114428
H           -2.78185713948424       -2.61321461907119        0.16317019050090
H           -2.07360325690534       -4.92653558640287       -0.15894712734250
H            0.30311819334331       -5.44562818256020       -0.67103377220995
H            1.92754571117855       -3.59838500909552       -0.87084002253880
H            2.60783401131279       -2.80342175228987        1.37282598624891
H            4.84343762073400       -2.38199899418673        2.32184698941467
H            6.19235258449555       -0.47720148401245        1.58123914018206
H            5.34224509989912        1.07742914224094       -0.14577203823492
H            3.85642810407084        2.35662819282989       -2.07814882888877
H            2.13639137422199        3.00217504501094       -3.73351542822823
H            0.09362398283020        1.67952427657460       -3.99395049541335
H           -0.33101009943883       -0.29426345607655       -2.56586750567283
H           -2.30519708924501       -0.16740703221097        3.03479991725560
H           -3.31930708918681        1.22563430156164        3.43129410800475
H           -1.83541480373124        1.44057475764248        2.49385916562586
H           -5.26504686134545        1.26501558556019        2.28617496882033
H           -7.20917377378516        2.03043891509743        0.53121891199380
H           -7.57270067848828        0.38947400612758        1.05524974206218
H           -7.52170233238461        0.77098262683962       -0.66995978183319
H           -5.58176649414473       -0.05709975407668       -1.74330734996873
H           -2.23774773296344       -1.35745694001577       -2.03268262964848
H           -3.85052267739000       -1.23850546561037       -2.73794239582546
H           -2.76649331588973        0.14629718426703       -2.80005820016546
H           -1.06389182322229        3.45134083402803       -1.18975984432126
H           -1.56541440998120        1.77236919663724       -1.44562523779118
H           -2.24042639058667        2.68892708951293       -0.11036369022443
H            0.92044077364444        3.81778002407320       -0.11400095513256

 projected vibrational frequencies (cm⁻¹)
eigval :       -0.00    -0.00    -0.00    -0.00     0.00     0.00
eigval :       14.94    21.75    32.95    34.74    39.02    43.34
eigval :       48.54    55.67    65.23    72.10    76.86    88.53
eigval :      100.56   112.28   118.18   136.66   140.75   146.12
eigval :      152.97   157.81   164.50   173.77   178.32   190.25
eigval :      190.94   208.91   214.35   223.06   249.35   274.28
eigval :      276.53   278.51   292.00   299.14   308.53   323.60
eigval :      330.19   362.29   393.28   402.48   409.21   425.77
eigval :      435.44   448.73   460.64   472.90   480.03   486.06
eigval :      492.28   501.32   508.14   513.21   516.64   524.25
eigval :      535.91   538.60   547.92   560.23   581.28   591.90
eigval :      596.32   598.58   601.58   617.06   649.36   663.60
eigval :      665.99   673.33   705.34   712.03   739.63   756.16
eigval :      768.96   779.08   833.98   836.53   842.78   847.92
eigval :      865.28   866.86   871.51   874.06   875.42   889.37
eigval :      897.52   900.62   907.59   908.33   918.61   919.62
eigval :      924.64   959.46   961.57   974.26   975.29  1010.77
eigval :     1011.89  1016.15  1023.15  1024.49  1025.27  1026.34
eigval :     1029.85  1030.68  1034.53  1038.04  1041.91  1042.72
eigval :     1056.54  1066.74  1068.73  1070.43  1088.65  1110.76
eigval :     1126.78  1143.41  1156.15  1173.19  1176.35  1179.28
eigval :     1187.74  1196.61  1200.47  1227.24  1229.03  1230.98
eigval :     1236.85  1240.31  1280.41  1287.52  1292.68  1300.43
eigval :     1305.77  1319.53  1332.46  1344.08  1348.20  1366.38
eigval :     1370.97  1389.08  1397.22  1398.23  1400.63  1402.55
eigval :     1403.31  1407.35  1413.58  1415.28  1418.71  1423.06
eigval :     1428.28  1435.83  1457.53  1461.56  1466.45  1469.05
eigval :     1473.86  1474.23  1480.85  1483.28  1483.52  1483.94
eigval :     1484.54  1485.36  1488.95  1491.02  1492.14  1496.02
eigval :     1531.78  1541.98  1564.93  1568.56  1574.90  1584.22
eigval :     1584.91  1601.42  2972.23  2980.96  2985.67  2997.67
eigval :     3005.58  3007.18  3011.44  3019.16  3026.39  3026.84
eigval :     3031.09  3032.40  3032.77  3033.07  3039.33  3042.96
eigval :     3044.24  3055.73  3057.32  3057.61  3058.11  3058.64
eigval :     3062.10  3066.79  3076.27  3076.83  3078.58  3082.75
eigval :     3084.42  3091.69  3093.65  3096.31  3098.19  3127.81

   temp. (K)  partition function   enthalpy   heat capacity  entropy
                                   cal/mol     cal/K/mol   cal/K/mol   J/K/mol
 298.15  VIB  0.477E+16            20966.986    128.457    130.978
         ROT  0.236E+08              888.752      2.981     36.722
         INT  0.113E+24            21855.738    131.438    167.700
         TR   0.105E+29             1481.254      4.968     44.444
         TOT                       23336.9922   136.4059   212.1436   887.6087

       T/K    H(0)-H(T)+PV         H(T)/Eh          T*S/Eh         G(T)/Eh
   ------------------------------------------------------------------------
    298.15    0.371899E-01    0.617308E+00    0.100796E+00    0.516511E+00
   ------------------------------------------------------------------------

         :::::::::::::::::::::::::::::::::::::::::::::::::::::
         ::                  THERMODYNAMIC                  ::
         :::::::::::::::::::::::::::::::::::::::::::::::::::::
         :: total free energy         -98.024605974731 Eh   ::
         ::.................................................::
         :: total energy              -98.541117417290 Eh   ::
         :: zero point energy           0.580117834764 Eh   ::
         :: G(RRHO) w/o ZPVE           -0.063606392205 Eh   ::
         :: G(RRHO) contrib.            0.516511442558 Eh   ::
         :::::::::::::::::::::::::::::::::::::::::::::::::::::

           -------------------------------------------------
          | TOTAL ENERGY              -98.541117417290 Eh   |
          | TOTAL ENTHALPY            -97.923809718264 Eh   |
          | TOTAL FREE ENERGY         -98.024605974731 Eh   |
          | GRADIENT NORM               0.000100738295 Eh/α |
           -------------------------------------------------

 * finished run on 2025/08/23 at 23:35:11.859
