   * xtb version 6.7.1 (edcfbbe) compiled by 'albert@albert-system' on 2024-07-22

   ID    Z sym.   atoms
    1    6 C      1-6, 8-13, 15-38
    2    5 B      7
    3    7 N      14
    4    1 H      39-72

          program call               : xtb data2507/gas/CzoB/CzoB_gas_S0_crest.xyz --gfn 2 --ohess vtight --parallel 40 --molden --ceasefiles --namespace data2507/gas/CzoB/CzoB_gas_S0_finalOpt
          :  Hamiltonian                  GFN2-xTB          :
 * total energy  :   -98.6297323 Eh     change       -0.2593083E-08 Eh
 * total energy  :   -98.6297333 Eh     change       -0.1052334E-05 Eh
 * total energy  :   -98.6297348 Eh     change       -0.1455566E-05 Eh
 * total energy  :   -98.6297358 Eh     change       -0.9629146E-06 Eh
 * total energy  :   -98.6297366 Eh     change       -0.7994471E-06 Eh
 * total energy  :   -98.6297374 Eh     change       -0.8781489E-06 Eh
 * total energy  :   -98.6297380 Eh     change       -0.5509476E-06 Eh
 * total energy  :   -98.6297384 Eh     change       -0.4572028E-06 Eh
 * total energy  :   -98.6297391 Eh     change       -0.6397067E-06 Eh
 * total energy  :   -98.6297400 Eh     change       -0.9098582E-06 Eh
 * total energy  :   -98.6297458 Eh     change       -0.4489110E-06 Eh
 * total energy  :   -98.6297460 Eh     change       -0.2002479E-06 Eh
 * total energy  :   -98.6297464 Eh     change       -0.3836582E-06 Eh
 * total energy  :   -98.6297462 Eh     change        0.1553165E-06 Eh
 * total energy  :   -98.6297465 Eh     change       -0.3156321E-06 Eh
 * total energy  :   -98.6297467 Eh     change       -0.1550584E-06 Eh
 * total energy  :   -98.6297470 Eh     change       -0.2824083E-06 Eh
 * total energy  :   -98.6297471 Eh     change       -0.1560742E-06 Eh
 * total energy  :   -98.6297471 Eh     change       -0.1542584E-07 Eh
   *** GEOMETRY OPTIMIZATION CONVERGED AFTER 29 ITERATIONS ***

 final structure:
================
72
 xtb: 6.7.1 (edcfbbe)
C            3.05943128480024        3.52204323827778        1.53732577810545
C            1.90512806003017        2.60177739151154        1.28529645250620
C            1.75091199177576        1.44224299335035        2.02697766713520
C            0.71424896284784        0.55605833774436        1.77914654903133
C            0.56651836096918       -0.61722315910073        2.70534565206184
C           -0.21123574893012        0.80824282615077        0.75321391064539
B           -1.27468823295293       -0.25220572077195        0.30348241589382
C           -0.82088357749610       -1.72728201413411       -0.01775137075089
C           -1.74603252358069       -2.75759217403621        0.20295581091514
C           -1.42693687566766       -4.09204581854610        0.04532802861820
C           -0.15345572213632       -4.45067260119575       -0.36481011097819
C            0.78389354717113       -3.46428887576910       -0.60621391359091
C            0.46639543936365       -2.12108533495270       -0.43051707401989
N            1.49892201266467       -1.18728642078707       -0.65252103506299
C            2.66901887991959       -1.14029886562952        0.07560865063597
C            3.11072742451270       -1.97403782324631        1.09278573514665
C            4.32777953344641       -1.68712213523919        1.68055798045106
C            5.09434489709333       -0.59798652588769        1.27162607943246
C            4.66397636130692        0.22994311831763        0.25440116510464
C            3.44539746950275       -0.03953527394779       -0.35325392367263
C            2.71469905761429        0.57984314450765       -1.42036896990868
C            2.97204209323582        1.65764411357018       -2.25574492224581
C            2.06408048890494        1.95440931902531       -3.25205055603456
C            0.92295412200205        1.17720081456385       -3.43436511783862
C            0.64006035909645        0.10740610766997       -2.60735193713595
C            1.52651029924445       -0.17004185541715       -1.57884229934860
C           -2.80935514260571        0.08661149331815        0.23538490917744
C           -3.45514487092530        0.62402273997019        1.36707593272850
C           -2.70132981350313        0.86039747959065        2.64311141983197
C           -4.80910229830801        0.90765733902282        1.34198714955183
C           -5.57930753774304        0.68976151914525        0.20747548606991
C           -7.04104799527580        1.01777260025499        0.20572243719088
C           -4.95153616511876        0.16172270021587       -0.90565460318324
C           -3.59683385694454       -0.14631335102815       -0.90363266941109
C           -3.01693855401675       -0.67680574026356       -2.18332458084094
C           -0.10880090943755        2.03397736492916        0.07041481323151
C           -1.13584078396990        2.43861321245762       -0.94652812679016
C            0.94325437184628        2.89566872413543        0.33079733091514
H            3.22996041042806        4.17169974489964        0.68218511512663
H            3.96347284511375        2.94963540493158        1.73525887986389
H            2.86090197953439        4.14866992776280        2.40782181552013
H            2.46354796147740        1.21216739103961        2.80719254310825
H            1.54154654473743       -1.02337987170412        2.96549927963632
H            0.08994670222944       -0.28602624842246        3.62969115111917
H           -0.04615516233730       -1.40304605929629        2.27302373248256
H           -2.74294470213907       -2.48804805197670        0.52178620315677
H           -2.17011451654090       -4.85175881435853        0.23747071884773
H            0.10711497909359       -5.48985619712397       -0.50094876137600
H            1.77943487546881       -3.72518418297627       -0.93615437706062
H            2.52308706735186       -2.82058701123856        1.41631142475176
H            4.69371021846754       -2.32152939452387        2.47513258086048
H            6.03961724351835       -0.40641159815872        1.75819702303815
H            5.26008494056734        1.07082553731185       -0.06736270431588
H            3.87125570065601        2.24222231547626       -2.13160987415761
H            2.24558839842604        2.78807774875541       -3.91446033532062
H            0.24668582528099        1.41445322315223       -4.24312702176102
H           -0.23456690568063       -0.50361470558427       -2.76479111906695
H           -2.29863486433514       -0.07615291165334        3.02428416001617
H           -3.35487300812971        1.28793440983627        3.40039395618607
H           -1.86800390873314        1.53931887030635        2.47723693915083
H           -5.28246897502206        1.31073055663759        2.22719420604071
H           -7.19039032263396        2.08082482543151        0.39284694513409
H           -7.55507901027393        0.46730162062337        0.99302287355382
H           -7.49623067218689        0.76621600571864       -0.74906483783906
H           -5.52779182173340       -0.02028072941901       -1.80284531454647
H           -2.69457368114807        0.15061302098578       -2.81765166079017
H           -2.16403825833186       -1.32171399866696       -1.99695166038522
H           -3.76726137482029       -1.24092286726509       -2.73427013386052
H           -0.82138658708650        3.34000441295478       -1.46761362055882
H           -1.29326118553993        1.65368481319612       -1.67917408535236
H           -2.08866422908199        2.63626361083936       -0.45598894457832
H            1.02198512506958        3.81523490533483       -0.23275646889141

          :  Hamiltonian                  GFN2-xTB          :
         :: gradient norm              0.000154560159 Eh/a0 ::
         :: HOMO-LUMO gap              2.201444235262 eV    ::
         :: SCC energy              -100.442944687405 Eh    ::
         :: -> dispersion             -0.110131215426 Eh    ::
         :: repulsion energy           1.813197564058 Eh    ::

    * Orbital Energies and Occupations

         #    Occupation            Energy/Eh            Energy/eV
      -------------------------------------------------------------
         1        2.0000           -0.6655741             -18.1112
       ...           ...                  ...                  ...
        81        2.0000           -0.4097969             -11.1511
        82        2.0000           -0.4094949             -11.1429
        83        2.0000           -0.4065237             -11.0621
        84        2.0000           -0.4044587             -11.0059
        85        2.0000           -0.3990480             -10.8586
        86        2.0000           -0.3968064             -10.7977
        87        2.0000           -0.3905578             -10.6276
        88        2.0000           -0.3798496             -10.3362
        89        2.0000           -0.3778765             -10.2825
        90        2.0000           -0.3716948             -10.1143
        91        2.0000           -0.3679961             -10.0137
        92        2.0000           -0.3648255              -9.9274
        93        2.0000           -0.3526608              -9.5964 (HOMO)
        94                         -0.2717590              -7.3949 (LUMO)
        95                         -0.2373707              -6.4592
        96                         -0.2283660              -6.2142
        97                         -0.2184506              -5.9443
        98                         -0.2149281              -5.8485
        99                         -0.2076161              -5.6495
       100                         -0.2056734              -5.5967
       101                         -0.1997258              -5.4348
       102                         -0.1840309              -5.0077
       103                         -0.1778280              -4.8389
       104                         -0.1671269              -4.5478
       ...                                ...                  ...
       186                          0.7575342              20.6136
      -------------------------------------------------------------
                  HL-Gap            0.0809018 Eh            2.2015 eV

     #   Z          covCN         q      C6AA      α(0)
     1   6 C        3.758    -0.105    22.565     6.773
     2   6 C        2.964     0.015    27.684     8.630
     3   6 C        2.931    -0.055    29.364     8.887
     4   6 C        2.967     0.011    27.768     8.643
     5   6 C        3.759    -0.108    22.617     6.780
     6   6 C        2.889    -0.085    30.115     8.997
     7   5 B        2.708     0.253    17.673     7.050
     8   6 C        2.881    -0.073    29.827     8.953
     9   6 C        2.927    -0.030    28.759     8.795
    10   6 C        2.915    -0.035    28.864     8.810
    11   6 C        2.919    -0.027    28.678     8.782
    12   6 C        2.923    -0.042    29.044     8.838
    13   6 C        2.914     0.064    26.556     8.450
    14   7 N        2.804    -0.047    22.146     6.989
    15   6 C        3.086     0.050    26.785     8.484
    16   6 C        2.910    -0.050    29.242     8.867
    17   6 C        2.924    -0.035    28.884     8.813
    18   6 C        2.920    -0.043    29.058     8.840
    19   6 C        2.913    -0.032    28.809     8.801
    20   6 C        3.070    -0.016    28.329     8.727
    21   6 C        3.072    -0.017    28.346     8.730
    22   6 C        2.913    -0.032    28.793     8.799
    23   6 C        2.920    -0.042    29.035     8.836
    24   6 C        2.924    -0.033    28.828     8.805
    25   6 C        2.911    -0.052    29.298     8.876
    26   6 C        3.083     0.050    26.798     8.486
    27   6 C        2.887    -0.084    30.100     8.995
    28   6 C        2.968     0.012    27.738     8.639
    29   6 C        3.759    -0.114    22.722     6.796
    30   6 C        2.930    -0.056    29.404     8.893
    31   6 C        2.963     0.013    27.711     8.634
    32   6 C        3.758    -0.107    22.595     6.777
    33   6 C        2.931    -0.056    29.398     8.892
    34   6 C        2.967     0.012    27.747     8.640
    35   6 C        3.760    -0.107    22.599     6.777
    36   6 C        2.968     0.012    27.751     8.641
    37   6 C        3.759    -0.111    22.664     6.787
    38   6 C        2.929    -0.054    29.343     8.884
    39   1 H        0.925     0.039     2.467     2.456
    40   1 H        0.925     0.042     2.422     2.434
    41   1 H        0.924     0.043     2.416     2.430
    42   1 H        0.925     0.023     2.693     2.566
    43   1 H        0.925     0.041     2.434     2.440
    44   1 H        0.924     0.040     2.445     2.445
    45   1 H        0.925     0.034     2.531     2.488
    46   1 H        0.926     0.036     2.499     2.472
    47   1 H        0.926     0.031     2.574     2.509
    48   1 H        0.926     0.033     2.550     2.497
    49   1 H        0.926     0.036     2.503     2.474
    50   1 H        0.926     0.025     2.663     2.552
    51   1 H        0.926     0.025     2.662     2.551
    52   1 H        0.926     0.024     2.670     2.555
    53   1 H        0.926     0.028     2.613     2.528
    54   1 H        0.926     0.029     2.600     2.522
    55   1 H        0.926     0.025     2.656     2.549
    56   1 H        0.926     0.025     2.661     2.551
    57   1 H        0.926     0.022     2.696     2.568
    58   1 H        0.925     0.040     2.448     2.447
    59   1 H        0.925     0.036     2.496     2.471
    60   1 H        0.925     0.050     2.319     2.381
    61   1 H        0.925     0.023     2.683     2.561
    62   1 H        0.925     0.043     2.410     2.428
    63   1 H        0.925     0.042     2.418     2.432
    64   1 H        0.925     0.038     2.479     2.462
    65   1 H        0.925     0.023     2.693     2.566
    66   1 H        0.924     0.039     2.464     2.455
    67   1 H        0.925     0.039     2.467     2.456
    68   1 H        0.925     0.038     2.481     2.463
    69   1 H        0.925     0.036     2.509     2.477
    70   1 H        0.925     0.042     2.418     2.432
    71   1 H        0.925     0.045     2.377     2.411
    72   1 H        0.925     0.023     2.695     2.567

molecular dipole:
                 x           y           z       tot (Debye)
 q only:       -0.495      -0.226       0.160
   full:       -0.540      -0.342       0.174       1.683

 projected vibrational frequencies (cm⁻¹)
eigval :       -0.00    -0.00    -0.00     0.00     0.00     0.00
eigval :       11.23    13.13    27.02    29.46    34.48    40.83
eigval :       46.72    57.18    58.64    71.75    85.60   102.73
eigval :      117.02   120.52   128.78   132.89   142.41   145.46
eigval :      148.69   158.56   164.02   174.69   180.94   185.37
eigval :      198.10   204.72   210.45   218.58   244.79   274.25
eigval :      275.15   279.19   285.60   309.95   321.71   326.93
eigval :      332.59   359.79   398.02   408.69   419.76   427.60
eigval :      437.30   461.78   478.99   484.15   488.77   493.15
eigval :      499.15   509.22   513.49   516.21   520.05   536.44
eigval :      542.32   544.01   557.55   581.92   594.74   599.11
eigval :      601.76   604.84   608.66   628.85   672.47   678.45
eigval :      680.14   705.31   706.65   719.89   757.62   770.52
eigval :      779.48   782.55   836.74   839.87   867.82   871.29
eigval :      875.99   881.51   886.25   889.81   890.34   898.75
eigval :      900.16   904.33   920.49   922.26   926.42   927.59
eigval :      933.14   963.96   965.03   976.56   978.66  1012.56
eigval :     1020.65  1024.10  1029.70  1030.42  1030.91  1033.03
eigval :     1034.71  1035.77  1041.86  1042.46  1044.76  1044.95
eigval :     1068.64  1071.55  1073.47  1098.68  1112.71  1137.18
eigval :     1151.40  1164.02  1176.74  1180.30  1182.15  1185.44
eigval :     1195.40  1210.44  1220.70  1236.19  1237.69  1237.99
eigval :     1243.68  1252.94  1292.11  1300.83  1302.70  1307.59
eigval :     1308.26  1334.25  1337.99  1355.04  1364.03  1367.00
eigval :     1399.60  1400.71  1401.57  1404.02  1406.02  1409.53
eigval :     1411.28  1426.09  1429.67  1430.08  1434.65  1450.57
eigval :     1455.44  1461.00  1477.74  1478.48  1479.57  1482.23
eigval :     1482.83  1483.75  1486.55  1487.21  1487.32  1488.66
eigval :     1490.88  1492.82  1494.82  1501.18  1554.15  1560.02
eigval :     1560.75  1575.31  1581.85  1592.88  1600.73  1602.92
eigval :     1605.02  1619.20  2982.49  2982.89  2991.43  3002.42
eigval :     3006.22  3015.29  3019.17  3025.71  3028.55  3031.61
eigval :     3032.75  3034.71  3037.64  3037.86  3041.09  3053.46
eigval :     3059.93  3061.18  3062.21  3063.18  3063.83  3066.66
eigval :     3070.02  3071.19  3072.98  3075.49  3076.48  3079.48
eigval :     3083.33  3084.06  3089.85  3091.79  3092.51  3106.02

   temp. (K)  partition function   enthalpy   heat capacity  entropy
                                   cal/mol     cal/K/mol   cal/K/mol   J/K/mol
 298.15  VIB  0.108E+17            20762.507    126.571    130.078
         ROT  0.239E+08              888.752      2.981     36.743
         INT  0.259E+24            21651.259    129.552    166.821
         TR   0.105E+29             1481.254      4.968     44.444
         TOT                       23132.5132   134.5200   211.2651   883.9331

       T/K    H(0)-H(T)+PV         H(T)/Eh          T*S/Eh         G(T)/Eh
   ------------------------------------------------------------------------
    298.15    0.368640E-01    0.620986E+00    0.100379E+00    0.520607E+00
   ------------------------------------------------------------------------

         :::::::::::::::::::::::::::::::::::::::::::::::::::::
         ::                  THERMODYNAMIC                  ::
         :::::::::::::::::::::::::::::::::::::::::::::::::::::
         :: total free energy         -98.109139654791 Eh   ::
         ::.................................................::
         :: total energy              -98.629747123343 Eh   ::
         :: zero point energy           0.584122319398 Eh   ::
         :: G(RRHO) w/o ZPVE           -0.063514850846 Eh   ::
         :: G(RRHO) contrib.            0.520607468551 Eh   ::
         :::::::::::::::::::::::::::::::::::::::::::::::::::::

           -------------------------------------------------
          | TOTAL ENERGY              -98.629747123343 Eh   |
          | TOTAL ENTHALPY            -98.008760797611 Eh   |
          | TOTAL FREE ENERGY         -98.109139654791 Eh   |
          | GRADIENT NORM               0.000154524475 Eh/α |
          | HOMO-LUMO GAP               2.201450685791 eV   |
           -------------------------------------------------

 * finished run on 2025/08/23 at 23:31:36.704
