   * xtb version 6.7.1 (edcfbbe) compiled by 'albert@albert-system' on 2024-07-22

   ID    Z sym.   atoms
    1    6 C      1-6, 8-13, 15-38
    2    5 B      7
    3    7 N      14
    4    1 H      39-72

          program call               : xtb data2507/gas/CzoB/CzoB_gas_S0_finalOpt.xtbopt.xyz --gfn 2 --spinpol --tblite --uhf 2 --ohess vtight --parallel 40 --molden --ceasefiles --namespace data2507/gas/CzoB/CzoB_gas_T1_preOpt
 * total energy  :   -98.5353703 Eh     change       -0.1813966E-07 Eh
 * total energy  :   -98.5384128 Eh     change       -0.3042501E-02 Eh
 * total energy  :   -98.5397430 Eh     change       -0.1330255E-02 Eh
 * total energy  :   -98.5399848 Eh     change       -0.2417593E-03 Eh
 * total energy  :   -98.5403325 Eh     change       -0.3477491E-03 Eh
 * total energy  :   -98.5404974 Eh     change       -0.1648712E-03 Eh
 * total energy  :   -98.5406882 Eh     change       -0.1908397E-03 Eh
 * total energy  :   -98.5408439 Eh     change       -0.1556987E-03 Eh
 * total energy  :   -98.5409182 Eh     change       -0.7429008E-04 Eh
 * total energy  :   -98.5409534 Eh     change       -0.3518646E-04 Eh
 * total energy  :   -98.5411156 Eh     change       -0.7586667E-06 Eh
 * total energy  :   -98.5411162 Eh     change       -0.6278381E-06 Eh
 * total energy  :   -98.5411167 Eh     change       -0.4475459E-06 Eh
 * total energy  :   -98.5411167 Eh     change        0.1446980E-07 Eh
 * total energy  :   -98.5411169 Eh     change       -0.2838311E-06 Eh
 * total energy  :   -98.5411169 Eh     change        0.2219092E-07 Eh
 * total energy  :   -98.5411171 Eh     change       -0.1738057E-06 Eh
 * total energy  :   -98.5411173 Eh     change       -0.2481701E-06 Eh
 * total energy  :   -98.5411174 Eh     change       -0.7521507E-07 Eh
   *** GEOMETRY OPTIMIZATION CONVERGED AFTER 44 ITERATIONS ***

 final structure:
================
72
 xtb: 6.7.1 (edcfbbe)
C            3.13769320875562        3.39033367418202        1.31363194962325
C            1.94295121198056        2.50793318970190        1.14653731125712
C            1.80487641650004        1.34059692727683        1.88794997308642
C            0.71238042438940        0.50871466166056        1.73538652348020
C            0.57783877243844       -0.66262290356864        2.66033911702340
C           -0.27347274325298        0.79449582071902        0.75005845542290
B           -1.29787349434761       -0.29154351956661        0.30668324358835
C           -0.87139752447622       -1.71343210536068       -0.03491230582633
C           -1.78421344030453       -2.80096232014493        0.03958369694467
C           -1.40671676229025       -4.10835681107749       -0.07959511772239
C           -0.06384317663156       -4.43795214784793       -0.32400204584890
C            0.85967350504035       -3.41989311688566       -0.45029212005727
C            0.48981004393743       -2.08464189218421       -0.35201003733209
N            1.49633925850883       -1.12690894759635       -0.51452642975214
C            2.70046314379966       -1.11913705315276        0.15750989531071
C            3.15640083160551       -1.95986660465624        1.16507571803189
C            4.40800423460758       -1.71351463060351        1.69694785923788
C            5.19634018577856       -0.65866312545237        1.24228706004377
C            4.74977476467928        0.18200805726963        0.23841801703066
C            3.49658555118743       -0.04368856417488       -0.30735483989940
C            2.73603738011032        0.60450558104762       -1.34048235493000
C            2.99168657742480        1.67049608490230       -2.18848223958327
C            2.04517092144814        1.99897584981448       -3.14110381272769
C            0.87128296861857        1.26153773123868       -3.26918777817884
C            0.59494686584201        0.19679911715979       -2.43263120920047
C            1.52018116506786       -0.10921925236594       -1.44689744209133
C           -2.84627522588049        0.07377728030542        0.23158597887613
C           -3.46597763959922        0.66586330865949        1.34592459556419
C           -2.70734397985004        0.91999726111908        2.61411425053817
C           -4.81394199713359        0.98206636198782        1.31201147892809
C           -5.59390204075427        0.73272954873104        0.19133773818389
C           -7.05158775861522        1.08400625698564        0.18373778332865
C           -4.98147904857712        0.15035285962663       -0.90344280664967
C           -3.63046640057674       -0.17808304950262       -0.90290310837975
C           -3.07033616612972       -0.73364874172202       -2.18164327277358
C           -0.20103755434813        2.06208988594738        0.11272738551431
C           -1.29725804162725        2.51304264703808       -0.80033530861436
C            0.90066333933486        2.86860313858712        0.29082053031477
H            3.36900450871249        3.90187784398490        0.38154325161256
H            4.00203819760397        2.80938708317764        1.62811685368303
H            2.94525595702246        4.14967673027869        2.07369279807959
H            2.57128090640225        1.08040459455750        2.60590420426302
H            1.54120445224649       -0.92099393430476        3.09451846449682
H           -0.09812983896992       -0.40316136781013        3.47646952461913
H            0.16388887821139       -1.53189028722953        2.15667649257245
H           -2.81948224217180       -2.56371112208788        0.24020863505508
H           -2.13941130496979       -4.89679118556448        0.01476296227034
H            0.23616685551078       -5.46670500637938       -0.44585503950190
H            1.88826098191160       -3.65024364711573       -0.69446599717634
H            2.55222546933727       -2.77789965779923        1.52559106176017
H            4.78388264164020       -2.35282888930372        2.48221190999667
H            6.16975961045562       -0.49924340651428        1.68223154213723
H            5.36193190822323        0.99856669319002       -0.11385611732260
H            3.91537176186419        2.22393341732555       -2.11024537142323
H            2.22416060934784        2.82742883079976       -3.81051402465516
H            0.16569500192300        1.52412723992701       -4.04360274219649
H           -0.30409268283048       -0.38535418951887       -2.54378346280845
H           -2.34454240232432       -0.02180145881633        3.02347350951815
H           -3.34281436013992        1.39915115933664        3.35579985039304
H           -1.84517598784412        1.55824228612420        2.42903235303375
H           -5.27490271963233        1.42153836710477        2.18666329277353
H           -7.19073515076698        2.14065819275270        0.41025219744602
H           -7.58416915261548        0.50884849143816        0.94115677425636
H           -7.49702850997745        0.87444267453525       -0.78573658167448
H           -5.56245168074976       -0.04325365090109       -1.79541041316674
H           -2.72918922084398        0.08160334354086       -2.82308811252069
H           -2.23543509166204       -1.40141496119863       -1.99461557946521
H           -3.83678385437576       -1.28231486548207       -2.72554883236199
H           -1.00923607792030        3.41821626158112       -1.33016604259174
H           -1.52858489670548        1.73654281005921       -1.52460175162727
H           -2.20650819398611        2.71352386073220       -0.23443860150915
H            0.96997037491703        3.80129908743684       -0.25233792566314

 projected vibrational frequencies (cm⁻¹)
eigval :       -0.00    -0.00    -0.00     0.00     0.00     0.00
eigval :        6.48    21.80    32.71    35.56    36.39    43.34
eigval :       48.62    56.32    65.88    72.16    76.70    88.44
eigval :      100.91   112.46   118.47   137.20   140.99   145.86
eigval :      152.35   157.55   164.43   173.78   178.14   190.29
eigval :      190.89   208.82   214.34   223.03   249.26   274.28
eigval :      276.54   278.52   292.01   298.85   308.40   323.54
eigval :      329.91   362.68   393.34   402.47   409.26   425.65
eigval :      435.37   448.70   460.78   472.65   479.88   486.15
eigval :      492.47   501.32   508.09   513.15   516.58   524.13
eigval :      536.25   538.49   547.97   560.26   581.24   591.81
eigval :      596.29   598.51   601.55   617.12   649.30   663.49
eigval :      665.97   673.33   705.34   712.29   739.73   756.13
eigval :      768.90   779.00   833.90   836.47   843.04   847.77
eigval :      865.23   866.93   871.38   874.02   875.33   889.43
eigval :      897.57   900.53   907.57   908.39   918.55   919.49
eigval :      924.72   959.37   961.52   974.31   975.37  1010.83
eigval :     1011.54  1015.92  1022.88  1024.30  1025.10  1026.20
eigval :     1029.72  1030.74  1034.35  1037.95  1041.75  1042.83
eigval :     1056.86  1066.87  1069.09  1070.63  1088.48  1110.52
eigval :     1126.98  1143.39  1155.96  1173.20  1176.98  1179.22
eigval :     1187.82  1196.48  1200.00  1227.30  1228.98  1230.80
eigval :     1236.76  1240.04  1280.32  1287.47  1292.61  1300.48
eigval :     1305.83  1319.57  1332.38  1343.92  1348.17  1366.45
eigval :     1370.60  1389.01  1396.93  1397.80  1400.38  1402.27
eigval :     1403.08  1407.14  1413.46  1415.27  1418.75  1422.94
eigval :     1428.27  1435.39  1457.31  1461.36  1466.43  1468.52
eigval :     1473.35  1473.79  1480.56  1482.91  1483.25  1483.66
eigval :     1484.40  1485.04  1488.47  1490.50  1491.49  1495.39
eigval :     1531.91  1542.14  1564.83  1568.45  1574.73  1583.93
eigval :     1584.81  1601.44  2972.16  2980.48  2985.84  2997.28
eigval :     3005.52  3007.05  3011.93  3018.67  3026.44  3027.83
eigval :     3030.48  3031.21  3032.34  3033.00  3039.34  3042.76
eigval :     3043.58  3055.44  3056.80  3057.18  3057.93  3058.10
eigval :     3061.59  3066.39  3075.99  3076.56  3078.17  3082.49
eigval :     3084.19  3091.18  3093.23  3095.67  3097.80  3127.59

   temp. (K)  partition function   enthalpy   heat capacity  entropy
                                   cal/mol     cal/K/mol   cal/K/mol   J/K/mol
 298.15  VIB  0.111E+17            20980.608    128.436    131.779
         ROT  0.236E+08              888.752      2.981     36.722
         INT  0.262E+24            21869.360    131.417    168.501
         TR   0.105E+29             1481.254      4.968     44.444
         TOT                       23350.6141   136.3847   212.9450   890.9618

       T/K    H(0)-H(T)+PV         H(T)/Eh          T*S/Eh         G(T)/Eh
   ------------------------------------------------------------------------
    298.15    0.372116E-01    0.617259E+00    0.101177E+00    0.516082E+00
   ------------------------------------------------------------------------

         :::::::::::::::::::::::::::::::::::::::::::::::::::::
         ::                  THERMODYNAMIC                  ::
         :::::::::::::::::::::::::::::::::::::::::::::::::::::
         :: total free energy         -98.025035024793 Eh   ::
         ::.................................................::
         :: total energy              -98.541117446651 Eh   ::
         :: zero point energy           0.580047884205 Eh   ::
         :: G(RRHO) w/o ZPVE           -0.063965462346 Eh   ::
         :: G(RRHO) contrib.            0.516082421858 Eh   ::
         :::::::::::::::::::::::::::::::::::::::::::::::::::::

           -------------------------------------------------
          | TOTAL ENERGY              -98.541117446651 Eh   |
          | TOTAL ENTHALPY            -97.923857990236 Eh   |
          | TOTAL FREE ENERGY         -98.025035024793 Eh   |
          | GRADIENT NORM               0.000108941799 Eh/α |
           -------------------------------------------------

 * finished run on 2025/08/23 at 23:31:43.695
