   * xtb version 6.7.1 (edcfbbe) compiled by 'albert@albert-system' on 2024-07-22

   ID    Z sym.   atoms
    1    6 C      1-6, 8-13, 15-38
    2    5 B      7
    3    7 N      14
    4    1 H      39-72

          program call               : xtb data2507/gas/CzoB/CzoB.xyz --gfn 2 --ohess vtight --parallel 40 --molden --ceasefiles --namespace data2507/gas/CzoB/CzoB_gas_S0_preOpt
          :  Hamiltonian                  GFN2-xTB          :
 * total energy  :   -98.5828271 Eh     change       -0.2005095E-08 Eh
 * total energy  :   -98.6151438 Eh     change       -0.3231670E-01 Eh
 * total energy  :   -98.6224647 Eh     change       -0.7320958E-02 Eh
 * total energy  :   -98.6241810 Eh     change       -0.1716291E-02 Eh
 * total energy  :   -98.6252175 Eh     change       -0.1036485E-02 Eh
 * total energy  :   -98.6257522 Eh     change       -0.5347244E-03 Eh
 * total energy  :   -98.6261541 Eh     change       -0.4018501E-03 Eh
 * total energy  :   -98.6265186 Eh     change       -0.3644795E-03 Eh
 * total energy  :   -98.6268998 Eh     change       -0.3811842E-03 Eh
 * total energy  :   -98.6273182 Eh     change       -0.4184695E-03 Eh
 * total energy  :   -98.6297380 Eh     change       -0.3544824E-06 Eh
 * total energy  :   -98.6297384 Eh     change       -0.3796028E-06 Eh
 * total energy  :   -98.6297389 Eh     change       -0.5241484E-06 Eh
 * total energy  :   -98.6297394 Eh     change       -0.5000087E-06 Eh
 * total energy  :   -98.6297398 Eh     change       -0.4334042E-06 Eh
 * total energy  :   -98.6297402 Eh     change       -0.4097731E-06 Eh
 * total energy  :   -98.6297406 Eh     change       -0.3778546E-06 Eh
 * total energy  :   -98.6297410 Eh     change       -0.3696795E-06 Eh
 * total energy  :   -98.6297410 Eh     change       -0.3893874E-08 Eh
   *** GEOMETRY OPTIMIZATION CONVERGED AFTER 152 ITERATIONS ***

 final structure:
================
72
 xtb: 6.7.1 (edcfbbe)
C            3.52219771377358        3.27651603700760       -1.07299856204721
C            2.30882323833862        2.49194173659577       -0.67911501296422
C            2.07834697337369        2.16097790577970        0.64559674076695
C            0.98227043914579        1.40025161404043        1.02262903147776
C            0.76168765064673        1.18179806797038        2.49238765251963
C            0.07073988655295        0.93548944314170        0.06093524721319
B           -1.07200918448109       -0.08053540040211        0.40859533837577
C           -0.72202449702052       -1.40199251157813        1.19306914889311
C           -1.70175114015657       -1.93953363088042        2.03984378231914
C           -1.46630462681232       -3.03286005123699        2.85026327419808
C           -0.22649199156583       -3.65031582090010        2.82948835151824
C            0.76174194471679       -3.15992197484634        1.99701452105061
C            0.52813958328111       -2.04931884917986        1.19250214865141
N            1.60454812042329       -1.59015524531251        0.40595292061333
C            2.78914595802018       -1.10529309412767        0.91834418148354
C            3.21126634720743       -1.01947287637864        2.23704223867838
C            4.45112998596500       -0.46171375522306        2.48299566990209
C            5.25914392629976        0.00090569803210        1.44654298749887
C            4.84924461500303       -0.09248274464498        0.13176708379976
C            3.60836232271712       -0.65162027430243       -0.14068045773970
C            2.88828045518198       -0.91752677071302       -1.35192864977378
C            3.18103022647305       -0.74256766742388       -2.69712813510665
C            2.27057488324521       -1.18441145987225       -3.63585115435628
C            1.09109077129238       -1.81469094154311       -3.24709302049920
C            0.77271808941214       -1.98828179085137       -1.91396622414610
C            1.66328565744352       -1.50909733773437       -0.96632760489163
C           -2.57931329258724        0.21691674195109        0.07119355826017
C           -3.16539945408267        1.42545556865358        0.49870521442931
C           -2.37756984216397        2.42477859759617        1.29431785580805
C           -4.49447908301929        1.70215201744440        0.23107645870369
C           -5.29657931691654        0.81587029071673       -0.47494496907674
C           -6.72723867421225        1.15031849936042       -0.76733964783630
C           -4.72794395240763       -0.37251459370587       -0.89527358784679
C           -3.40063193698569       -0.68289208188481       -0.62772418026875
C           -2.88275050538095       -1.98395181568769       -1.16975301157533
C            0.25639490488278        1.35449388069512       -1.26902651961364
C           -0.74370084378994        1.00607526822634       -2.33251727632934
C            1.36656786402938        2.10359840402779       -1.61968813012241
H            3.76788044577434        3.10813006618434       -2.11887220757324
H            4.37357136289388        2.99377842706674       -0.45744739105901
H            3.34411110024131        4.34363921646616       -0.93320842447774
H            2.77663508727756        2.48749660203316        1.40403986957809
H            1.70843788391992        1.00338399774175        2.99746140540840
H            0.32116294652584        2.08096517043752        2.92668929528846
H            0.09005650954046        0.35009185736103        2.68450788584282
H           -2.67257813525927       -1.46490149739271        2.06235097660152
H           -2.24835263201477       -3.40629633528242        3.49475265682160
H           -0.03161848386583       -4.51065968728100        3.45251865206715
H            1.73179362963697       -3.63500324009366        1.96037834890491
H            2.59162661726058       -1.37752831036397        3.04602953840730
H            4.80292136643952       -0.38283754114725        3.50172979989277
H            6.22116434876303        0.43289722957413        1.68100908928000
H            5.47776938325383        0.25953796143740       -0.67251168328660
H            4.10905232655081       -0.28024591255841       -2.99848106227041
H            2.47963808826388       -1.05987569416651       -4.68823972416453
H            0.41287004564092       -2.17928375772868       -4.00529498459776
H           -0.13130682761341       -2.49604062350885       -1.61740524215841
H           -2.03417402715351        1.98091364694433        2.22672383943589
H           -2.98865799657379        3.29318134454820        1.53059441785797
H           -1.50247081779174        2.75451472305178        0.73904949275286
H           -4.92191278738734        2.63311231464991        0.57852851825322
H           -7.23736237435951        0.30984387494808       -1.23159754752020
H           -6.78363267638450        2.00455972640458       -1.44204992870811
H           -7.25236415227158        1.41644007608735        0.14902431065047
H           -5.33065856597161       -1.08283554994495       -1.44510925969076
H           -3.68636632907190       -2.71532848431484       -1.23262501573035
H           -2.48965146197774       -1.83753167817992       -2.17709272155435
H           -2.09188273579566       -2.38824688771977       -0.54593649137084
H           -1.67769449258900        1.53880043470513       -2.15510080060066
H           -0.36811243541543        1.28352151194510       -3.31479299012924
H           -0.95977471948965       -0.05756924085498       -2.33368251579295
H            1.50733929315155        2.38298417616897       -2.65484836829823

          :  Hamiltonian                  GFN2-xTB          :
         :: gradient norm              0.000044451166 Eh/a0 ::
         :: HOMO-LUMO gap              2.200670157960 eV    ::
         :: SCC energy              -100.443021788629 Eh    ::
         :: -> dispersion             -0.110072715677 Eh    ::
         :: repulsion energy           1.813280799984 Eh    ::

    * Orbital Energies and Occupations

         #    Occupation            Energy/Eh            Energy/eV
      -------------------------------------------------------------
         1        2.0000           -0.6654563             -18.1080
       ...           ...                  ...                  ...
        81        2.0000           -0.4098447             -11.1524
        82        2.0000           -0.4093855             -11.1399
        83        2.0000           -0.4065850             -11.0637
        84        2.0000           -0.4044985             -11.0070
        85        2.0000           -0.3990462             -10.8586
        86        2.0000           -0.3966903             -10.7945
        87        2.0000           -0.3905129             -10.6264
        88        2.0000           -0.3799190             -10.3381
        89        2.0000           -0.3780265             -10.2866
        90        2.0000           -0.3718538             -10.1187
        91        2.0000           -0.3679483             -10.0124
        92        2.0000           -0.3646405              -9.9224
        93        2.0000           -0.3525626              -9.5937 (HOMO)
        94                         -0.2716895              -7.3930 (LUMO)
        95                         -0.2372773              -6.4566
        96                         -0.2284722              -6.2170
        97                         -0.2186699              -5.9503
        98                         -0.2149872              -5.8501
        99                         -0.2075884              -5.6488
       100                         -0.2057026              -5.5975
       101                         -0.1995886              -5.4311
       102                         -0.1840650              -5.0087
       103                         -0.1777308              -4.8363
       104                         -0.1673026              -4.5525
       ...                                ...                  ...
       186                          0.7576613              20.6170
      -------------------------------------------------------------
                  HL-Gap            0.0808731 Eh            2.2007 eV

     #   Z          covCN         q      C6AA      α(0)
     1   6 C        3.758    -0.105    22.565     6.773
     2   6 C        2.964     0.014    27.687     8.631
     3   6 C        2.931    -0.055    29.364     8.887
     4   6 C        2.967     0.011    27.771     8.644
     5   6 C        3.759    -0.108    22.617     6.780
     6   6 C        2.889    -0.084    30.113     8.997
     7   5 B        2.708     0.253    17.671     7.050
     8   6 C        2.881    -0.073    29.819     8.952
     9   6 C        2.926    -0.030    28.760     8.795
    10   6 C        2.915    -0.035    28.862     8.810
    11   6 C        2.919    -0.027    28.680     8.782
    12   6 C        2.923    -0.042    29.040     8.837
    13   6 C        2.914     0.064    26.555     8.450
    14   7 N        2.804    -0.047    22.155     6.991
    15   6 C        3.086     0.050    26.783     8.483
    16   6 C        2.910    -0.050    29.241     8.867
    17   6 C        2.924    -0.035    28.879     8.813
    18   6 C        2.920    -0.043    29.056     8.839
    19   6 C        2.913    -0.032    28.804     8.801
    20   6 C        3.071    -0.016    28.331     8.727
    21   6 C        3.071    -0.016    28.346     8.730
    22   6 C        2.913    -0.032    28.794     8.799
    23   6 C        2.920    -0.042    29.038     8.837
    24   6 C        2.924    -0.033    28.834     8.806
    25   6 C        2.911    -0.053    29.308     8.877
    26   6 C        3.084     0.050    26.798     8.486
    27   6 C        2.887    -0.084    30.101     8.995
    28   6 C        2.968     0.012    27.734     8.638
    29   6 C        3.759    -0.114    22.724     6.796
    30   6 C        2.930    -0.056    29.403     8.893
    31   6 C        2.963     0.014    27.707     8.634
    32   6 C        3.758    -0.107    22.596     6.777
    33   6 C        2.931    -0.056    29.398     8.892
    34   6 C        2.967     0.012    27.742     8.640
    35   6 C        3.760    -0.108    22.606     6.778
    36   6 C        2.968     0.012    27.753     8.641
    37   6 C        3.759    -0.110    22.660     6.787
    38   6 C        2.930    -0.054    29.343     8.884
    39   1 H        0.925     0.039     2.462     2.454
    40   1 H        0.925     0.041     2.430     2.438
    41   1 H        0.924     0.043     2.415     2.430
    42   1 H        0.925     0.023     2.695     2.567
    43   1 H        0.925     0.041     2.434     2.440
    44   1 H        0.924     0.040     2.446     2.446
    45   1 H        0.925     0.034     2.534     2.489
    46   1 H        0.926     0.036     2.502     2.474
    47   1 H        0.926     0.031     2.573     2.508
    48   1 H        0.926     0.033     2.549     2.497
    49   1 H        0.926     0.036     2.503     2.474
    50   1 H        0.926     0.025     2.664     2.553
    51   1 H        0.926     0.025     2.663     2.552
    52   1 H        0.926     0.024     2.672     2.556
    53   1 H        0.926     0.029     2.606     2.525
    54   1 H        0.926     0.029     2.604     2.524
    55   1 H        0.926     0.025     2.657     2.549
    56   1 H        0.926     0.025     2.665     2.553
    57   1 H        0.926     0.023     2.694     2.567
    58   1 H        0.925     0.040     2.445     2.445
    59   1 H        0.925     0.037     2.496     2.471
    60   1 H        0.925     0.050     2.318     2.381
    61   1 H        0.925     0.023     2.682     2.561
    62   1 H        0.925     0.038     2.477     2.461
    63   1 H        0.925     0.043     2.404     2.425
    64   1 H        0.925     0.042     2.422     2.434
    65   1 H        0.925     0.023     2.692     2.566
    66   1 H        0.925     0.038     2.481     2.463
    67   1 H        0.924     0.039     2.459     2.452
    68   1 H        0.925     0.039     2.461     2.453
    69   1 H        0.925     0.045     2.379     2.412
    70   1 H        0.925     0.036     2.509     2.477
    71   1 H        0.925     0.042     2.424     2.435
    72   1 H        0.925     0.023     2.693     2.566

molecular dipole:
                 x           y           z       tot (Debye)
 q only:       -0.512      -0.022       0.267
   full:       -0.560      -0.091       0.352       1.696

 projected vibrational frequencies (cm⁻¹)
eigval :       -0.00    -0.00    -0.00     0.00     0.00     0.00
eigval :        7.75    13.59    26.36    28.57    34.63    40.72
eigval :       46.40    57.09    58.55    71.00    84.63   102.77
eigval :      117.65   120.09   128.10   132.37   142.30   145.09
eigval :      148.23   157.79   163.68   174.51   181.09   185.32
eigval :      198.05   204.34   209.82   218.78   244.75   274.33
eigval :      274.96   279.52   285.87   309.60   321.97   326.87
eigval :      331.75   359.21   398.45   409.11   419.79   427.76
eigval :      437.21   461.76   478.58   484.15   488.74   493.14
eigval :      499.18   509.42   513.40   516.51   520.09   536.45
eigval :      542.43   544.18   557.39   581.78   594.64   598.97
eigval :      601.67   604.69   608.76   628.97   672.52   678.50
eigval :      680.18   705.26   706.76   719.82   757.61   770.75
eigval :      779.43   782.60   836.66   839.71   868.33   871.57
eigval :      876.13   881.35   886.31   889.67   890.14   898.72
eigval :      900.23   904.26   920.53   922.37   926.44   927.30
eigval :      933.07   964.04   964.97   976.70   979.12  1012.57
eigval :     1020.79  1024.11  1029.65  1030.43  1030.75  1032.97
eigval :     1034.48  1035.85  1041.83  1042.56  1044.85  1045.07
eigval :     1068.43  1071.52  1073.14  1098.07  1112.55  1137.02
eigval :     1151.21  1163.92  1176.68  1180.13  1182.17  1185.59
eigval :     1195.59  1210.80  1220.42  1236.11  1237.79  1238.21
eigval :     1243.62  1252.39  1292.00  1301.17  1302.59  1307.27
eigval :     1308.22  1334.51  1337.65  1354.88  1363.98  1366.94
eigval :     1399.40  1400.72  1401.61  1404.02  1406.30  1409.55
eigval :     1411.62  1426.18  1429.65  1429.99  1434.62  1450.52
eigval :     1455.42  1461.50  1477.77  1478.48  1479.63  1482.31
eigval :     1483.01  1483.43  1486.55  1487.06  1487.55  1488.49
eigval :     1490.91  1492.81  1494.63  1501.21  1554.17  1559.89
eigval :     1560.94  1575.26  1581.79  1592.98  1600.73  1602.98
eigval :     1604.98  1619.13  2983.02  2983.86  2990.69  3000.73
eigval :     3005.85  3017.23  3020.60  3026.18  3031.10  3031.59
eigval :     3033.00  3034.83  3036.81  3038.06  3040.60  3054.01
eigval :     3059.68  3060.53  3062.14  3062.46  3063.69  3066.75
eigval :     3069.69  3071.09  3072.61  3075.25  3076.40  3079.33
eigval :     3083.21  3084.03  3089.74  3091.81  3092.43  3106.71

   temp. (K)  partition function   enthalpy   heat capacity  entropy
                                   cal/mol     cal/K/mol   cal/K/mol   J/K/mol
 298.15  VIB  0.165E+17            20776.063    126.538    130.516
         ROT  0.239E+08              888.752      2.981     36.741
         INT  0.394E+24            21664.815    129.519    167.257
         TR   0.105E+29             1481.254      4.968     44.444
         TOT                       23146.0690   134.4871   211.7006   885.7554

       T/K    H(0)-H(T)+PV         H(T)/Eh          T*S/Eh         G(T)/Eh
   ------------------------------------------------------------------------
    298.15    0.368856E-01    0.620986E+00    0.100586E+00    0.520400E+00
   ------------------------------------------------------------------------

         :::::::::::::::::::::::::::::::::::::::::::::::::::::
         ::                  THERMODYNAMIC                  ::
         :::::::::::::::::::::::::::::::::::::::::::::::::::::
         :: total free energy         -98.109340977531 Eh   ::
         ::.................................................::
         :: total energy              -98.629740988667 Eh   ::
         :: zero point energy           0.584100193453 Eh   ::
         :: G(RRHO) w/o ZPVE           -0.063700182318 Eh   ::
         :: G(RRHO) contrib.            0.520400011135 Eh   ::
         :::::::::::::::::::::::::::::::::::::::::::::::::::::

           -------------------------------------------------
          | TOTAL ENERGY              -98.629740988667 Eh   |
          | TOTAL ENTHALPY            -98.008755186398 Eh   |
          | TOTAL FREE ENERGY         -98.109340977531 Eh   |
          | GRADIENT NORM               0.000044466068 Eh/α |
          | HOMO-LUMO GAP               2.200668969747 eV   |
           -------------------------------------------------

 * finished run on 2025/08/23 at 23:28:27.015
