   * xtb version 6.7.1 (edcfbbe) compiled by 'albert@albert-system' on 2024-07-22

   ID    Z sym.   atoms
    1    6 C      1-7, 9-16, 18-31, 33-52, 54-60
    2    7 N      8, 17
    3    8 O      32, 53
    4    1 H      61-100

          program call               : xtb data2507/gas/BPPyA/BPPyA.xyz --gfn 2 --ohess vtight --parallel 40 --molden --ceasefiles --namespace data2507/gas/BPPyA/BPPyA_gas_S0_preOpt
          :  Hamiltonian                  GFN2-xTB          :
 * total energy  :  -154.4013487 Eh     change       -0.5658364E-08 Eh
 * total energy  :  -154.4226801 Eh     change       -0.2133140E-01 Eh
 * total energy  :  -154.4310610 Eh     change       -0.8380882E-02 Eh
 * total energy  :  -154.4345691 Eh     change       -0.3508118E-02 Eh
 * total energy  :  -154.4367159 Eh     change       -0.2146776E-02 Eh
 * total energy  :  -154.4375787 Eh     change       -0.8628351E-03 Eh
 * total energy  :  -154.4379985 Eh     change       -0.4197473E-03 Eh
 * total energy  :  -154.4383496 Eh     change       -0.3511443E-03 Eh
 * total energy  :  -154.4386820 Eh     change       -0.3323452E-03 Eh
 * total energy  :  -154.4389939 Eh     change       -0.3119063E-03 Eh
 * total energy  :  -154.4404560 Eh     change       -0.1764537E-06 Eh
 * total energy  :  -154.4404563 Eh     change       -0.3085991E-06 Eh
 * total energy  :  -154.4404564 Eh     change       -0.1579764E-06 Eh
 * total energy  :  -154.4404566 Eh     change       -0.1325010E-06 Eh
 * total energy  :  -154.4404568 Eh     change       -0.1923080E-06 Eh
 * total energy  :  -154.4404569 Eh     change       -0.1665587E-06 Eh
 * total energy  :  -154.4404570 Eh     change       -0.1112568E-06 Eh
 * total energy  :  -154.4404571 Eh     change       -0.1158336E-06 Eh
 * total energy  :  -154.4404572 Eh     change       -0.9080327E-07 Eh
   *** GEOMETRY OPTIMIZATION CONVERGED AFTER 131 ITERATIONS ***

 final structure:
================
100
 xtb: 6.7.1 (edcfbbe)
C           -7.99001052628207        2.15333767822043       -2.42427491988161
C           -6.83492145959974        2.37221474295631       -1.49484253740597
C           -6.77488798575407        3.48311217745073       -0.66520608119950
C           -5.71385708768141        3.65092527401519        0.20595477048289
C           -4.68445979871950        2.72553240743726        0.28962037289658
C           -3.57127083617543        2.91582174017373        1.27432142213359
C           -4.73666931211702        1.61135313271350       -0.55506735086060
N           -3.72407845515381        0.62959622038071       -0.50772946506569
C           -2.39561486289444        1.02204123555619       -0.71181505010443
C           -2.12811738410749        2.02453484370549       -1.64246344889080
C           -0.83711585346123        2.42089324671596       -1.90822100620388
C            0.24240321414670        1.82537033140382       -1.25241507082302
C            1.58828305315281        2.16487264161287       -1.55596596489792
C            2.62655217833696        1.59712201450930       -0.89874784398097
C            2.41536309094914        0.64794952434966        0.14287697596879
C            3.46963748799349        0.06011092985602        0.87046877267336
N            4.80729750444210        0.42366365721674        0.67282406408211
C            5.21968900133711        1.76365184074065        0.55880507881351
C            6.16416146410054        2.08479527152043       -0.41827968855838
C            6.61973055163294        3.37804762991944       -0.59273345742750
C            7.63991539143376        3.70594277419271       -1.64012907582980
C            6.10470085968552        4.37434951160460        0.22983977697759
C            5.17710084798908        4.06290701642723        1.20350118754974
C            4.72318197007840        2.76465581380562        1.40153247585341
C            3.74833049538813        2.48314660305990        2.50443470747768
C            5.76370421665865       -0.58673690181283        0.60864317650484
C            7.06251626422464       -0.41464430809599        1.08693153890365
C            8.01448099068149       -1.42283342700913        1.00828230012594
C            7.71840828047448       -2.65711689896167        0.46446766196786
C            6.42846958301695       -2.86326485812269       -0.01180016550147
C            5.47186251585641       -1.83638922719823        0.05485450789613
O            4.27520188577458       -2.22534624517293       -0.47478726655684
C            4.44116614100508       -3.50985374173428       -0.88421578724062
C            3.48314021456712       -4.31349595926677       -1.47608478754922
C            3.86022307081084       -5.59984850624959       -1.81705675133474
C            5.14963693750944       -6.06836168191475       -1.57595189655174
C            6.10442741172447       -5.26533257569515       -0.98378913923295
C            5.74844031354785       -3.97003550712446       -0.63222561269529
C            3.19182846481892       -0.92455026806077        1.82060393045580
C            1.90257556286020       -1.31291649622560        2.09214787841516
C            0.82550573494535       -0.72363226273488        1.42553052109784
C           -0.52006391802823       -1.06303636280574        1.72950890870234
C           -1.55712049927826       -0.50304610921868        1.06364389798351
C           -1.33853481673054        0.44203205144012        0.02082869230254
C           -0.00675777573074        0.83884364628590       -0.26610270981368
C            1.08100297413236        0.25676080080589        0.43611153875551
C           -4.09473311507309       -0.70824785019776       -0.57199607959964
C           -3.33253016585460       -1.67156578601864       -1.23338962793122
C           -3.71050401258132       -3.00732112612336       -1.27252809698783
C           -4.87397835323111       -3.44947831189061       -0.67527105134663
C           -5.66262314667329       -2.51030990916085       -0.01941725484231
C           -5.26798242376872       -1.16362764588901        0.03643760653481
O           -6.16123745010399       -0.40350071128928        0.73738459555422
C           -7.14882961155129       -1.24750922382911        1.13207992944227
C           -8.27488269595268       -0.91021360992232        1.86175542879626
C           -9.16425714194386       -1.92699502940871        2.15903821354671
C           -8.93725748624860       -3.23676676691350        1.74283655685802
C           -7.81317729362987       -3.57192909660845        1.01391932859872
C           -6.90655251645407       -2.56733296550863        0.70273195066982
C           -5.80148388117446        1.45128912794533       -1.43503459780389
H           -8.53170900245570        3.08008811240707       -2.59727120075860
H           -7.64920938051259        1.75929452707755       -3.37969177907574
H           -8.68160661709224        1.42916420788353       -1.99212787715177
H           -7.56530030295055        4.21906191093543       -0.69537382823226
H           -5.69069254889911        4.51722452060980        0.85209742448505
H           -3.30586439902231        1.97096222302441        1.74459523400037
H           -2.67883719621064        3.30561098245299        0.78291681679357
H           -3.86964221608193        3.62059315634107        2.04703963290307
H           -2.95515205332995        2.47634276507323       -2.17154033079714
H           -0.64863120773626        3.18620408477081       -2.64721052632110
H            1.76724102205680        2.88590010433391       -2.34101399098229
H            3.63532777447615        1.85894659552489       -1.17317641697581
H            6.53602711082259        1.29415766451835       -1.05543090626651
H            8.56915788771350        4.02908172579954       -1.17138285313525
H            7.28823346594634        4.51835252301831       -2.27421760986991
H            7.85100580510739        2.84069186858575       -2.26327910180121
H            6.43876332687778        5.39426004869723        0.10874574736852
H            4.79867534898371        4.84688810891746        1.84399285145526
H            2.73122459553700        2.41166477714308        2.11728433917103
H            3.98197265492021        1.54588561107829        3.00513365174392
H            3.77535494162750        3.28636077842306        3.23760599276958
H            7.32723233261026        0.53451832011246        1.52801694081633
H            9.00510850836148       -1.23122073490985        1.39259712461235
H            8.45816336382001       -3.43942182987611        0.40784015429435
H            2.48711993088965       -3.94226433906611       -1.65675917732453
H            3.13849995646003       -6.25594341683698       -2.28003391772905
H            5.40332430499097       -7.07935383928006       -1.85802400164805
H            7.10272919711527       -5.63008100553109       -0.79627887685742
H            4.01433233707795       -1.36960623214098        2.36382381288159
H            1.71135392338481       -2.06775102180239        2.84119731918611
H           -0.69898094841160       -1.77889173325657        2.51927962425723
H           -2.56985819977982       -0.76240531109282        1.33123123020652
H           -2.42285396535853       -1.36253523050470       -1.72537966139105
H           -3.07778156339279       -3.70856287426918       -1.79570687140034
H           -5.16814251458066       -4.48606604923097       -0.71282268785184
H           -8.44245398976244        0.10684097594939        2.17826558427041
H          -10.05471319091342       -1.70026766899711        2.72602663810449
H           -9.65649812909854       -4.00132547443145        1.99633720743745
H           -7.63915535976577       -4.58703081884252        0.69112770062154
H           -5.81919581076783        0.58500247150199       -2.08281239374182

          :  Hamiltonian                  GFN2-xTB          :
         :: gradient norm              0.000054234608 Eh/a0 ::
         :: HOMO-LUMO gap              1.795773312761 eV    ::
         :: SCC energy              -157.213160942653 Eh    ::
         :: -> dispersion             -0.151197731035 Eh    ::
         :: repulsion energy           2.772703702643 Eh    ::

    * Orbital Energies and Occupations

         #    Occupation            Energy/Eh            Energy/eV
      -------------------------------------------------------------
         1        2.0000           -0.7318822             -19.9155
       ...           ...                  ...                  ...
       131        2.0000           -0.4025332             -10.9535
       132        2.0000           -0.4003778             -10.8948
       133        2.0000           -0.3992656             -10.8646
       134        2.0000           -0.3925149             -10.6809
       135        2.0000           -0.3886475             -10.5756
       136        2.0000           -0.3861307             -10.5071
       137        2.0000           -0.3855837             -10.4923
       138        2.0000           -0.3845675             -10.4646
       139        2.0000           -0.3830787             -10.4241
       140        2.0000           -0.3817323             -10.3875
       141        2.0000           -0.3699750             -10.0675
       142        2.0000           -0.3502348              -9.5304
       143        2.0000           -0.3364246              -9.1546 (HOMO)
       144                         -0.2704311              -7.3588 (LUMO)
       145                         -0.2493827              -6.7860
       146                         -0.2466971              -6.7130
       147                         -0.2377105              -6.4684
       148                         -0.2285419              -6.2189
       149                         -0.2255946              -6.1387
       150                         -0.2183548              -5.9417
       151                         -0.2151065              -5.8533
       152                         -0.2144010              -5.8341
       153                         -0.2122961              -5.7769
       154                         -0.2109691              -5.7408
       ...                                ...                  ...
       280                          0.7442756              20.2528
      -------------------------------------------------------------
                  HL-Gap            0.0659935 Eh            1.7958 eV

     #   Z          covCN         q      C6AA      α(0)
     1   6 C        3.758    -0.106    22.586     6.776
     2   6 C        2.966     0.014    27.691     8.631
     3   6 C        2.923    -0.047    29.158     8.855
     4   6 C        2.925    -0.041    29.016     8.834
     5   6 C        2.967     0.002    27.989     8.678
     6   6 C        3.757    -0.103    22.519     6.766
     7   6 C        2.932     0.058    26.709     8.476
     8   7 N        2.751    -0.068    22.556     7.054
     9   6 C        2.923     0.057    26.720     8.477
    10   6 C        2.918    -0.048    29.197     8.861
    11   6 C        2.919    -0.041    29.009     8.832
    12   6 C        2.983     0.004    27.926     8.668
    13   6 C        2.914    -0.039    28.963     8.825
    14   6 C        2.912    -0.038    28.939     8.821
    15   6 C        2.980    -0.002    28.062     8.689
    16   6 C        2.922     0.063    26.579     8.454
    17   7 N        2.751    -0.064    22.487     7.043
    18   6 C        2.923     0.055    26.758     8.483
    19   6 C        2.929    -0.058    29.440     8.898
    20   6 C        2.965     0.014    27.709     8.634
    21   6 C        3.758    -0.108    22.621     6.781
    22   6 C        2.923    -0.049    29.214     8.864
    23   6 C        2.926    -0.041    29.019     8.834
    24   6 C        2.965    -0.003    28.099     8.695
    25   6 C        3.757    -0.104    22.533     6.768
    26   6 C        2.920     0.046    26.967     8.516
    27   6 C        2.927    -0.057    29.423     8.896
    28   6 C        2.920    -0.039    28.976     8.827
    29   6 C        2.912    -0.046    29.134     8.851
    30   6 C        3.055    -0.021    28.477     8.752
    31   6 C        3.105     0.111    25.428     8.262
    32   8 O        1.715    -0.226    17.743     5.687
    33   6 C        3.101     0.130    25.041     8.200
    34   6 C        2.908    -0.052    29.294     8.875
    35   6 C        2.927    -0.032    28.810     8.802
    36   6 C        2.921    -0.039    28.974     8.827
    37   6 C        2.913    -0.034    28.840     8.806
    38   6 C        3.060    -0.020    28.443     8.746
    39   6 C        2.919    -0.042    29.038     8.837
    40   6 C        2.919    -0.038    28.933     8.821
    41   6 C        2.983     0.005    27.897     8.664
    42   6 C        2.915    -0.037    28.927     8.820
    43   6 C        2.913    -0.037    28.925     8.819
    44   6 C        2.981    -0.004    28.127     8.700
    45   6 C        2.995     0.002    27.967     8.675
    46   6 C        2.995     0.003    27.945     8.672
    47   6 C        2.915     0.049    26.900     8.505
    48   6 C        2.927    -0.058    29.433     8.897
    49   6 C        2.920    -0.039    28.959     8.825
    50   6 C        2.912    -0.047    29.162     8.855
    51   6 C        3.055    -0.022    28.492     8.754
    52   6 C        3.106     0.110    25.453     8.266
    53   8 O        1.715    -0.226    17.748     5.688
    54   6 C        3.101     0.129    25.051     8.202
    55   6 C        2.908    -0.053    29.319     8.879
    56   6 C        2.926    -0.033    28.829     8.805
    57   6 C        2.921    -0.040    28.986     8.829
    58   6 C        2.913    -0.034    28.846     8.807
    59   6 C        3.060    -0.020    28.448     8.747
    60   6 C        2.929    -0.052    29.282     8.874
    61   1 H        0.925     0.041     2.438     2.442
    62   1 H        0.925     0.042     2.424     2.435
    63   1 H        0.924     0.046     2.372     2.408
    64   1 H        0.926     0.029     2.600     2.521
    65   1 H        0.926     0.031     2.576     2.510
    66   1 H        0.925     0.045     2.381     2.413
    67   1 H        0.924     0.043     2.416     2.430
    68   1 H        0.925     0.041     2.434     2.440
    69   1 H        0.926     0.030     2.582     2.513
    70   1 H        0.926     0.031     2.579     2.511
    71   1 H        0.926     0.028     2.620     2.531
    72   1 H        0.926     0.033     2.539     2.492
    73   1 H        0.925     0.030     2.582     2.513
    74   1 H        0.925     0.046     2.370     2.407
    75   1 H        0.925     0.045     2.379     2.412
    76   1 H        0.925     0.041     2.438     2.442
    77   1 H        0.926     0.031     2.578     2.511
    78   1 H        0.926     0.031     2.565     2.505
    79   1 H        0.924     0.045     2.389     2.417
    80   1 H        0.925     0.042     2.423     2.434
    81   1 H        0.925     0.042     2.426     2.436
    82   1 H        0.926     0.039     2.468     2.457
    83   1 H        0.926     0.036     2.509     2.477
    84   1 H        0.926     0.036     2.508     2.476
    85   1 H        0.926     0.045     2.386     2.416
    86   1 H        0.926     0.038     2.474     2.460
    87   1 H        0.926     0.035     2.511     2.478
    88   1 H        0.926     0.037     2.487     2.466
    89   1 H        0.925     0.026     2.641     2.541
    90   1 H        0.926     0.031     2.576     2.510
    91   1 H        0.926     0.028     2.610     2.526
    92   1 H        0.926     0.028     2.612     2.527
    93   1 H        0.926     0.035     2.511     2.478
    94   1 H        0.926     0.034     2.527     2.486
    95   1 H        0.926     0.034     2.526     2.485
    96   1 H        0.926     0.044     2.398     2.421
    97   1 H        0.926     0.037     2.490     2.467
    98   1 H        0.926     0.034     2.525     2.485
    99   1 H        0.926     0.037     2.494     2.470
   100   1 H        0.925     0.028     2.619     2.531

molecular dipole:
                 x           y           z       tot (Debye)
 q only:        0.317       0.192      -0.005
   full:        0.268       0.169      -0.050       0.814

 projected vibrational frequencies (cm⁻¹)
eigval :       -0.00    -0.00    -0.00     0.00     0.00     0.00
eigval :        7.89    10.37    15.57    18.13    20.88    21.65
eigval :       27.90    31.25    33.13    38.03    43.29    44.61
eigval :       47.94    55.49    78.35    88.48    94.64   105.51
eigval :      112.99   116.31   120.68   122.91   128.90   130.04
eigval :      151.15   162.94   166.88   175.33   193.86   205.45
eigval :      205.68   210.30   221.66   223.92   231.22   239.79
eigval :      252.86   258.43   263.90   271.95   281.07   284.18
eigval :      301.24   306.66   317.53   320.83   322.15   322.73
eigval :      335.27   344.51   371.16   398.55   408.54   408.88
eigval :      409.89   421.85   423.37   431.12   436.67   441.67
eigval :      452.19   465.00   467.07   473.19   477.37   479.78
eigval :      496.06   504.16   507.28   510.52   516.73   526.72
eigval :      532.49   534.50   538.71   539.73   540.17   545.78
eigval :      554.55   567.34   568.74   577.80   585.41   588.64
eigval :      604.48   619.41   630.32   638.82   648.48   651.10
eigval :      665.30   668.36   671.34   674.75   678.80   681.53
eigval :      683.74   690.02   710.80   711.14   730.74   748.92
eigval :      750.51   758.33   761.51   773.11   777.64   777.98
eigval :      793.98   795.84   799.55   805.19   812.97   816.39
eigval :      817.88   820.46   841.77   842.10   843.28   848.50
eigval :      850.10   850.43   865.51   869.72   872.51   872.62
eigval :      874.58   887.07   891.30   903.02   903.45   906.03
eigval :      910.10   914.22   915.29   916.17   916.42   917.03
eigval :      918.31   923.07   923.27   923.59   940.95   972.26
eigval :      980.52   999.40  1008.52  1013.04  1020.33  1024.44
eigval :     1030.57  1030.91  1033.02  1033.67  1046.84  1061.53
eigval :     1061.68  1080.18  1096.33  1102.31  1104.96  1115.01
eigval :     1126.17  1140.51  1149.30  1153.15  1154.51  1173.03
eigval :     1175.12  1175.25  1183.82  1185.84  1187.40  1188.67
eigval :     1193.04  1203.83  1210.65  1212.31  1213.54  1217.49
eigval :     1218.21  1220.92  1221.83  1239.68  1244.87  1253.05
eigval :     1253.94  1263.85  1266.86  1268.51  1270.11  1287.30
eigval :     1290.28  1307.69  1309.63  1320.44  1321.71  1327.09
eigval :     1330.55  1334.68  1343.51  1348.80  1349.04  1363.87
eigval :     1364.96  1374.95  1384.42  1389.94  1390.76  1392.21
eigval :     1401.46  1404.09  1404.75  1406.52  1407.61  1415.56
eigval :     1418.25  1419.45  1422.31  1423.34  1455.76  1471.77
eigval :     1472.41  1481.05  1481.86  1483.26  1483.49  1484.54
eigval :     1485.18  1485.87  1490.52  1490.62  1492.99  1495.81
eigval :     1499.68  1502.23  1503.18  1529.91  1562.33  1564.14
eigval :     1569.76  1573.02  1574.09  1578.22  1583.33  1583.54
eigval :     1595.12  1595.53  1599.35  1603.31  1606.12  1607.17
eigval :     1613.23  1613.37  2991.74  2993.65  2995.40  3004.28
eigval :     3021.26  3028.06  3029.09  3031.02  3035.56  3037.39
eigval :     3040.48  3044.96  3066.12  3067.11  3068.64  3070.68
eigval :     3071.20  3071.79  3073.07  3074.37  3080.48  3081.22
eigval :     3081.31  3082.11  3084.15  3084.28  3085.54  3086.93
eigval :     3088.34  3088.96  3096.51  3096.56  3097.31  3097.48
eigval :     3098.90  3105.74  3105.92  3106.89  3107.70  3119.29

   temp. (K)  partition function   enthalpy   heat capacity  entropy
                                   cal/mol     cal/K/mol   cal/K/mol   J/K/mol
 298.15  VIB  0.305E+24            29188.894    181.066    181.664
         ROT  0.151E+09              888.752      2.981     40.407
         INT  0.461E+32            30077.646    184.047    222.071
         TR   0.208E+29             1481.254      4.968     45.793
         TOT                       31558.8999   189.0147   267.8635  1120.7410

       T/K    H(0)-H(T)+PV         H(T)/Eh          T*S/Eh         G(T)/Eh
   ------------------------------------------------------------------------
    298.15    0.502923E-01    0.827916E+00    0.127271E+00    0.700645E+00
   ------------------------------------------------------------------------

         :::::::::::::::::::::::::::::::::::::::::::::::::::::
         ::                  THERMODYNAMIC                  ::
         :::::::::::::::::::::::::::::::::::::::::::::::::::::
         :: total free energy        -153.739812128553 Eh   ::
         ::.................................................::
         :: total energy             -154.440457239997 Eh   ::
         :: zero point energy           0.777623404643 Eh   ::
         :: G(RRHO) w/o ZPVE           -0.076978293199 Eh   ::
         :: G(RRHO) contrib.            0.700645111444 Eh   ::
         :::::::::::::::::::::::::::::::::::::::::::::::::::::

           -------------------------------------------------
          | TOTAL ENERGY             -154.440457239997 Eh   |
          | TOTAL ENTHALPY           -153.612541527171 Eh   |
          | TOTAL FREE ENERGY        -153.739812128553 Eh   |
          | GRADIENT NORM               0.000054236383 Eh/α |
          | HOMO-LUMO GAP               1.795773633949 eV   |
           -------------------------------------------------

 * finished run on 2025/09/12 at 01:25:52.507
