   * xtb version 6.7.1 (edcfbbe) compiled by 'albert@albert-system' on 2024-07-22

   ID    Z sym.   atoms
    1    6 C      1-7, 9-16, 18-31, 33-52, 54-60
    2    7 N      8, 17
    3    8 O      32, 53
    4    1 H      61-100

          program call               : xtb data2507/gas/BPPyA/BPPyA_gas_S0_crest.xyz --gfn 2 --ohess vtight --parallel 40 --molden --ceasefiles --namespace data2507/gas/BPPyA/BPPyA_gas_S0_finalOpt
          :  Hamiltonian                  GFN2-xTB          :
 * total energy  :  -154.4434088 Eh     change       -0.2606328E-08 Eh
 * total energy  :  -154.4434101 Eh     change       -0.1221151E-05 Eh
 * total energy  :  -154.4434121 Eh     change       -0.2092387E-05 Eh
 * total energy  :  -154.4434150 Eh     change       -0.2898610E-05 Eh
 * total energy  :  -154.4434169 Eh     change       -0.1881510E-05 Eh
 * total energy  :  -154.4434189 Eh     change       -0.1932478E-05 Eh
 * total energy  :  -154.4434218 Eh     change       -0.2965614E-05 Eh
 * total energy  :  -154.4434248 Eh     change       -0.2956374E-05 Eh
 * total energy  :  -154.4434263 Eh     change       -0.1529781E-05 Eh
 * total energy  :  -154.4434274 Eh     change       -0.1067169E-05 Eh
 * total energy  :  -154.4434668 Eh     change       -0.2897452E-06 Eh
 * total energy  :  -154.4434670 Eh     change       -0.2296057E-06 Eh
 * total energy  :  -154.4434672 Eh     change       -0.2075064E-06 Eh
 * total energy  :  -154.4434675 Eh     change       -0.2188572E-06 Eh
 * total energy  :  -154.4434678 Eh     change       -0.3067052E-06 Eh
 * total energy  :  -154.4434682 Eh     change       -0.4725379E-06 Eh
 * total energy  :  -154.4434685 Eh     change       -0.2117183E-06 Eh
 * total energy  :  -154.4434687 Eh     change       -0.2800573E-06 Eh
 * total energy  :  -154.4434688 Eh     change       -0.7931905E-07 Eh
   *** GEOMETRY OPTIMIZATION CONVERGED AFTER 70 ITERATIONS ***

 final structure:
================
100
 xtb: 6.7.1 (edcfbbe)
C           -6.32588668327061        4.15197727595065        2.88380221659575
C           -5.47755313758308        4.03400060749114        1.65410643399599
C           -5.01804842236438        5.17260133102334        1.00067509182530
C           -4.24060817452393        5.05771754504760       -0.13426494589981
C           -3.88931395214336        3.82289163990599       -0.66527789556329
C           -3.07775409774235        3.76223532060896       -1.92378846952586
C           -4.33104700569285        2.67434553878231        0.00187911256858
N           -4.01190682754560        1.38429215088315       -0.45638326064452
C           -2.72866919057038        1.03464577857450       -0.90241753036537
C           -2.63084147071775        0.29720818207520       -2.08327640083124
C           -1.41384535054460       -0.10526853622239       -2.57752463365526
C           -0.23240843193123        0.21617901121751       -1.90585232862625
C            1.04154454340837       -0.15927753760867       -2.41099778656082
C            2.17978977731463        0.12426250305419       -1.73574997188476
C            2.14327088422952        0.80581675071251       -0.48567802836042
C            3.30090808498545        1.05927863266341        0.27691876447150
N            4.53843537675614        0.49825423480970       -0.06703480383219
C            5.67894162250716        1.32292766792818       -0.01147200969968
C            5.63125140342843        2.54171255105957       -0.68479467005860
C            6.70629328520964        3.41253529085210       -0.67966777219876
C            6.64241791743151        4.72685540954566       -1.39631224740446
C            7.85167220744923        3.03985023231600        0.01523005728149
C            7.89657064064686        1.84214108512451        0.70188278990106
C            6.81823853322448        0.96678785371626        0.71809158232882
C            6.88504865078167       -0.29336593369810        1.52562311754745
C            4.64462766195276       -0.84578788036911       -0.38536746954406
C            5.67373650842413       -1.33102675711487       -1.19347368676880
C            5.78467167775682       -2.67852646599927       -1.51322838808830
C            4.87144989359397       -3.60801850445478       -1.05808790774565
C            3.83010349802768       -3.15413556192180       -0.25503037889803
C            3.72970301264651       -1.79512868603893        0.08189795010171
O            2.65793685671463       -1.55404750820644        0.89413244538862
C            2.04805558393488       -2.75159056544610        1.08331555883894
C            0.91491076963725       -2.98496385719062        1.84198927443314
C            0.46240159209702       -4.29035628615066        1.91796391416029
C            1.11491795430854       -5.32546196942853        1.25215164224787
C            2.24280401463321       -5.08970549402557        0.49076368255000
C            2.71918359768483       -3.78820951450683        0.40535265283833
C            3.22647982018400        1.86292295305852        1.41240972866035
C            2.01696137549934        2.34020907401234        1.86174649864945
C            0.83082155053217        2.01701906394716        1.19813723641019
C           -0.44176521656484        2.40340576616192        1.69789544188243
C           -1.58498578254896        2.08407740757681        1.04664032514935
C           -1.56223540023782        1.37316755013714       -0.18816133819386
C           -0.30370104085675        0.95677472283599       -0.70078992049203
C            0.89110383786296        1.26146419776586        0.00177003483831
C           -4.99341585522436        0.39701726982397       -0.46329892974159
C           -6.34285048459274        0.68589711872558       -0.66698922383282
C           -7.31617119237240       -0.30485180123481       -0.66064979550422
C           -6.99591619654219       -1.63451267592198       -0.46991763811656
C           -5.65692766897623       -1.95762595873774       -0.28000743559174
C           -4.67668400265885       -0.95102783692099       -0.26872674405509
O           -3.42883424807079       -1.46483893914567       -0.06111364497661
C           -3.58431458160285       -2.80896945500410        0.04946390160882
C           -2.57600834198861       -3.73662361305481        0.23916194250597
C           -2.94999413176962       -5.06545289201370        0.32383658222968
C           -4.28364356200235       -5.45430226190297        0.22061459941586
C           -5.28765106604858       -4.52660374822389        0.02248916447596
C           -4.93653597118609       -3.18604799654766       -0.06708010204477
C           -5.12152690689095        2.79871248408832        1.14644436774833
H           -7.22531643232198        4.72775422870842        2.66939875016002
H           -6.61928879994170        3.17168543184697        3.25054892850470
H           -5.78053415788327        4.67011096109277        3.67198719016651
H           -5.27733966644335        6.14952089981943        1.38133671865821
H           -3.90371499131438        5.95279903002589       -0.63771263097100
H           -2.02943841057603        3.55885683959652       -1.70228614173414
H           -3.43827259308315        2.97675750808130       -2.58475583526032
H           -3.13468198912539        4.71326821359655       -2.44884912217154
H           -3.53843936239484        0.05015240829881       -2.61739695851694
H           -1.36281358651482       -0.66903848627853       -3.49791072428163
H            1.08157070324223       -0.67676885444785       -3.35927565124648
H            3.13539349425397       -0.15263957464899       -2.15527957276731
H            4.72791654732734        2.79796662140620       -1.22082163773474
H            7.54346521557567        4.88679192780381       -1.98569961750149
H            6.56635222402955        5.54197749820149       -0.67647515070724
H            5.77831970522893        4.76983414650566       -2.05427543490723
H            8.70764421335143        3.69864928250092        0.02711228782901
H            8.78699244014456        1.58092542490412        1.25615001585887
H            7.18125292245439       -1.14022937641203        0.90496226208911
H            7.61425660071581       -0.18615676284633        2.32574101664460
H            5.91576817264226       -0.52717885950631        1.96235389304836
H            6.39467823020676       -0.62786892020290       -1.58388014067162
H            6.60372198706238       -2.99583062367127       -2.14156156330998
H            4.95654011711950       -4.65223657212848       -1.31244601179283
H            0.41239319908807       -2.17537968895145        2.34701606985956
H           -0.41669105459080       -4.51077173904339        2.50509875874989
H            0.72989694499536       -6.33094022356791        1.33713909826195
H            2.74648576476169       -5.89334421488207       -0.02440314759611
H            4.13446693235814        2.07988456112962        1.95720414789143
H            1.97287931131493        2.94130608613251        2.75857791091482
H           -0.47924375740050        2.94943765586732        2.63011479839944
H           -2.53422020935056        2.36814392600093        1.47093436041703
H           -6.63089545522751        1.71307099891795       -0.83264115224211
H           -8.34547016176376       -0.02025382752847       -0.82011584665845
H           -7.75353282290985       -2.40164819791464       -0.47033869824364
H           -1.54549387501817       -3.42791439593836        0.31240917632917
H           -2.18822167420042       -5.81646545979761        0.46955553388538
H           -4.53362688882117       -6.50239316223134        0.29331116072803
H           -6.31969422062249       -4.83066285155692       -0.06337099585431
H           -5.45130859509382        1.89808539864887        1.64580502893461

          :  Hamiltonian                  GFN2-xTB          :
         :: gradient norm              0.000104560003 Eh/a0 ::
         :: HOMO-LUMO gap              1.829254535257 eV    ::
         :: SCC energy              -157.215863021587 Eh    ::
         :: -> dispersion             -0.155027898596 Eh    ::
         :: repulsion energy           2.772394202223 Eh    ::

    * Orbital Energies and Occupations

         #    Occupation            Energy/Eh            Energy/eV
      -------------------------------------------------------------
         1        2.0000           -0.7296599             -19.8551
       ...           ...                  ...                  ...
       131        2.0000           -0.4030861             -10.9685
       132        2.0000           -0.3981531             -10.8343
       133        2.0000           -0.3970098             -10.8032
       134        2.0000           -0.3919409             -10.6653
       135        2.0000           -0.3893225             -10.5940
       136        2.0000           -0.3854580             -10.4888
       137        2.0000           -0.3846713             -10.4674
       138        2.0000           -0.3833166             -10.4306
       139        2.0000           -0.3825704             -10.4103
       140        2.0000           -0.3822629             -10.4019
       141        2.0000           -0.3672331              -9.9929
       142        2.0000           -0.3494053              -9.5078
       143        2.0000           -0.3352148              -9.1217 (HOMO)
       144                         -0.2679909              -7.2924 (LUMO)
       145                         -0.2471674              -6.7258
       146                         -0.2463789              -6.7043
       147                         -0.2352088              -6.4004
       148                         -0.2266424              -6.1673
       149                         -0.2263692              -6.1598
       150                         -0.2171572              -5.9091
       151                         -0.2166992              -5.8967
       152                         -0.2146828              -5.8418
       153                         -0.2128003              -5.7906
       154                         -0.2112301              -5.7479
       ...                                ...                  ...
       280                          0.7449500              20.2711
      -------------------------------------------------------------
                  HL-Gap            0.0672239 Eh            1.8293 eV

     #   Z          covCN         q      C6AA      α(0)
     1   6 C        3.758    -0.108    22.618     6.780
     2   6 C        2.965     0.013    27.716     8.635
     3   6 C        2.923    -0.049    29.223     8.865
     4   6 C        2.925    -0.041    29.021     8.835
     5   6 C        2.965    -0.003    28.104     8.696
     6   6 C        3.757    -0.104    22.530     6.767
     7   6 C        2.922     0.056    26.753     8.482
     8   7 N        2.751    -0.065    22.506     7.046
     9   6 C        2.923     0.063    26.592     8.457
    10   6 C        2.920    -0.041    29.016     8.833
    11   6 C        2.919    -0.038    28.935     8.821
    12   6 C        2.984     0.006    27.881     8.661
    13   6 C        2.915    -0.038    28.941     8.822
    14   6 C        2.913    -0.036    28.899     8.815
    15   6 C        2.982     0.001    28.001     8.680
    16   6 C        2.926     0.059    26.668     8.469
    17   7 N        2.752    -0.065    22.508     7.046
    18   6 C        2.929     0.053    26.820     8.493
    19   6 C        2.930    -0.056    29.381     8.889
    20   6 C        2.965     0.014    27.695     8.632
    21   6 C        3.758    -0.109    22.628     6.782
    22   6 C        2.923    -0.048    29.186     8.859
    23   6 C        2.925    -0.042    29.040     8.837
    24   6 C        2.965    -0.002    28.064     8.689
    25   6 C        3.757    -0.104    22.542     6.769
    26   6 C        2.911     0.051    26.852     8.497
    27   6 C        2.927    -0.060    29.489     8.906
    28   6 C        2.920    -0.040    28.999     8.831
    29   6 C        2.912    -0.048    29.183     8.858
    30   6 C        3.055    -0.021    28.478     8.752
    31   6 C        3.105     0.110    25.456     8.267
    32   8 O        1.715    -0.228    17.778     5.693
    33   6 C        3.101     0.130    25.036     8.200
    34   6 C        2.908    -0.052    29.292     8.875
    35   6 C        2.926    -0.033    28.811     8.803
    36   6 C        2.921    -0.039    28.980     8.828
    37   6 C        2.913    -0.034    28.846     8.807
    38   6 C        3.060    -0.020    28.449     8.747
    39   6 C        2.918    -0.045    29.126     8.850
    40   6 C        2.919    -0.039    28.962     8.825
    41   6 C        2.983     0.006    27.883     8.662
    42   6 C        2.914    -0.038    28.946     8.822
    43   6 C        2.912    -0.038    28.955     8.824
    44   6 C        2.979    -0.001    28.050     8.688
    45   6 C        2.995     0.004    27.923     8.668
    46   6 C        2.996     0.005    27.897     8.664
    47   6 C        2.920     0.046    26.965     8.515
    48   6 C        2.927    -0.058    29.443     8.899
    49   6 C        2.920    -0.040    28.984     8.829
    50   6 C        2.912    -0.046    29.149     8.853
    51   6 C        3.054    -0.021    28.480     8.752
    52   6 C        3.105     0.110    25.444     8.265
    53   8 O        1.715    -0.226    17.751     5.689
    54   6 C        3.101     0.130    25.038     8.200
    55   6 C        2.908    -0.053    29.317     8.878
    56   6 C        2.927    -0.033    28.817     8.804
    57   6 C        2.921    -0.040    28.983     8.828
    58   6 C        2.913    -0.034    28.852     8.808
    59   6 C        3.059    -0.020    28.453     8.747
    60   6 C        2.929    -0.058    29.446     8.899
    61   1 H        0.925     0.045     2.382     2.413
    62   1 H        0.925     0.041     2.442     2.444
    63   1 H        0.925     0.046     2.376     2.410
    64   1 H        0.926     0.030     2.586     2.515
    65   1 H        0.926     0.031     2.574     2.509
    66   1 H        0.924     0.044     2.394     2.420
    67   1 H        0.925     0.042     2.420     2.433
    68   1 H        0.925     0.041     2.433     2.439
    69   1 H        0.925     0.026     2.648     2.545
    70   1 H        0.926     0.030     2.591     2.517
    71   1 H        0.926     0.027     2.634     2.538
    72   1 H        0.926     0.027     2.626     2.534
    73   1 H        0.926     0.032     2.553     2.499
    74   1 H        0.925     0.045     2.384     2.415
    75   1 H        0.925     0.047     2.358     2.401
    76   1 H        0.925     0.042     2.427     2.436
    77   1 H        0.926     0.031     2.570     2.507
    78   1 H        0.926     0.032     2.558     2.501
    79   1 H        0.924     0.047     2.362     2.403
    80   1 H        0.925     0.042     2.417     2.431
    81   1 H        0.925     0.042     2.426     2.436
    82   1 H        0.926     0.035     2.514     2.480
    83   1 H        0.926     0.033     2.547     2.495
    84   1 H        0.926     0.034     2.534     2.490
    85   1 H        0.926     0.044     2.397     2.421
    86   1 H        0.926     0.039     2.462     2.454
    87   1 H        0.926     0.033     2.542     2.493
    88   1 H        0.926     0.037     2.496     2.470
    89   1 H        0.926     0.030     2.588     2.516
    90   1 H        0.926     0.031     2.577     2.511
    91   1 H        0.926     0.027     2.627     2.534
    92   1 H        0.926     0.033     2.545     2.495
    93   1 H        0.926     0.038     2.472     2.459
    94   1 H        0.926     0.035     2.519     2.482
    95   1 H        0.926     0.035     2.518     2.481
    96   1 H        0.926     0.046     2.372     2.408
    97   1 H        0.926     0.038     2.479     2.462
    98   1 H        0.926     0.035     2.521     2.483
    99   1 H        0.926     0.037     2.494     2.470
   100   1 H        0.925     0.030     2.580     2.512

molecular dipole:
                 x           y           z       tot (Debye)
 q only:        0.109       0.345      -0.020
   full:        0.132       0.324       0.022       0.890

 projected vibrational frequencies (cm⁻¹)
eigval :       -0.00    -0.00    -0.00    -0.00     0.00     0.00
eigval :       -5.63    10.90    15.55    17.92    20.33    21.73
eigval :       25.38    32.93    38.30    40.57    44.16    49.41
eigval :       57.53    62.01    70.76    94.51    96.49   105.19
eigval :      115.66   118.60   122.99   127.58   131.02   135.49
eigval :      155.89   158.24   172.38   184.96   193.26   204.60
eigval :      209.75   215.50   219.54   224.69   225.68   240.09
eigval :      250.92   259.08   266.23   275.69   283.68   287.72
eigval :      304.47   308.47   315.52   317.71   321.34   324.06
eigval :      335.30   338.61   367.37   397.89   408.58   409.40
eigval :      411.46   418.55   424.26   430.63   438.19   441.01
eigval :      449.66   460.52   469.78   473.64   477.98   482.49
eigval :      497.53   506.46   507.95   511.03   515.38   526.60
eigval :      533.96   538.26   539.10   540.42   542.14   545.68
eigval :      548.30   566.55   568.79   573.52   584.88   594.34
eigval :      605.82   621.79   626.49   636.04   647.29   648.59
eigval :      663.85   668.81   672.20   673.67   679.01   682.48
eigval :      683.23   689.63   710.56   711.21   732.66   743.95
eigval :      751.33   754.75   762.37   778.53   782.50   784.09
eigval :      794.49   796.86   798.38   803.31   808.60   816.42
eigval :      818.72   820.80   841.42   841.70   842.89   849.30
eigval :      850.60   851.45   870.40   872.36   873.42   874.10
eigval :      877.85   881.78   888.26   904.52   905.89   906.65
eigval :      908.89   915.96   916.38   916.59   916.99   917.92
eigval :      919.37   924.06   925.73   927.55   936.91   976.02
eigval :      980.71   999.28  1010.18  1013.07  1021.10  1023.68
eigval :     1030.59  1031.64  1033.33  1034.75  1047.08  1061.47
eigval :     1062.73  1082.11  1093.07  1101.75  1102.28  1114.39
eigval :     1125.30  1140.00  1147.22  1154.20  1157.73  1173.53
eigval :     1174.18  1175.88  1183.91  1185.63  1187.19  1189.23
eigval :     1194.08  1203.39  1211.42  1212.60  1213.71  1217.27
eigval :     1217.67  1222.08  1225.65  1238.32  1243.66  1253.29
eigval :     1255.12  1262.49  1265.96  1266.95  1270.50  1286.97
eigval :     1292.09  1307.51  1308.46  1320.90  1321.60  1328.17
eigval :     1331.07  1335.18  1344.13  1348.87  1349.38  1364.09
eigval :     1365.82  1376.73  1384.18  1389.67  1391.31  1392.80
eigval :     1402.25  1404.37  1404.74  1407.46  1408.83  1416.69
eigval :     1418.80  1419.45  1421.72  1422.42  1455.82  1471.41
eigval :     1473.02  1479.68  1481.20  1481.29  1483.31  1484.41
eigval :     1485.26  1486.01  1488.03  1491.06  1493.05  1498.51
eigval :     1500.01  1501.67  1503.26  1531.18  1562.80  1564.61
eigval :     1569.64  1571.79  1573.39  1574.35  1582.48  1582.58
eigval :     1594.89  1595.66  1599.57  1603.79  1606.77  1607.07
eigval :     1612.77  1613.03  2989.01  2994.17  3001.37  3005.44
eigval :     3018.87  3025.49  3026.85  3030.48  3034.31  3035.63
eigval :     3044.92  3045.50  3064.21  3068.70  3068.73  3070.83
eigval :     3071.36  3072.25  3073.59  3074.46  3078.91  3080.12
eigval :     3080.35  3080.59  3083.58  3083.66  3085.40  3086.63
eigval :     3087.91  3089.24  3091.57  3092.93  3095.69  3096.36
eigval :     3096.96  3105.46  3105.55  3106.14  3109.32  3118.54

   temp. (K)  partition function   enthalpy   heat capacity  entropy
                                   cal/mol     cal/K/mol   cal/K/mol   J/K/mol
 298.15  VIB  0.211E+24            29108.697    181.496    181.326
         ROT  0.122E+09              888.752      2.981     39.984
         INT  0.258E+32            29997.449    184.477    221.310
         TR   0.208E+29             1481.254      4.968     45.793
         TOT                       31478.7033   189.4452   267.1027  1117.5579

       T/K    H(0)-H(T)+PV         H(T)/Eh          T*S/Eh         G(T)/Eh
   ------------------------------------------------------------------------
    298.15    0.501645E-01    0.827956E+00    0.126909E+00    0.701047E+00
   ------------------------------------------------------------------------

         :::::::::::::::::::::::::::::::::::::::::::::::::::::
         ::                  THERMODYNAMIC                  ::
         :::::::::::::::::::::::::::::::::::::::::::::::::::::
         :: total free energy        -153.742421547557 Eh   ::
         ::.................................................::
         :: total energy             -154.443468819353 Eh   ::
         :: zero point energy           0.777791894569 Eh   ::
         :: G(RRHO) w/o ZPVE           -0.076744622773 Eh   ::
         :: G(RRHO) contrib.            0.701047271796 Eh   ::
         :::::::::::::::::::::::::::::::::::::::::::::::::::::

           -------------------------------------------------
          | TOTAL ENERGY             -154.443468819353 Eh   |
          | TOTAL ENTHALPY           -153.615512418015 Eh   |
          | TOTAL FREE ENERGY        -153.742421547557 Eh   |
          | GRADIENT NORM               0.000104566023 Eh/α |
          | HOMO-LUMO GAP               1.829254562862 eV   |
           -------------------------------------------------

 * finished run on 2025/09/12 at 01:48:29.061
