   * xtb version 6.7.1 (edcfbbe) compiled by 'albert@albert-system' on 2024-07-22

   ID    Z sym.   atoms
    1    6 C      1-7, 9-16, 18-31, 33-52, 54-60
    2    7 N      8, 17
    3    8 O      32, 53
    4    1 H      61-100

          program call               : xtb data2507/gas/BPPyA/BPPyA_gas_T1_crest.xyz --gfn 2 --spinpol --tblite --uhf 2 --ohess vtight --parallel 40 --molden --ceasefiles --namespace data2507/gas/BPPyA/BPPyA_gas_T1_finalOpt
 * total energy  :  -154.3820934 Eh     change       -0.5397652E-07 Eh
 * total energy  :  -154.3821081 Eh     change       -0.1473816E-04 Eh
 * total energy  :  -154.3821135 Eh     change       -0.5331103E-05 Eh
 * total energy  :  -154.3821155 Eh     change       -0.2042365E-05 Eh
 * total energy  :  -154.3821181 Eh     change       -0.2643994E-05 Eh
 * total energy  :  -154.3821209 Eh     change       -0.2755673E-05 Eh
 * total energy  :  -154.3821238 Eh     change       -0.2921123E-05 Eh
 * total energy  :  -154.3821272 Eh     change       -0.3370580E-05 Eh
 * total energy  :  -154.3821314 Eh     change       -0.4188571E-05 Eh
 * total energy  :  -154.3821365 Eh     change       -0.5143883E-05 Eh
 * total energy  :  -154.3824514 Eh     change       -0.2328748E-06 Eh
 * total energy  :  -154.3824516 Eh     change       -0.1353691E-06 Eh
 * total energy  :  -154.3824517 Eh     change       -0.1441624E-06 Eh
 * total energy  :  -154.3824519 Eh     change       -0.1966800E-06 Eh
 * total energy  :  -154.3824521 Eh     change       -0.1835915E-06 Eh
 * total energy  :  -154.3824522 Eh     change       -0.1432278E-06 Eh
 * total energy  :  -154.3824522 Eh     change        0.1331406E-07 Eh
 * total energy  :  -154.3824524 Eh     change       -0.1671337E-06 Eh
 * total energy  :  -154.3824524 Eh     change       -0.4080576E-07 Eh
   *** GEOMETRY OPTIMIZATION CONVERGED AFTER 105 ITERATIONS ***

 final structure:
================
100
 xtb: 6.7.1 (edcfbbe)
C           -9.21828989098914       -1.56792619404944        2.37989920737828
C           -8.18183172398801       -2.02891894257264        1.40099610138311
C           -8.29723962513728       -3.26971367798373        0.78257254968851
C           -7.34068343490448       -3.69482057078216       -0.11915122296096
C           -6.23869500590384       -2.91363792701924       -0.43989974993697
C           -5.24034691819118       -3.39739352609108       -1.44662210370637
C           -6.11381331568245       -1.66960331626067        0.19085228468496
N           -5.01552728808959       -0.83558872867034       -0.08539471861871
C           -3.72286761366019       -1.33344596690939        0.04107782222080
C           -3.41882817415740       -2.24575879819157        1.05439747919239
C           -2.12147620179447       -2.56955160723939        1.34702555717550
C           -1.04011544274370       -1.94713458154616        0.65335714353446
C            0.28929520309886       -2.15505330258662        1.01203746539350
C            1.31987565005315       -1.49211852706836        0.36028792116920
C            1.06148113976318       -0.62829214383182       -0.70431714061336
C            2.09981399618123        0.07966124436962       -1.41088983438959
N            3.40006229140553        0.10737113368389       -0.92055394364467
C            4.48639152622779        0.06269191278345       -1.81373640345165
C            5.47939753275162        1.03412519985742       -1.71876798291700
C            6.58556843039847        1.02134723691547       -2.55120915445614
C            7.65919338670567        2.05618778490172       -2.40376571851368
C            6.67767572075527        0.01779823037834       -3.50674124468374
C            5.69125215493843       -0.94617826708465       -3.60894160334788
C            4.58586164205331       -0.95438309573241       -2.77131636123301
C            3.56006268073944       -2.03985181751444       -2.88673589385282
C            3.64124627542104        0.41408006730535        0.41216992512962
C            2.73786871259891        1.15889326770837        1.17628921040023
C            2.97018911658980        1.43871321462988        2.51505910284912
C            4.11626936193672        1.01034155998558        3.15730876946970
C            5.04177407494286        0.27990262804540        2.41824050065769
C            4.79791411335183       -0.01797977351609        1.06713464334510
O            5.80552935194257       -0.75901571803965        0.52216875596835
C            6.72029313077585       -0.94021178497067        1.51095309733575
C            7.91592036847697       -1.62770172007215        1.40775899361365
C            8.70749165110519       -1.69345755806737        2.54055330035431
C            8.31773349074265       -1.09355969353160        3.73577808880384
C            7.12398857115640       -0.40676656431120        3.83700979069154
C            6.31311537894072       -0.32659815421735        2.71227017001179
C            1.80168391924651        0.74330751395387       -2.60410173559615
C            0.51677013112412        0.83713702748432       -3.06507035755493
C           -0.56450924365599        0.25836343316826       -2.33437780173293
C           -1.88675382489763        0.37969652307563       -2.75284654796846
C           -2.92762416319097       -0.14795762995668       -2.00105305009737
C           -2.67588061802552       -0.84716302058835       -0.82130984704034
C           -1.33099066051282       -1.09499205556405       -0.44255559007880
C           -0.27585664679145       -0.48457421274163       -1.16003712868146
C           -5.21105672104084        0.53424620650479       -0.23348282781827
C           -6.36123874972083        1.05284563235474       -0.83191783742737
C           -6.53556560521193        2.41605950074766       -1.02614228707981
C           -5.56570832073022        3.33072003688198       -0.66143630947763
C           -4.40633089044282        2.84612464047168       -0.06530153173689
C           -4.24982230731178        1.46930795582486        0.16841108987078
O           -3.06631732265647        1.19755042815141        0.78640882224236
C           -2.41951858526823        2.38152716291139        0.91632862058163
C           -1.15231664043978        2.56700018606828        1.43948601704298
C           -0.66572922219622        3.86113283509084        1.46508692906280
C           -1.42224043815115        4.93122045825002        0.99131453141542
C           -2.68607832864824        4.74216248668303        0.46742853719849
C           -3.19293208533098        3.44989991889032        0.42187834278987
C           -7.08415442208176       -1.24435877352755        1.09761709412961
H           -9.01070003791566       -0.55660652890713        2.71971306947330
H          -10.20681711402014       -1.58764734960460        1.92325517371636
H           -9.23998544474692       -2.22816632240683        3.24641565329380
H           -9.14401659015538       -3.90145502657171        1.00721124412464
H           -7.45391529986378       -4.65654655027635       -0.59890895364345
H           -4.87975536617858       -2.57894990041926       -2.06631572405173
H           -4.37680697467663       -3.84244721835427       -0.95116466570300
H           -5.69061699926913       -4.15190548677371       -2.08782147338396
H           -4.22746619479440       -2.64982958874020        1.64837764169139
H           -1.89527037250795       -3.25236834005129        2.15201121087584
H            0.51911425162866       -2.82666999291143        1.82669088501727
H            2.33579949256967       -1.66594191607815        0.68203735183019
H            5.37602977549549        1.81458813032487       -0.97699011567568
H            8.34793228661589        1.76460596477815       -1.60985181953491
H            7.23361919562087        3.02174951558469       -2.13877072933382
H            8.22795119076212        2.16063290876434       -3.32462431287401
H            7.52858473072892       -0.01330865913677       -4.17159767246789
H            5.78745681532894       -1.72535103801434       -4.35180734216816
H            3.98177388059112       -2.90011144978931       -3.40163566723402
H            3.21216587697826       -2.35475457780913       -1.90502875039148
H            2.69286685155346       -1.69553670188924       -3.45142888775326
H            1.84333488084483        1.52863182110358        0.69871242144764
H            2.23712043685428        2.01496483888364        3.05971941248919
H            4.29538678810218        1.23280550074863        4.19693427112271
H            8.20908763303238       -2.08830055527315        0.47796434415112
H            9.64817176898924       -2.22151649443795        2.49705352965898
H            8.96445660646921       -1.16902478945061        4.59723211245177
H            6.82389291633347        0.05801421508608        4.76366460890818
H            2.60858318945345        1.22405444826663       -3.14041438447455
H            0.29715035128285        1.38002522100065       -3.97175640928518
H           -2.10572767700659        0.91581994315672       -3.66513936298528
H           -3.94309425567437       -0.00774704202354       -2.34286575855575
H           -7.12641699781470        0.36477742302545       -1.15909504242131
H           -7.44664626790292        2.76065627673331       -1.49195743959474
H           -5.69632709796681        4.38673827115925       -0.83519125262159
H           -0.57862999139534        1.72749366039957        1.79933551933910
H            0.32303214794480        4.04752078337713        1.85725554447344
H           -1.00611091482515        5.92692140000343        1.03175999872667
H           -3.26568132902078        5.57331997084134        0.09567207372258
H           -6.96127704475981       -0.28118053494262        1.57284943098298

 projected vibrational frequencies (cm⁻¹)
eigval :       -0.00    -0.00    -0.00    -0.00    -0.00     0.00
eigval :       10.50    12.14    15.68    17.79    21.88    23.16
eigval :       27.38    28.39    32.92    39.06    43.18    47.62
eigval :       52.84    54.53    70.59    91.99    98.79   109.29
eigval :      114.62   117.47   120.69   125.83   129.07   131.22
eigval :      151.13   158.77   165.10   167.66   172.58   199.53
eigval :      206.23   207.33   218.83   225.28   231.12   231.60
eigval :      260.07   265.26   267.28   274.49   282.88   288.25
eigval :      297.02   304.60   318.49   319.56   320.31   322.72
eigval :      326.37   359.88   368.74   398.38   400.03   408.50
eigval :      409.39   418.95   422.88   426.27   430.14   436.87
eigval :      440.84   451.16   463.72   466.09   473.04   480.07
eigval :      484.94   495.67   504.11   507.05   521.02   525.27
eigval :      531.40   532.57   538.42   539.45   540.06   544.60
eigval :      552.14   559.07   565.79   579.19   581.54   588.98
eigval :      598.27   611.31   619.50   622.35   640.65   645.59
eigval :      663.28   664.58   669.28   671.58   676.49   679.56
eigval :      681.73   682.45   709.99   710.41   725.03   738.93
eigval :      746.95   755.94   764.07   766.47   771.65   775.36
eigval :      777.13   778.27   792.58   793.22   801.65   805.43
eigval :      808.55   813.82   815.39   817.50   842.27   843.30
eigval :      849.03   852.12   857.90   867.49   871.15   872.07
eigval :      875.06   877.59   881.46   883.99   888.15   897.03
eigval :      898.79   902.61   903.82   911.54   914.15   914.96
eigval :      915.05   916.90   922.79   923.79   936.28   969.05
eigval :      977.34   987.25  1007.62  1012.77  1019.76  1023.69
eigval :     1029.87  1030.14  1032.36  1033.21  1044.51  1061.37
eigval :     1061.74  1080.82  1091.08  1101.79  1104.84  1122.38
eigval :     1123.68  1139.72  1148.19  1151.57  1155.86  1158.39
eigval :     1169.47  1173.83  1176.15  1184.78  1185.33  1187.66
eigval :     1190.19  1204.49  1209.83  1212.71  1215.54  1216.85
eigval :     1218.88  1220.45  1223.09  1229.44  1230.19  1251.83
eigval :     1253.79  1256.73  1259.53  1265.45  1267.60  1287.41
eigval :     1288.67  1299.40  1304.21  1318.76  1322.67  1325.98
eigval :     1327.37  1330.05  1330.94  1341.32  1348.91  1350.27
eigval :     1354.89  1365.24  1367.46  1386.00  1387.81  1388.74
eigval :     1391.49  1394.24  1403.06  1403.87  1405.78  1406.58
eigval :     1414.26  1416.12  1419.80  1421.35  1423.79  1460.56
eigval :     1465.13  1469.36  1469.96  1478.75  1479.70  1480.04
eigval :     1482.23  1482.41  1482.65  1485.19  1486.36  1487.29
eigval :     1487.69  1493.19  1498.91  1499.15  1512.93  1515.89
eigval :     1520.42  1559.92  1562.23  1564.73  1569.23  1570.42
eigval :     1574.24  1574.76  1592.63  1593.32  1601.23  1601.60
eigval :     1607.35  1609.56  2994.16  2994.54  2994.98  3006.01
eigval :     3020.52  3031.71  3031.96  3032.16  3035.72  3036.69
eigval :     3039.82  3046.54  3064.01  3065.46  3068.30  3068.89
eigval :     3070.58  3071.85  3073.03  3075.67  3079.39  3080.94
eigval :     3081.01  3082.66  3083.41  3083.70  3085.65  3086.77
eigval :     3086.98  3088.19  3089.03  3089.54  3094.58  3095.58
eigval :     3096.92  3098.01  3103.58  3105.75  3105.81  3106.96

   temp. (K)  partition function   enthalpy   heat capacity  entropy
                                   cal/mol     cal/K/mol   cal/K/mol   J/K/mol
 298.15  VIB  0.211E+24            29342.637    182.338    182.103
         ROT  0.127E+09              888.752      2.981     40.068
         INT  0.269E+32            30231.390    185.319    222.171
         TR   0.208E+29             1481.254      4.968     45.793
         TOT                       31712.6437   190.2869   267.9638  1121.1607

       T/K    H(0)-H(T)+PV         H(T)/Eh          T*S/Eh         G(T)/Eh
   ------------------------------------------------------------------------
    298.15    0.505373E-01    0.825217E+00    0.127318E+00    0.697898E+00
   ------------------------------------------------------------------------

         :::::::::::::::::::::::::::::::::::::::::::::::::::::
         ::                  THERMODYNAMIC                  ::
         :::::::::::::::::::::::::::::::::::::::::::::::::::::
         :: total free energy        -153.684554030331 Eh   ::
         ::.................................................::
         :: total energy             -154.382452485606 Eh   ::
         :: zero point energy           0.774679407373 Eh   ::
         :: G(RRHO) w/o ZPVE           -0.076780952098 Eh   ::
         :: G(RRHO) contrib.            0.697898455275 Eh   ::
         :::::::::::::::::::::::::::::::::::::::::::::::::::::

           -------------------------------------------------
          | TOTAL ENERGY             -154.382452485606 Eh   |
          | TOTAL ENTHALPY           -153.557235763694 Eh   |
          | TOTAL FREE ENERGY        -153.684554030331 Eh   |
          | GRADIENT NORM               0.000036157064 Eh/α |
           -------------------------------------------------

 * finished run on 2025/09/12 at 02:09:50.788
