   * xtb version 6.7.1 (edcfbbe) compiled by 'albert@albert-system' on 2024-07-22

   ID    Z sym.   atoms
    1    6 C      1-7, 9-16, 18-31, 33-52, 54-60
    2    7 N      8, 17
    3    8 O      32, 53
    4    1 H      61-100

          program call               : xtb data2507/gas/BPPyA/BPPyA_gas_S0_finalOpt.xtbopt.xyz --gfn 2 --spinpol --tblite --uhf 2 --ohess vtight --parallel 40 --molden --ceasefiles --namespace data2507/gas/BPPyA/BPPyA_gas_T1_preOpt
 * total energy  :  -154.3756239 Eh     change       -0.3251515E-07 Eh
 * total energy  :  -154.3804748 Eh     change       -0.4850867E-02 Eh
 * total energy  :  -154.3816933 Eh     change       -0.1218535E-02 Eh
 * total energy  :  -154.3817430 Eh     change       -0.4967412E-04 Eh
 * total energy  :  -154.3817658 Eh     change       -0.2280351E-04 Eh
 * total energy  :  -154.3817749 Eh     change       -0.9073024E-05 Eh
 * total energy  :  -154.3817839 Eh     change       -0.9018174E-05 Eh
 * total energy  :  -154.3817929 Eh     change       -0.9044353E-05 Eh
 * total energy  :  -154.3817995 Eh     change       -0.6543920E-05 Eh
 * total energy  :  -154.3818067 Eh     change       -0.7278309E-05 Eh
 * total energy  :  -154.3818462 Eh     change       -0.7125150E-06 Eh
 * total energy  :  -154.3818465 Eh     change       -0.2621082E-06 Eh
 * total energy  :  -154.3818469 Eh     change       -0.4188037E-06 Eh
 * total energy  :  -154.3818475 Eh     change       -0.6246804E-06 Eh
 * total energy  :  -154.3818478 Eh     change       -0.3038182E-06 Eh
 * total energy  :  -154.3818479 Eh     change       -0.1045103E-06 Eh
 * total energy  :  -154.3818483 Eh     change       -0.4200570E-06 Eh
 * total energy  :  -154.3818486 Eh     change       -0.2106784E-06 Eh
 * total energy  :  -154.3818486 Eh     change       -0.2420313E-07 Eh
   *** GEOMETRY OPTIMIZATION CONVERGED AFTER 44 ITERATIONS ***

 final structure:
================
100
 xtb: 6.7.1 (edcfbbe)
C           -6.33451980042160        4.08964672255904        2.92809963077666
C           -5.49136915838553        3.98543697967502        1.69389347052081
C           -5.04247523631495        5.13147284365791        1.04530717776013
C           -4.26799609664674        5.03046320380833       -0.09351471841888
C           -3.90536705042155        3.80271103580782       -0.63250225396646
C           -3.09674271049618        3.75740102796808       -1.89296852053689
C           -4.33850050284175        2.64663907838143        0.02942325366399
N           -4.01441365325143        1.36219279825297       -0.43849538572263
C           -2.74494475209169        1.02559394808887       -0.90293830066409
C           -2.65106340579609        0.25738080629626       -2.06970625167886
C           -1.44620788808143       -0.13069755416463       -2.57991908512432
C           -0.23186769647621        0.21600725019719       -1.91624945851071
C            1.00946625107703       -0.15186321390936       -2.42693870831583
C            2.18242511475259        0.15126310255582       -1.75176764446433
C            2.15130013398121        0.82188627147012       -0.52902983912054
C            3.33966770923362        1.10656033205065        0.23358840618313
N            4.55911363501387        0.51815819080448       -0.08716936809516
C            5.71984624321396        1.31205921884039       -0.02168587109447
C            5.70698079906506        2.53436772943316       -0.69254167977760
C            6.80349741769288        3.37647519912862       -0.67903100221964
C            6.78358029675326        4.68994559258367       -1.39930457217957
C            7.93399072779101        2.97404733816947        0.02562693264363
C            7.94386105087351        1.77459468014686        0.71053111455755
C            6.84520517145101        0.92471360627191        0.71501904283658
C            6.87500689595598       -0.33755333801773        1.52139285067170
C            4.64424036258060       -0.82660446849019       -0.40853900898590
C            5.66018518442941       -1.32514952898933       -1.22806513148361
C            5.74550777359962       -2.67222071984700       -1.55256051084280
C            4.82200387540537       -3.58884435245611       -1.08829282890654
C            3.79604624787999       -3.12208234918207       -0.27189894645874
C            3.71651923636824       -1.76149804500302        0.06521075593651
O            2.66308992918092       -1.50648310026690        0.89150703329882
C            2.03933074575750       -2.69515685360974        1.09141914341168
C            0.91455932632211       -2.91260252320954        1.86706399584274
C            0.44631747088519       -4.21184965621342        1.95100895996469
C            1.07535386741562       -5.25637073823740        1.27652225658468
C            2.19449429070659       -5.03655059380142        0.49811944720963
C            2.68678158109597       -3.74125304045191        0.40432100943504
C            3.27358194812133        1.97066279112666        1.33108502473691
C            2.07628590221645        2.44933938209760        1.78327863693996
C            0.85373574292031        2.07676619836041        1.14596993165006
C           -0.38474666068296        2.45704810612318        1.65213037361351
C           -1.56431442122653        2.10565280352948        1.01033228413968
C           -1.54911874126392        1.39896336364354       -0.19290646783040
C           -0.29589643770908        0.97186820399986       -0.71666262524512
C            0.90402178717253        1.28727568343773       -0.03245566072807
C           -5.00150553110807        0.38199442832677       -0.45859385168874
C           -6.34898823981180        0.68156797376528       -0.67778247089360
C           -7.32733759405035       -0.30243946924210       -0.68493290668590
C           -7.01757578503841       -1.63495846646319       -0.48868174999819
C           -5.68242834392740       -1.96822938678452       -0.28225724268976
C           -4.69392297904513       -0.96965597336948       -0.26488219120059
O           -3.45519454633394       -1.48998906239233       -0.04108852532733
C           -3.62052263485568       -2.83295544373166        0.07506469910107
C           -2.62113507679179       -3.76629389554603        0.28116290601694
C           -3.00580830913249       -5.09208438726036        0.36852362806076
C           -4.34119689688911       -5.47181976380294        0.25223254246062
C           -5.33630211411222       -4.53846800865306        0.03757764457797
C           -4.97440389042062       -3.20062676212487       -0.05543371666887
C           -5.12875342305028        2.75647955277281        1.17623051134835
H           -7.22185298645805        4.68976677361139        2.73154909922528
H           -6.64684163506758        3.10662034341391        3.27098959148615
H           -5.77581997619719        4.57555153638925        3.72746911185997
H           -5.30736410230858        6.10395891242555        1.43329992804212
H           -3.94106379097433        5.93167435299343       -0.59230328553191
H           -2.04513762327475        3.57306133629065       -1.67228268292743
H           -3.44275260415811        2.96591524810710       -2.55444841333584
H           -3.17161919255327        4.70800722423070       -2.41659173517910
H           -3.56512000225744       -0.00291925175601       -2.58778349506341
H           -1.39253397452540       -0.69445088132681       -3.49889414805122
H            1.05645368395622       -0.69700531253872       -3.35885299189589
H            3.12537498289606       -0.14412303678902       -2.18724032476619
H            4.81377068885032        2.81190677277360       -1.23454854790228
H            7.64068647383677        4.77289386101765       -2.06586555980369
H            6.83787032718053        5.51081473633432       -0.68461639693710
H            5.87317701623189        4.80025967428099       -1.98250231189137
H            8.80527651399466        3.61212530907344        0.04604877012774
H            8.82263752881143        1.49112048234491        1.27222426322612
H            7.15463341745293       -1.19066803374777        0.90164474541814
H            7.60177728409963       -0.24912912788429        2.32596277528182
H            5.89789053030587       -0.54742218650256        1.95264698990184
H            6.38782735840579       -0.63150171692521       -1.62296982321393
H            6.55206791587971       -3.00199693749207       -2.19042573010515
H            4.88863408636627       -4.63352519820994       -1.34608655148574
H            0.43026634629204       -2.09568684301976        2.37776011618799
H           -0.42625183916728       -4.42093749123211        2.55187789570135
H            0.67809219659268       -6.25643735262147        1.36838697025862
H            2.67962709918856       -5.84720966136671       -0.02378500593656
H            4.18954580345791        2.21387316667933        1.85221869460962
H            2.03155478119420        3.08091779226798        2.65752035209826
H           -0.42838600963533        3.03785953143955        2.56239533951144
H           -2.49982256061652        2.40111075076033        1.45651058362508
H           -6.62699478566079        1.71098030755897       -0.84649462882102
H           -8.35299005726101       -0.01228459036228       -0.85709138705766
H           -7.78039616001561       -2.39674606260598       -0.49752090327440
H           -1.58946477422028       -3.46403257293384        0.36364683209937
H           -2.25152971859028       -5.84804526079155        0.52675181661852
H           -4.59951276983601       -6.51769638874558        0.32770852457636
H           -6.36939860117549       -4.83579515365433       -0.05840910668222
H           -5.44861599030986        1.84954636300124        1.67043215941031

 projected vibrational frequencies (cm⁻¹)
eigval :       -0.00    -0.00     0.00     0.00     0.00     0.00
eigval :       10.38    15.41    16.98    18.17    20.16    21.95
eigval :       25.56    33.74    38.11    40.84    44.28    50.20
eigval :       58.38    61.19    71.18    94.77    97.30   103.16
eigval :      115.16   118.26   122.37   128.37   130.94   135.48
eigval :      154.19   156.57   167.82   183.87   184.55   203.14
eigval :      205.98   214.83   220.57   223.88   225.88   240.03
eigval :      254.66   258.43   266.32   273.97   283.19   287.57
eigval :      303.36   307.58   314.51   317.73   320.51   322.51
eigval :      326.25   346.94   369.04   397.57   400.48   408.79
eigval :      411.30   414.63   423.29   427.83   430.86   437.44
eigval :      440.21   449.15   458.77   472.17   473.07   481.64
eigval :      487.63   502.78   504.80   507.97   509.67   524.81
eigval :      529.97   537.02   538.63   539.92   541.42   543.87
eigval :      546.70   565.83   567.66   572.08   580.58   587.51
eigval :      603.38   614.09   618.30   625.78   629.61   645.76
eigval :      662.84   666.30   668.65   672.12   673.66   680.78
eigval :      683.07   683.52   710.14   710.39   727.01   739.39
eigval :      744.66   753.03   759.10   767.46   777.18   778.01
eigval :      781.98   783.14   792.10   795.00   797.89   803.18
eigval :      805.68   812.86   815.87   818.19   842.01   843.73
eigval :      849.66   850.32   862.90   869.58   870.53   872.54
eigval :      872.75   877.44   880.51   882.07   886.36   897.00
eigval :      904.18   905.26   906.84   912.08   914.56   914.97
eigval :      916.29   917.80   924.71   928.03   930.18   974.99
eigval :      979.22   988.86  1009.30  1012.79  1020.44  1023.17
eigval :     1029.30  1031.33  1032.85  1034.20  1041.88  1060.88
eigval :     1062.33  1080.91  1090.16  1101.59  1102.29  1123.90
eigval :     1127.14  1138.51  1146.12  1152.90  1156.32  1161.04
eigval :     1172.83  1173.89  1176.07  1184.46  1185.03  1189.37
eigval :     1190.08  1206.51  1210.88  1212.89  1215.43  1216.68
eigval :     1219.64  1220.88  1223.21  1229.97  1232.27  1252.13
eigval :     1252.62  1254.63  1259.45  1264.93  1267.85  1282.42
eigval :     1288.95  1297.39  1303.89  1317.49  1319.56  1327.26
eigval :     1327.80  1330.48  1334.02  1345.82  1348.70  1350.08
eigval :     1352.75  1366.91  1367.49  1379.60  1386.89  1389.80
eigval :     1391.89  1392.73  1403.73  1404.04  1406.20  1407.19
eigval :     1413.58  1414.04  1418.94  1420.02  1420.39  1458.01
eigval :     1467.45  1468.71  1471.07  1478.81  1479.51  1480.10
eigval :     1481.38  1482.81  1483.59  1484.80  1485.98  1488.61
eigval :     1489.43  1498.84  1499.53  1501.69  1513.93  1517.58
eigval :     1521.19  1557.93  1560.70  1563.22  1566.22  1569.51
eigval :     1572.19  1572.83  1592.03  1592.54  1602.26  1602.45
eigval :     1607.03  1608.19  2989.32  2999.50  3005.06  3005.71
eigval :     3019.79  3020.96  3027.41  3031.07  3034.90  3035.36
eigval :     3045.39  3047.45  3054.53  3065.24  3070.57  3072.03
eigval :     3072.31  3073.20  3074.47  3076.65  3079.26  3080.56
eigval :     3081.39  3084.23  3086.11  3086.69  3087.14  3087.72
eigval :     3088.10  3089.54  3089.65  3092.29  3095.93  3096.67
eigval :     3097.09  3106.16  3106.48  3107.58  3110.01  3117.28

   temp. (K)  partition function   enthalpy   heat capacity  entropy
                                   cal/mol     cal/K/mol   cal/K/mol   J/K/mol
 298.15  VIB  0.878E+23            29264.087    182.735    181.282
         ROT  0.122E+09              888.752      2.981     39.989
         INT  0.108E+32            30152.839    185.716    221.271
         TR   0.208E+29             1481.254      4.968     45.793
         TOT                       31634.0931   190.6841   267.0640  1117.3960

       T/K    H(0)-H(T)+PV         H(T)/Eh          T*S/Eh         G(T)/Eh
   ------------------------------------------------------------------------
    298.15    0.504121E-01    0.825376E+00    0.126891E+00    0.698485E+00
   ------------------------------------------------------------------------

         :::::::::::::::::::::::::::::::::::::::::::::::::::::
         ::                  THERMODYNAMIC                  ::
         :::::::::::::::::::::::::::::::::::::::::::::::::::::
         :: total free energy        -153.683363600191 Eh   ::
         ::.................................................::
         :: total energy             -154.381848564274 Eh   ::
         :: zero point energy           0.774963571744 Eh   ::
         :: G(RRHO) w/o ZPVE           -0.076478607662 Eh   ::
         :: G(RRHO) contrib.            0.698484964083 Eh   ::
         :::::::::::::::::::::::::::::::::::::::::::::::::::::

           -------------------------------------------------
          | TOTAL ENERGY             -154.381848564274 Eh   |
          | TOTAL ENTHALPY           -153.556472856272 Eh   |
          | TOTAL FREE ENERGY        -153.683363600191 Eh   |
          | GRADIENT NORM               0.000057803839 Eh/α |
           -------------------------------------------------

 * finished run on 2025/09/12 at 01:48:43.983
