   * xtb version 6.7.1 (edcfbbe) compiled by 'albert@albert-system' on 2024-07-22

   ID    Z sym.   atoms
    1    6 C      1-18, 20-26, 28-41, 43-47, 49-71
    2    7 N      19, 27, 42, 48
    3    1 H      72-125

          program call               : xtb data2507/gas/mCP-BmPy/mCP-BmPy_gas_S0_crest.xyz --gfn 2 --ohess vtight --parallel 40 --molden --ceasefiles --namespace data2507/gas/mCP-BmPy/mCP-BmPy_gas_S0_finalOpt
          :  Hamiltonian                  GFN2-xTB          :
 * total energy  :  -182.8235406 Eh     change       -0.2800761E-08 Eh
 * total energy  :  -182.8235435 Eh     change       -0.2906573E-05 Eh
 * total energy  :  -182.8235493 Eh     change       -0.5802665E-05 Eh
 * total energy  :  -182.8235532 Eh     change       -0.3913277E-05 Eh
 * total energy  :  -182.8235555 Eh     change       -0.2259328E-05 Eh
 * total energy  :  -182.8235588 Eh     change       -0.3318375E-05 Eh
 * total energy  :  -182.8235646 Eh     change       -0.5809990E-05 Eh
 * total energy  :  -182.8235706 Eh     change       -0.6038743E-05 Eh
 * total energy  :  -182.8235748 Eh     change       -0.4211120E-05 Eh
 * total energy  :  -182.8235787 Eh     change       -0.3872968E-05 Eh
 * total energy  :  -182.8236047 Eh     change       -0.3429811E-06 Eh
 * total energy  :  -182.8236051 Eh     change       -0.3360945E-06 Eh
 * total energy  :  -182.8236055 Eh     change       -0.3906968E-06 Eh
 * total energy  :  -182.8236058 Eh     change       -0.3962325E-06 Eh
 * total energy  :  -182.8236062 Eh     change       -0.3545847E-06 Eh
 * total energy  :  -182.8236065 Eh     change       -0.3077762E-06 Eh
 * total energy  :  -182.8236068 Eh     change       -0.2680943E-06 Eh
 * total energy  :  -182.8236070 Eh     change       -0.2674462E-06 Eh
 * total energy  :  -182.8236070 Eh     change       -0.3956785E-08 Eh
   *** GEOMETRY OPTIMIZATION CONVERGED AFTER 44 ITERATIONS ***

 final structure:
================
125
 xtb: 6.7.1 (edcfbbe)
C           -1.81598674476421        4.22528686907525       -3.46614089511388
C           -2.57680718292941        3.39633922041400       -4.50488906797264
C           -3.85427429559557        4.16058155832099       -4.88057335843883
C           -1.68049824340179        3.24131949857724       -5.74184675006196
C           -2.95497843874598        2.01577889108617       -3.99044222125536
C           -3.66613808104429        1.14957648174012       -4.82113207314592
C           -4.04258110233694       -0.11818226154902       -4.41614801264533
C           -3.69838401543556       -0.54270578741978       -3.14427678317458
C           -2.97805513732822        0.31289840002865       -2.30292403385534
C           -2.61390242829694        1.57700074027635       -2.71292932579839
C           -2.71971525101568       -0.34696643007747       -0.96137782974780
C           -3.38674008118048        0.48867263994903        0.11122508391267
C           -4.68112740553902        0.21648077287971        0.52558389836326
C           -5.29783399869644        0.99690614472497        1.50000227053552
C           -6.65181535003554        0.66376256479968        1.95790912818612
C           -7.59960765652974        1.64569108544628        2.23974695323211
C           -8.85794901814179        1.26828264818925        2.67397414304438
C           -9.13078319371329       -0.08465887836051        2.80974604782622
N           -8.24164941674863       -1.02878470502523        2.55157157779848
C           -7.04281891767550       -0.66446210380192        2.14177440835760
C           -4.60907250213394        2.07353735903263        2.04671777999038
C           -3.31533330800608        2.36859056891403        1.62983081071549
C           -2.57718019273727        3.49305462352981        2.21759653694038
C           -3.19118770878253        4.71395255077049        2.49053869959108
C           -2.44496459749723        5.73897634169325        3.04442482705393
C           -1.10211318267658        5.51016909288923        3.30515099733564
N           -0.50604000102268        4.35617176948604        3.05799792968131
C           -1.22151732060228        3.38041547219631        2.53430738987614
C           -2.71486516104321        1.57242949233508        0.66042607773346
C           -1.25181923824228       -0.58036069258415       -0.66281185658314
C           -0.31548388372096       -0.62504427576971       -1.69814916379538
C            1.02078609126512       -0.88803465245223       -1.46574084945966
C            1.42210861697149       -1.12957731005577       -0.16077270785827
C            0.48950743444383       -1.07791406916350        0.89899738529180
C           -0.84666338763964       -0.81321186790448        0.64222396748546
C            1.22687474221013       -1.32183894335963        2.10677245710786
C            0.86397691990722       -1.40895436006985        3.44407953355315
C            1.84237183106262       -1.68702420666698        4.37717171651273
C            3.16401570171877       -1.89228967587115        3.98819042179775
C            3.54918303768229       -1.80862354124644        2.66366543561405
C            2.57534231860136       -1.50360757014447        1.72384772575817
N            2.67995787276550       -1.38486073293932        0.35053157758500
C            3.85776586101075       -1.50405756835497       -0.39603646285127
C            3.89942129470749       -2.33257983206933       -1.51474278784714
C            5.06888779754643       -2.44186546406622       -2.24429201513224
C            6.20124927189816       -1.74119234987573       -1.87192047824252
C            6.16766732997915       -0.91958223136486       -0.74768025346750
N            7.30865338134478       -0.20738548916495       -0.36017218036250
C            8.57633180584279       -0.73589625882868       -0.20909256209831
C            9.00808047147646       -2.04835758977461       -0.33527062744494
C           10.34325678208078       -2.31395796977477       -0.09808835589351
C           11.23249340737608       -1.30527914726590        0.26556958319864
C           10.80330866283843       -0.00205056001673        0.41778474560903
C            9.46586416384356        0.28957509531674        0.18489094369292
C            8.68906994157369        1.49478656221026        0.26770783732815
C            9.00126859076630        2.81092395215126        0.58175256567117
C            7.99553604966601        3.75574513511962        0.54567654515548
C            6.69620220698816        3.40474848057771        0.18694877259446
C            6.36157203772767        2.10212770770333       -0.13055640347072
C            7.36270944566299        1.14347035759253       -0.07199126178442
C            4.99363575362789       -0.79998676734409       -0.01320372392432
C           -3.38696685777965       -1.69450187117170       -1.15967406325952
C           -3.47937024020104       -2.73706730843364       -0.26886162985239
C           -4.15276141990667       -3.90683291449667       -0.62821697060695
C           -4.25832435723445       -5.03057260454920        0.39074084502752
C           -2.84440788821679       -5.48932493795590        0.77566762611853
C           -4.99352247870188       -4.50754028154578        1.63365886000228
C           -5.02589876588288       -6.24435856491643       -0.13956036305986
C           -4.70491475338588       -3.98670646384329       -1.90285856016377
C           -4.60669054668052       -2.94460267278623       -2.81217489626122
C           -3.94671002429538       -1.78805684040166       -2.44037163823929
H           -2.41658119333563        4.38101209650801       -2.57253930270395
H           -0.88091181626715        3.74431824397474       -3.18809920378143
H           -1.57861060120857        5.20114279704913       -3.88531942415521
H           -3.60367422018748        5.16003979350723       -5.23012413025596
H           -4.40412058149939        3.65358802914597       -5.66848614560826
H           -4.50607748133139        4.25070127404415       -4.01387283140508
H           -1.38689646751146        4.21945471552195       -6.11717336863643
H           -2.19340692064876        2.71090299232346       -6.53933715863485
H           -0.78064594510980        2.68543119511471       -5.48623591842632
H           -3.93885637891764        1.46883771633057       -5.81592586626574
H           -4.59554900858416       -0.76281220971255       -5.08340528349078
H           -2.06294877247037        2.20897223612365       -2.03645627918429
H           -5.22480712282849       -0.60424469497606        0.08285065952169
H           -7.35716952584391        2.68994455400498        2.10046617492833
H           -9.61302556587717        2.00680463105838        2.89610417920424
H          -10.10100835138274       -0.43245345519743        3.13897763218812
H           -6.34599922727676       -1.47329738179475        1.96295637735687
H           -5.06407794350362        2.65802780114525        2.83333780557903
H           -4.23539264384467        4.86093409434020        2.25218983664964
H           -2.89287460012533        6.69634001270753        3.26278119576158
H           -0.47251883605978        6.28074784741317        3.73005742932104
H           -0.69168409373442        2.45021336812440        2.37093985418402
H           -1.71143353319586        1.80256828719096        0.33458641507056
H           -0.64467405214855       -0.44305086188837       -2.71030155518479
H            1.72771843420909       -0.89315098573204       -2.28155695702340
H           -1.55401908387396       -0.77202653513858        1.45732268867269
H           -0.16374379868057       -1.26488282174048        3.74234223183336
H            1.58300004010404       -1.75643541974650        5.42297007961925
H            3.90525867528105       -2.12486341823523        4.73835192774699
H            4.57350703014777       -1.98841102100482        2.37413288099334
H            3.02270173695924       -2.89584827514133       -1.79456703440215
H            5.09827466531696       -3.08139255197115       -3.11373124835212
H            7.10732521618799       -1.81271029013156       -2.45338037616909
H            8.32388180320653       -2.84107690089413       -0.59837428022244
H           10.70431701849904       -3.32746308352851       -0.19319988493087
H           12.26902494085957       -1.55316757281040        0.43932587666898
H           11.48831838140674        0.77710972119819        0.71629908726246
H           10.01210736566188        3.08475224296205        0.84375898019070
H            8.21606276724648        4.78433783466915        0.78935758201247
H            5.93267523054129        4.16776298593134        0.15322912591347
H            5.35500401000643        1.84693997111147       -0.42564381228297
H            4.96399803750644       -0.15996218693981        0.85526863019517
H           -3.03393335802762       -2.63821878348093        0.70939877774200
H           -2.26822467001429       -4.68002091887080        1.21580322052564
H           -2.89779655594854       -6.30141451082991        1.49779518238811
H           -2.31243240384651       -5.84438914236888       -0.10477806138476
H           -5.09653781844957       -5.30187967374877        2.36985677663025
H           -5.98858601181520       -4.15815443530869        1.36472781173747
H           -4.45436812057504       -3.68554020415037        2.09709228984823
H           -4.53269044853708       -6.67032320961069       -1.01038320377312
H           -5.06655824830964       -7.01139538979858        0.63129326925098
H           -6.04739119103974       -5.97803745844907       -0.40104553694178
H           -5.22950965258455       -4.87642061805716       -2.21064739694765
H           -5.04628339488830       -3.03886801710879       -3.79433189668035

          :  Hamiltonian                  GFN2-xTB          :
         :: gradient norm              0.000036309018 Eh/a0 ::
         :: HOMO-LUMO gap              2.732775921089 eV    ::
         :: SCC energy              -186.176229939020 Eh    ::
         :: -> dispersion             -0.176758938126 Eh    ::
         :: repulsion energy           3.352622889288 Eh    ::

    * Orbital Energies and Occupations

         #    Occupation            Energy/Eh            Energy/eV
      -------------------------------------------------------------
         1        2.0000           -0.6773873             -18.4326
       ...           ...                  ...                  ...
       159        2.0000           -0.4039896             -10.9931
       160        2.0000           -0.4036555             -10.9840
       161        2.0000           -0.3967350             -10.7957
       162        2.0000           -0.3932949             -10.7021
       163        2.0000           -0.3920811             -10.6691
       164        2.0000           -0.3895267             -10.5996
       165        2.0000           -0.3781546             -10.2901
       166        2.0000           -0.3773516             -10.2683
       167        2.0000           -0.3687559             -10.0344
       168        2.0000           -0.3677543             -10.0071
       169        2.0000           -0.3653042              -9.9404
       170        2.0000           -0.3628190              -9.8728
       171        2.0000           -0.3612762              -9.8308 (HOMO)
       172                         -0.2608486              -7.0981 (LUMO)
       173                         -0.2545265              -6.9260
       174                         -0.2480148              -6.7488
       175                         -0.2457768              -6.6879
       176                         -0.2455473              -6.6817
       177                         -0.2447602              -6.6603
       178                         -0.2435442              -6.6272
       179                         -0.2386279              -6.4934
       180                         -0.2380384              -6.4774
       181                         -0.2241414              -6.0992
       182                         -0.2210757              -6.0158
       ...                                ...                  ...
       338                          0.7472376              20.3334
      -------------------------------------------------------------
                  HL-Gap            0.1004277 Eh            2.7328 eV

     #   Z          covCN         q      C6AA      α(0)
     1   6 C        3.761    -0.105    22.557     6.770
     2   6 C        3.903     0.026    20.085     6.370
     3   6 C        3.762    -0.105    22.544     6.768
     4   6 C        3.762    -0.105    22.542     6.768
     5   6 C        2.975     0.005    27.906     8.665
     6   6 C        2.928    -0.039    28.979     8.828
     7   6 C        2.913    -0.037    28.931     8.820
     8   6 C        3.037    -0.003    28.070     8.690
     9   6 C        3.057    -0.000    27.974     8.674
    10   6 C        2.919    -0.045    29.108     8.847
    11   6 C        3.949     0.008    20.377     6.414
    12   6 C        2.977     0.020    27.550     8.610
    13   6 C        2.929    -0.042    29.052     8.839
    14   6 C        2.974     0.006    27.881     8.661
    15   6 C        2.973     0.001    27.996     8.679
    16   6 C        2.933    -0.016    28.419     8.743
    17   6 C        2.912    -0.039    28.980     8.827
    18   6 C        2.914     0.057    26.717     8.476
    19   7 N        1.835    -0.219    26.626     7.647
    20   6 C        2.919     0.056    26.751     8.482
    21   6 C        2.929    -0.042    29.044     8.838
    22   6 C        2.974     0.006    27.891     8.663
    23   6 C        2.973     0.001    27.998     8.679
    24   6 C        2.933    -0.017    28.424     8.744
    25   6 C        2.912    -0.039    28.981     8.828
    26   6 C        2.914     0.057    26.714     8.475
    27   7 N        1.835    -0.219    26.613     7.645
    28   6 C        2.918     0.056    26.742     8.480
    29   6 C        2.930    -0.040    28.993     8.830
    30   6 C        2.979     0.006    27.875     8.661
    31   6 C        2.927    -0.039    28.977     8.828
    32   6 C        2.909    -0.052    29.293     8.875
    33   6 C        3.074     0.044    26.930     8.508
    34   6 C        3.067    -0.018    28.385     8.736
    35   6 C        2.917    -0.038    28.957     8.824
    36   6 C        3.068    -0.016    28.351     8.731
    37   6 C        2.913    -0.032    28.794     8.799
    38   6 C        2.920    -0.040    28.986     8.829
    39   6 C        2.924    -0.032    28.806     8.802
    40   6 C        2.910    -0.050    29.248     8.868
    41   6 C        3.075     0.047    26.867     8.498
    42   7 N        2.803    -0.043    22.076     6.978
    43   6 C        2.912     0.067    26.509     8.443
    44   6 C        2.921    -0.049    29.209     8.863
    45   6 C        2.919    -0.028    28.704     8.786
    46   6 C        2.922    -0.049    29.205     8.862
    47   6 C        2.912     0.067    26.504     8.442
    48   7 N        2.803    -0.044    22.092     6.981
    49   6 C        3.074     0.047    26.880     8.501
    50   6 C        2.910    -0.051    29.272     8.872
    51   6 C        2.924    -0.033    28.833     8.806
    52   6 C        2.920    -0.041    29.010     8.833
    53   6 C        2.913    -0.033    28.814     8.802
    54   6 C        3.068    -0.016    28.351     8.731
    55   6 C        3.068    -0.017    28.353     8.731
    56   6 C        2.913    -0.033    28.813     8.802
    57   6 C        2.920    -0.040    29.000     8.831
    58   6 C        2.924    -0.033    28.815     8.803
    59   6 C        2.910    -0.051    29.255     8.869
    60   6 C        3.074     0.047    26.880     8.501
    61   6 C        2.926    -0.059    29.456     8.900
    62   6 C        3.057    -0.001    27.986     8.676
    63   6 C        2.922    -0.040    28.999     8.831
    64   6 C        2.975     0.006    27.882     8.661
    65   6 C        3.903     0.026    20.083     6.370
    66   6 C        3.762    -0.104    22.533     6.767
    67   6 C        3.762    -0.103    22.514     6.764
    68   6 C        3.761    -0.107    22.592     6.776
    69   6 C        2.925    -0.043    29.076     8.843
    70   6 C        2.914    -0.037    28.928     8.820
    71   6 C        3.035    -0.004    28.086     8.693
    72   1 H        0.925     0.034     2.534     2.489
    73   1 H        0.925     0.035     2.512     2.479
    74   1 H        0.925     0.035     2.511     2.478
    75   1 H        0.925     0.037     2.495     2.470
    76   1 H        0.925     0.037     2.495     2.470
    77   1 H        0.925     0.033     2.550     2.497
    78   1 H        0.925     0.037     2.493     2.469
    79   1 H        0.925     0.036     2.496     2.471
    80   1 H        0.925     0.033     2.541     2.493
    81   1 H        0.926     0.028     2.612     2.527
    82   1 H        0.926     0.028     2.614     2.528
    83   1 H        0.926     0.034     2.525     2.485
    84   1 H        0.926     0.038     2.482     2.464
    85   1 H        0.926     0.033     2.545     2.495
    86   1 H        0.926     0.034     2.527     2.486
    87   1 H        0.925     0.038     2.480     2.463
    88   1 H        0.925     0.041     2.439     2.442
    89   1 H        0.926     0.031     2.571     2.507
    90   1 H        0.926     0.033     2.545     2.495
    91   1 H        0.926     0.034     2.526     2.485
    92   1 H        0.925     0.038     2.479     2.462
    93   1 H        0.925     0.040     2.450     2.448
    94   1 H        0.926     0.036     2.502     2.474
    95   1 H        0.926     0.033     2.550     2.497
    96   1 H        0.926     0.028     2.614     2.528
    97   1 H        0.926     0.029     2.600     2.522
    98   1 H        0.926     0.030     2.587     2.515
    99   1 H        0.926     0.029     2.597     2.520
   100   1 H        0.926     0.030     2.582     2.513
   101   1 H        0.926     0.027     2.624     2.533
   102   1 H        0.926     0.044     2.390     2.418
   103   1 H        0.926     0.041     2.438     2.442
   104   1 H        0.926     0.044     2.390     2.418
   105   1 H        0.926     0.027     2.633     2.537
   106   1 H        0.926     0.029     2.600     2.522
   107   1 H        0.926     0.028     2.612     2.527
   108   1 H        0.926     0.031     2.568     2.506
   109   1 H        0.926     0.031     2.568     2.506
   110   1 H        0.926     0.029     2.604     2.523
   111   1 H        0.926     0.031     2.575     2.510
   112   1 H        0.926     0.027     2.626     2.534
   113   1 H        0.926     0.052     2.301     2.372
   114   1 H        0.926     0.028     2.615     2.529
   115   1 H        0.925     0.036     2.501     2.473
   116   1 H        0.925     0.037     2.492     2.469
   117   1 H        0.925     0.032     2.555     2.500
   118   1 H        0.925     0.037     2.486     2.465
   119   1 H        0.925     0.036     2.501     2.473
   120   1 H        0.925     0.034     2.536     2.490
   121   1 H        0.925     0.035     2.518     2.482
   122   1 H        0.925     0.036     2.501     2.473
   123   1 H        0.925     0.037     2.493     2.469
   124   1 H        0.926     0.036     2.505     2.475
   125   1 H        0.926     0.028     2.620     2.531

molecular dipole:
                 x           y           z       tot (Debye)
 q only:       -0.087       0.034      -0.538
   full:       -0.397       0.444      -0.718       2.371

 projected vibrational frequencies (cm⁻¹)
eigval :       -0.00    -0.00     0.00     0.00     0.00     0.00
eigval :        5.79     8.17    10.81    14.55    17.51    20.61
eigval :       22.97    23.54    26.80    26.96    34.78    43.00
eigval :       45.96    47.28    48.89    58.07    60.41    69.53
eigval :       74.34    78.78    81.94    83.01    97.61    99.90
eigval :      111.18   117.32   125.11   134.02   142.94   148.78
eigval :      154.85   177.12   181.56   184.78   187.78   189.43
eigval :      200.12   212.76   213.18   219.45   222.70   224.78
eigval :      236.99   238.99   242.32   248.62   265.58   266.78
eigval :      270.48   272.11   278.44   282.30   285.38   304.72
eigval :      320.22   321.07   323.97   328.29   330.15   337.37
eigval :      345.39   348.34   357.61   363.87   367.41   369.23
eigval :      371.64   382.09   386.11   388.22   395.78   398.75
eigval :      417.18   420.04   423.86   429.27   434.10   436.91
eigval :      440.48   445.03   449.55   462.73   466.62   476.90
eigval :      480.84   514.31   520.08   524.50   529.63   532.78
eigval :      534.58   541.19   541.99   543.56   557.63   569.15
eigval :      583.06   586.08   587.30   593.32   597.23   604.88
eigval :      606.81   613.55   614.18   617.69   630.22   633.93
eigval :      635.02   641.20   647.96   671.96   675.44   675.97
eigval :      678.72   682.52   691.82   692.46   694.65   707.94
eigval :      708.63   711.33   722.10   730.07   749.08   755.68
eigval :      762.90   769.67   775.38   778.25   781.06   784.66
eigval :      790.63   804.38   819.16   821.28   825.37   832.72
eigval :      840.97   842.12   867.49   871.63   872.35   873.68
eigval :      877.32   884.90   889.68   890.45   892.26   895.11
eigval :      897.84   899.30   900.04   903.69   904.88   905.27
eigval :      907.60   909.33   910.50   911.32   911.93   914.12
eigval :      914.50   915.51   918.30   922.89   923.00   926.03
eigval :      928.31   930.08   933.43   955.59   960.17   960.47
eigval :      961.43   963.00   963.27   963.66   968.12   976.29
eigval :      997.47  1000.45  1005.58  1009.47  1013.31  1017.69
eigval :     1018.61  1034.68  1034.98  1035.43  1035.85  1038.26
eigval :     1070.85  1073.10  1074.39  1095.30  1096.25  1105.20
eigval :     1114.53  1120.93  1124.65  1126.69  1127.82  1131.59
eigval :     1139.46  1140.93  1142.01  1152.65  1156.43  1170.80
eigval :     1178.23  1178.53  1178.82  1181.24  1181.86  1190.25
eigval :     1194.49  1198.05  1198.95  1201.20  1210.20  1216.56
eigval :     1226.78  1227.55  1232.06  1234.74  1235.45  1237.32
eigval :     1239.85  1245.09  1248.60  1250.46  1252.83  1254.90
eigval :     1260.17  1269.22  1270.19  1280.14  1281.97  1283.45
eigval :     1285.61  1291.16  1299.72  1303.50  1305.79  1309.89
eigval :     1318.88  1321.95  1326.89  1339.39  1345.96  1355.63
eigval :     1358.33  1360.66  1364.05  1372.37  1375.69  1390.44
eigval :     1399.66  1403.39  1404.69  1406.00  1406.74  1416.69
eigval :     1417.69  1421.89  1423.47  1426.62  1429.31  1429.85
eigval :     1430.15  1434.90  1443.40  1454.20  1464.01  1464.22
eigval :     1471.12  1473.24  1477.08  1479.70  1480.56  1486.26
eigval :     1488.36  1492.38  1493.04  1494.81  1495.98  1502.01
eigval :     1502.52  1505.66  1506.80  1515.22  1515.65  1520.45
eigval :     1521.19  1561.88  1563.12  1569.18  1571.79  1573.13
eigval :     1573.63  1577.13  1578.30  1581.96  1583.81  1584.83
eigval :     1587.67  1589.80  1593.48  1599.78  1600.86  1605.16
eigval :     1611.25  1615.26  1617.35  3020.91  3022.02  3023.12
eigval :     3023.38  3025.50  3026.05  3028.94  3029.73  3030.35
eigval :     3031.11  3034.05  3035.24  3037.46  3038.69  3043.01
eigval :     3046.92  3048.02  3050.54  3050.84  3056.53  3060.01
eigval :     3060.11  3066.94  3067.52  3075.07  3076.30  3077.71
eigval :     3077.74  3078.80  3080.19  3080.83  3081.44  3082.84
eigval :     3082.87  3083.19  3085.84  3088.06  3088.48  3088.53
eigval :     3088.85  3089.37  3090.14  3090.41  3090.59  3095.49
eigval :     3095.72  3096.79  3097.07  3097.54  3100.74  3102.47
eigval :     3105.35  3114.45  3118.43

   temp. (K)  partition function   enthalpy   heat capacity  entropy
                                   cal/mol     cal/K/mol   cal/K/mol   J/K/mol
 298.15  VIB  0.301E+30            36155.986    223.230    226.711
         ROT  0.258E+09              888.752      2.981     41.471
         INT  0.776E+38            37044.738    226.211    268.181
         TR   0.268E+29             1481.254      4.968     46.296
         TOT                       38525.9920   231.1789   314.4776  1315.7742

       T/K    H(0)-H(T)+PV         H(T)/Eh          T*S/Eh         G(T)/Eh
   ------------------------------------------------------------------------
    298.15    0.613951E-01    0.105919E+01    0.149418E+00    0.909772E+00
   ------------------------------------------------------------------------

         :::::::::::::::::::::::::::::::::::::::::::::::::::::
         ::                  THERMODYNAMIC                  ::
         :::::::::::::::::::::::::::::::::::::::::::::::::::::
         :: total free energy        -181.913835449272 Eh   ::
         ::.................................................::
         :: total energy             -182.823607049732 Eh   ::
         :: zero point energy           0.997794974208 Eh   ::
         :: G(RRHO) w/o ZPVE           -0.088023373748 Eh   ::
         :: G(RRHO) contrib.            0.909771600459 Eh   ::
         :::::::::::::::::::::::::::::::::::::::::::::::::::::

           -------------------------------------------------
          | TOTAL ENERGY             -182.823607049732 Eh   |
          | TOTAL ENTHALPY           -181.764416999282 Eh   |
          | TOTAL FREE ENERGY        -181.913835449272 Eh   |
          | GRADIENT NORM               0.000036306866 Eh/α |
          | HOMO-LUMO GAP               2.732775880402 eV   |
           -------------------------------------------------

 * finished run on 2025/08/24 at 19:55:43.436
