   * xtb version 6.7.1 (edcfbbe) compiled by 'albert@albert-system' on 2024-07-22

   ID    Z sym.   atoms
    1    6 C      1-18, 20-26, 28-41, 43-47, 49-71
    2    7 N      19, 27, 42, 48
    3    1 H      72-125

          program call               : xtb data2507/gas/mCP-BmPy/mCP-BmPy_gas_T1_crest.xyz --gfn 2 --spinpol --tblite --uhf 2 --ohess vtight --parallel 40 --molden --ceasefiles --namespace data2507/gas/mCP-BmPy/mCP-BmPy_gas_T1_finalOpt
 * total energy  :  -182.7217606 Eh     change       -0.2303346E-07 Eh
 * total energy  :  -182.7218915 Eh     change       -0.1308516E-03 Eh
 * total energy  :  -182.7220002 Eh     change       -0.1087116E-03 Eh
 * total energy  :  -182.7220303 Eh     change       -0.3011352E-04 Eh
 * total energy  :  -182.7220706 Eh     change       -0.4036175E-04 Eh
 * total energy  :  -182.7220816 Eh     change       -0.1097537E-04 Eh
 * total energy  :  -182.7221025 Eh     change       -0.2086294E-04 Eh
 * total energy  :  -182.7221128 Eh     change       -0.1036004E-04 Eh
 * total energy  :  -182.7221351 Eh     change       -0.2221244E-04 Eh
 * total energy  :  -182.7221453 Eh     change       -0.1026884E-04 Eh
 * total energy  :  -182.7221848 Eh     change       -0.7671771E-06 Eh
 * total energy  :  -182.7221855 Eh     change       -0.7642972E-06 Eh
 * total energy  :  -182.7221862 Eh     change       -0.7192212E-06 Eh
 * total energy  :  -182.7221868 Eh     change       -0.5903721E-06 Eh
 * total energy  :  -182.7221873 Eh     change       -0.4877783E-06 Eh
 * total energy  :  -182.7221876 Eh     change       -0.3187654E-06 Eh
 * total energy  :  -182.7221878 Eh     change       -0.1749133E-06 Eh
 * total energy  :  -182.7221878 Eh     change        0.9640758E-08 Eh
 * total energy  :  -182.7221879 Eh     change       -0.5254049E-07 Eh
   *** GEOMETRY OPTIMIZATION CONVERGED AFTER 43 ITERATIONS ***

 final structure:
================
125
 xtb: 6.7.1 (edcfbbe)
C           -0.75464452611974        5.31843914548468        1.08193569971811
C           -0.16578870757140        5.15903537649804       -0.32686810085479
C           -0.13992750832845        6.53982736507706       -0.98807873510786
C            1.27875842105084        4.64554590151211       -0.23534542123234
C           -0.99180758790621        4.14633932791110       -1.10474610336870
C           -1.59424178216363        4.43999900206808       -2.32409391093886
C           -2.32205081281531        3.49372887604430       -3.02904515434143
C           -2.45337285492420        2.22033267791839       -2.50666174885257
C           -1.85778334876523        1.91275199353952       -1.27556325255872
C           -1.13904470686096        2.85846538970866       -0.58376803386266
C           -2.14143719781481        0.47508020985717       -0.88622438031777
C           -2.95380186272696        0.47501508998414        0.39627083608747
C           -4.32208560440191        0.47578842144300        0.36707518555901
C           -5.10732398060059        0.47167234943900        1.57076669043969
C           -6.51163475196890        0.36649417249180        1.53433621522244
C           -7.34103109814390        0.08505521511345        2.67761092829192
C           -8.70005172791070        0.09056767808649        2.58934369752632
C           -9.30909884034407        0.30911837651892        1.33804990489325
N           -8.55153602528452        0.63792475633979        0.29667117836656
C           -7.26469531724753        0.68232220633063        0.34995290760532
C           -4.38913158478660        0.51436371675521        2.79652079625971
C           -3.01662262665712        0.52239720248425        2.83087345308536
C           -2.30441142964555        0.47247805640765        4.10570353104771
C           -1.13578255151673       -0.27875042953218        4.27047645480271
C           -0.50548234004165       -0.29870176890426        5.50034523687236
C           -1.06375349839413        0.42641148697101        6.54372149222144
N           -2.16090703843965        1.15119920021097        6.39636469086487
C           -2.75705712867911        1.18002466926219        5.22541014961660
C           -2.27948198578418        0.53367850055532        1.62286458085046
C           -0.89398881596113       -0.37000102555303       -0.74876515898982
C            0.28343171785677        0.00044417347017       -1.40314405568223
C            1.44480690583399       -0.73714525854587       -1.28830398150978
C            1.42456775030934       -1.86942023291642       -0.48873459202486
C            0.22699756616017       -2.29293358102965        0.12911585020910
C           -0.93114079353498       -1.54316518877982       -0.00765592367382
C            0.53566582774465       -3.51407218580518        0.82063596344075
C           -0.20917748241912       -4.37433996040682        1.61550252704853
C            0.41808603311411       -5.47432759727871        2.16693692455109
C            1.77272262459882       -5.71170445807638        1.94662721976649
C            2.53571639607065       -4.86761031801160        1.16167955008251
C            1.90604064949431       -3.77396237369809        0.58602191132974
N            2.43106881510513       -2.77118010534996       -0.20653635976687
C            3.77010396003431       -2.64627470477291       -0.59782851534415
C            4.43005124077039       -3.71144202719280       -1.20456319038647
C            5.75545935907220       -3.57337636814173       -1.57474233155971
C            6.43007911662418       -2.38624410153060       -1.35646836736512
C            5.77655032604946       -1.31979347891542       -0.74223807576306
N            6.45866634093515       -0.12418043052610       -0.49007447960554
C            7.69457388694449       -0.01566179468383        0.12102348689107
C            8.51569154765909       -1.00584657716428        0.64064070717486
C            9.70374948944055       -0.61659593034066        1.22959620106237
C           10.06978575030647        0.72467491211155        1.31289375344917
C            9.24382138890565        1.71652153284026        0.82317713641397
C            8.04459442327900        1.34969456999152        0.22735576503387
C            6.96225416944660        2.09629097544423       -0.35068608192826
C            6.73553005453659        3.45243245268576       -0.54492209507917
C            5.56755688093679        3.84633778128753       -1.16688548391506
C            4.64274721980503        2.90523061780381       -1.61189253211311
C            4.84853347205862        1.55127387462118       -1.43094070166952
C            6.00395710267596        1.14940661977115       -0.77788479631212
C            4.44622546041476       -1.45461269667956       -0.36163125144350
C           -2.94338040483549       -0.00343058249132       -2.08060808623060
C           -3.47867066641938       -1.24984373103466       -2.30110085359721
C           -4.22603527550563       -1.49566813165985       -3.45526005838209
C           -4.83578995647022       -2.87479278932783       -3.64992719435350
C           -3.71577727441891       -3.92493068944138       -3.65258994831583
C           -5.80736982092921       -3.14980868984834       -2.49256185636899
C           -5.61097938815185       -3.00317664302924       -4.96390316788921
C           -4.39486869700469       -0.45874199297184       -4.36779859155804
C           -3.84985211088096        0.79878786516039       -4.15882068174451
C           -3.12131900825794        1.03293114954628       -3.00718613351859
H           -1.78994242893251        5.64754903428155        1.02070529951531
H           -0.72834441652691        4.38411814344188        1.63551742251231
H           -0.18887836583502        6.06002600004998        1.64215079314728
H            0.31244903874549        6.49494673637149       -1.97616373975491
H           -1.14315462261769        6.95114393548809       -1.07277520696523
H            0.45252023983205        7.22070936014737       -0.38002830583490
H            1.89428495264214        5.34696444630844        0.32384933126486
H            1.70031517035883        4.53762451417122       -1.23257332803588
H            1.32759420191676        3.67962391952315        0.26008893619677
H           -1.50176049534943        5.42539940811273       -2.75085999920742
H           -2.77442212073650        3.75198617025416       -3.97532985640560
H           -0.68455593756048        2.59441314127006        0.35869751075581
H           -4.82809396198029        0.45753815805770       -0.58450225622862
H           -6.87192221481895       -0.19118355592857        3.60903865271534
H           -9.31951613956446       -0.14970282780910        3.43998355473837
H          -10.36638870239131        0.19292595079318        1.17128845068880
H           -6.76524798071282        1.08208304458993       -0.52060789636354
H           -4.93388833065773        0.48605342837038        3.72727557761496
H           -0.74472874836600       -0.86030654458403        3.44750701952601
H            0.39313576996057       -0.87676948999085        5.65340310370966
H           -0.62392195172286        0.43114077000898        7.53155322637323
H           -3.63134826251718        1.81462788432998        5.15809871867727
H           -1.20389677976958        0.59662689870342        1.65361569099638
H            0.28609952257739        0.89147980548329       -2.01272342841018
H            2.33746006871656       -0.44214163787076       -1.81732632095740
H           -1.84360626853151       -1.86358426277229        0.47248809080846
H           -1.25525167329807       -4.18057531834941        1.80002438772020
H           -0.14364865864070       -6.15780414006272        2.78586825286512
H            2.23906420166719       -6.57219376058891        2.40300164762427
H            3.58930716295494       -5.05003927867764        1.01326763019677
H            3.89762116741776       -4.62993748072851       -1.39728470211592
H            6.26450608047249       -4.39615304564936       -2.05377117951403
H            7.45553341260320       -2.27287083480548       -1.67207668418368
H            8.23418510896463       -2.04728376994622        0.60071425909784
H           10.36118876368166       -1.36991317486811        1.63790359426528
H           11.00835800581891        0.98780550396461        1.77731536954030
H            9.51758068378573        2.75762639883065        0.90359304545605
H            7.46319665831053        4.17958612408494       -0.21776397645614
H            5.36927457317359        4.89609721484283       -1.32307747789321
H            3.74676879903949        3.23812122622838       -2.11404830349270
H            4.13542059435091        0.83247121591472       -1.80230632593121
H            3.94536868303156       -0.64383413472753        0.14548575901663
H           -3.32629550742522       -2.02796762328198       -1.56889005000267
H           -3.16720596757718       -3.92583861207939       -2.71479756044142
H           -4.13418023460861       -4.91802636536722       -3.80293392489026
H           -3.01218041855053       -3.72104845263242       -4.45734236453309
H           -6.59344084002352       -2.39740581103466       -2.47377375556101
H           -5.29773106757316       -3.13044301802012       -1.53313695483886
H           -6.26877125750261       -4.12762818479838       -2.61421027990191
H           -4.96259671026208       -2.82943229359451       -5.81974875016044
H           -6.01559446788899       -4.00990990344480       -5.04819158598922
H           -6.44353740735445       -2.30434594227000       -4.99789476656183
H           -4.96507783887844       -0.61766740585042       -5.26845866067882
H           -4.00076929965459        1.58304829481562       -4.88611044038911

 projected vibrational frequencies (cm⁻¹)
eigval :       -0.00    -0.00    -0.00     0.00     0.00     0.00
eigval :        5.06     6.48     8.52    12.84    17.75    19.51
eigval :       20.60    23.52    27.67    29.38    32.18    39.42
eigval :       45.83    49.96    49.99    51.37    60.36    66.89
eigval :       75.50    77.11    80.37    87.83   100.13   104.88
eigval :      110.63   121.68   127.66   131.40   142.62   145.23
eigval :      151.76   159.18   171.51   176.26   178.92   180.96
eigval :      195.83   203.20   206.96   213.71   221.45   224.61
eigval :      227.20   238.83   239.16   246.54   253.44   269.60
eigval :      272.21   272.39   283.89   284.81   287.48   302.76
eigval :      309.77   319.84   323.12   328.73   330.61   338.00
eigval :      340.99   348.93   352.18   364.55   365.43   371.83
eigval :      381.13   382.98   385.91   393.82   397.88   399.51
eigval :      410.87   421.83   424.76   425.68   430.78   435.56
eigval :      436.72   440.63   447.72   450.36   460.45   464.30
eigval :      477.33   508.39   515.41   518.60   520.59   530.01
eigval :      532.15   534.23   539.06   540.92   544.31   552.08
eigval :      556.30   565.56   567.35   577.08   580.58   587.07
eigval :      591.41   602.60   610.15   612.37   612.94   614.70
eigval :      627.97   629.28   632.33   634.17   650.59   669.37
eigval :      670.93   674.38   677.58   679.27   681.89   694.39
eigval :      706.25   707.68   709.52   718.95   728.72   741.84
eigval :      749.10   750.34   762.77   767.13   767.33   773.45
eigval :      774.82   779.18   780.57   790.57   795.79   804.43
eigval :      810.17   817.49   819.10   821.05   828.47   830.50
eigval :      863.48   869.87   871.46   873.09   873.23   880.93
eigval :      884.40   886.36   889.72   892.56   894.13   896.78
eigval :      897.24   899.69   901.91   903.49   905.27   907.75
eigval :      908.39   910.38   912.10   913.21   915.21   921.52
eigval :      922.71   923.60   925.10   933.28   935.06   959.51
eigval :      960.14   961.77   962.33   962.84   962.94   965.02
eigval :      966.33   976.39   992.71   997.46  1009.42  1014.29
eigval :     1018.60  1030.69  1033.83  1035.22  1035.64  1036.86
eigval :     1056.06  1058.70  1069.91  1071.89  1074.02  1093.58
eigval :     1098.63  1112.17  1114.10  1117.77  1122.46  1126.55
eigval :     1127.88  1133.04  1138.47  1141.02  1149.09  1154.51
eigval :     1168.40  1175.55  1177.33  1177.72  1179.99  1180.33
eigval :     1183.03  1187.89  1191.40  1195.11  1200.37  1204.51
eigval :     1213.09  1214.31  1226.61  1227.01  1232.17  1233.57
eigval :     1233.93  1234.77  1234.91  1238.97  1243.14  1250.86
eigval :     1255.11  1256.93  1262.52  1275.55  1284.00  1284.71
eigval :     1285.71  1289.19  1293.95  1299.52  1299.92  1300.63
eigval :     1305.89  1313.39  1317.98  1325.25  1330.25  1341.59
eigval :     1342.41  1351.73  1357.45  1358.56  1358.74  1361.90
eigval :     1374.19  1375.75  1401.40  1402.91  1403.17  1405.58
eigval :     1406.18  1412.94  1414.47  1417.87  1419.48  1423.79
eigval :     1427.04  1427.82  1428.53  1433.64  1438.19  1451.59
eigval :     1461.86  1468.81  1471.00  1474.10  1475.89  1478.29
eigval :     1483.82  1486.51  1488.06  1491.74  1491.90  1494.23
eigval :     1494.31  1500.75  1501.11  1505.14  1505.50  1508.95
eigval :     1514.30  1514.44  1519.47  1519.81  1523.50  1532.49
eigval :     1565.73  1570.69  1576.15  1576.79  1579.58  1582.23
eigval :     1586.01  1589.72  1593.61  1594.05  1599.31  1601.05
eigval :     1606.66  1610.55  1614.10  3021.07  3021.08  3022.42
eigval :     3023.23  3025.80  3026.27  3028.74  3029.68  3029.80
eigval :     3030.56  3034.83  3034.99  3037.52  3037.67  3045.09
eigval :     3045.56  3049.11  3049.82  3053.39  3062.47  3064.63
eigval :     3069.45  3075.87  3076.45  3077.45  3078.33  3079.75
eigval :     3079.94  3082.28  3082.90  3085.83  3086.06  3086.95
eigval :     3087.82  3087.90  3088.83  3089.17  3090.05  3090.13
eigval :     3090.32  3094.37  3094.70  3096.78  3097.13  3098.45
eigval :     3099.24  3100.50  3101.01  3102.78  3104.30  3105.78
eigval :     3106.29  3113.08  3113.81

   temp. (K)  partition function   enthalpy   heat capacity  entropy
                                   cal/mol     cal/K/mol   cal/K/mol   J/K/mol
 298.15  VIB  0.129E+31            36629.607    226.263    230.076
         ROT  0.225E+09              888.752      2.981     41.200
         INT  0.291E+39            37518.360    229.244    271.276
         TR   0.268E+29             1481.254      4.968     46.296
         TOT                       38999.6137   234.2122   317.5721  1328.7217

       T/K    H(0)-H(T)+PV         H(T)/Eh          T*S/Eh         G(T)/Eh
   ------------------------------------------------------------------------
    298.15    0.621498E-01    0.105380E+01    0.150889E+00    0.902912E+00
   ------------------------------------------------------------------------

         :::::::::::::::::::::::::::::::::::::::::::::::::::::
         ::                  THERMODYNAMIC                  ::
         :::::::::::::::::::::::::::::::::::::::::::::::::::::
         :: total free energy        -181.819276331624 Eh   ::
         ::.................................................::
         :: total energy             -182.722187927145 Eh   ::
         :: zero point energy           0.991650506135 Eh   ::
         :: G(RRHO) w/o ZPVE           -0.088738910614 Eh   ::
         :: G(RRHO) contrib.            0.902911595520 Eh   ::
         :::::::::::::::::::::::::::::::::::::::::::::::::::::

           -------------------------------------------------
          | TOTAL ENERGY             -182.722187927145 Eh   |
          | TOTAL ENTHALPY           -181.668387580512 Eh   |
          | TOTAL FREE ENERGY        -181.819276331624 Eh   |
          | GRADIENT NORM               0.000087390855 Eh/α |
           -------------------------------------------------

 * finished run on 2025/08/24 at 20:31:40.376
