   * xtb version 6.7.1 (edcfbbe) compiled by 'albert@albert-system' on 2024-07-22

   ID    Z sym.   atoms
    1    6 C      1-18, 20-26, 28-41, 43-47, 49-71
    2    7 N      19, 27, 42, 48
    3    1 H      72-125

          program call               : xtb data2507/gas/mCP-BmPy/mCP-BmPy.xyz --gfn 2 --ohess vtight --parallel 40 --molden --ceasefiles --namespace data2507/gas/mCP-BmPy/mCP-BmPy_gas_S0_preOpt
          :  Hamiltonian                  GFN2-xTB          :
 * total energy  :  -182.7869065 Eh     change       -0.4430888E-08 Eh
 * total energy  :  -182.8089431 Eh     change       -0.2203659E-01 Eh
 * total energy  :  -182.8162642 Eh     change       -0.7321065E-02 Eh
 * total energy  :  -182.8188240 Eh     change       -0.2559817E-02 Eh
 * total energy  :  -182.8201666 Eh     change       -0.1342651E-02 Eh
 * total energy  :  -182.8206263 Eh     change       -0.4596780E-03 Eh
 * total energy  :  -182.8209011 Eh     change       -0.2747714E-03 Eh
 * total energy  :  -182.8211416 Eh     change       -0.2405170E-03 Eh
 * total energy  :  -182.8213352 Eh     change       -0.1936475E-03 Eh
 * total energy  :  -182.8214911 Eh     change       -0.1558353E-03 Eh
 * total energy  :  -182.8223889 Eh     change       -0.5083341E-06 Eh
 * total energy  :  -182.8223894 Eh     change       -0.4639322E-06 Eh
 * total energy  :  -182.8223898 Eh     change       -0.3688041E-06 Eh
 * total energy  :  -182.8223901 Eh     change       -0.3251099E-06 Eh
 * total energy  :  -182.8223904 Eh     change       -0.3519496E-06 Eh
 * total energy  :  -182.8223907 Eh     change       -0.2788882E-06 Eh
 * total energy  :  -182.8223909 Eh     change       -0.2005418E-06 Eh
 * total energy  :  -182.8223912 Eh     change       -0.2827717E-06 Eh
 * total energy  :  -182.8223912 Eh     change       -0.2863487E-08 Eh
   *** GEOMETRY OPTIMIZATION CONVERGED AFTER 94 ITERATIONS ***

 final structure:
================
125
 xtb: 6.7.1 (edcfbbe)
C           -2.03987817690200        5.15689566550736        0.15000974415664
C           -2.06437006952170        5.04333845330073       -1.37686321991369
C           -3.36731921820789        5.67975418273360       -1.88191203991991
C           -0.85850926758356        5.81486921215757       -1.93145339581225
C           -1.99720634163473        3.60215551185720       -1.85810833687662
C           -2.00292379508991        3.33859902807837       -3.22820295969255
C           -1.94532043604486        2.05210289261865       -3.73310461650732
C           -1.88526091752255        0.98973332724008       -2.84738844189548
C           -1.88511609316093        1.23944007006398       -1.47056270145503
C           -1.93398521837358        2.52485291761552       -0.97717724710683
C           -1.81569506371996       -0.05880570173287       -0.68918251594207
C           -3.06708049420760       -0.33404078464393        0.11893328904346
C           -3.03188273032254       -1.25549792978586        1.15651289257925
C           -4.17881252996940       -1.55720965952906        1.88329682099897
C           -4.11440194178591       -2.51411556650272        2.99466621325266
C           -5.12598893071393       -3.44464401815253        3.22503712455591
C           -5.01107780688004       -4.31983259009232        4.29050750589962
C           -3.88221160744723       -4.23837643886907        5.09214221779073
N           -2.91660172168320       -3.35787138464108        4.89066323037581
C           -3.03164902932561       -2.52265613080876        3.87693813918391
C           -5.37708841057843       -0.93381893819892        1.55261297001009
C           -5.43178662398380       -0.02120510560148        0.50543485150456
C           -6.69653806073064        0.63591457884931        0.15365157447926
C           -7.06082914351439        0.85472246451726       -1.17414811017227
C           -8.26561509436106        1.47536760042974       -1.45206562862648
C           -9.07277918731320        1.85603273577270       -0.39022383694127
N           -8.73835786076533        1.66331036028446        0.87434417050427
C           -7.58722200962476        1.07518733506479        1.13489023708688
C           -4.27169269784872        0.26975214763379       -0.20726042846704
C           -0.57156093580780       -0.03486114403895        0.17558744820069
C            0.63590692603583       -0.54819326339975       -0.30296932935052
C            1.79782724878801       -0.50297597716589        0.44342651835781
C            1.74688375591760        0.08825335904279        1.69641879014822
C            0.53233171864747        0.60886724027685        2.19656062782229
C           -0.62088945520748        0.55373636415027        1.42961016671527
C            0.80838091109540        1.09980142243935        3.51744805191042
C            0.03291925506454        1.72480383134797        4.48477897092077
C            0.63120888439785        2.09689612872892        5.67180904076738
C            1.98709798742542        1.86642440376638        5.89297639496236
C            2.77827305470881        1.24447674118135        4.94592871117994
C            2.17695573612303        0.84490479023790        3.76129253054389
N            2.73317129177676        0.23447872555914        2.65293567710274
C            4.06170032412391       -0.19177092642175        2.53905810898112
C            4.63453021487619       -0.96647866307916        3.54481665940150
C            5.94889503569186       -1.37933651775258        3.42934108881833
C            6.70116570478733       -1.03386546541414        2.32190671665389
C            6.12946090375644       -0.26889655183970        1.30807431042974
N            6.88667168618923        0.08727745559143        0.18549146564365
C            7.03598811402776        1.36494887557805       -0.31979263760603
C            6.51315356359744        2.56525077430086        0.13917525869113
C            6.84995025411408        3.71862750929729       -0.54339769328452
C            7.69286184923037        3.68881343312635       -1.65195547918797
C            8.23442504967190        2.50053663166536       -2.09946275023621
C            7.91047362222845        1.32792540718151       -1.42994924593198
C            8.29902132448784       -0.04433077906051       -1.59947556498674
C            9.11446405651133       -0.70034941087280       -2.51211440841788
C            9.26295531251792       -2.06844858388069       -2.40246685189424
C            8.59785722236484       -2.78361363530107       -1.40909329063982
C            7.78114213007598       -2.15325404669997       -0.48983692626075
C            7.64887332190123       -0.77501433236399       -0.57901659412503
C            4.80927860220922        0.15228083528399        1.41860985186434
C           -1.77043267373942       -1.07920606721742       -1.81144249044138
C           -1.71806360132424       -2.45231563809332       -1.70960591003871
C           -1.70553293175976       -3.23194394073625       -2.86408946107808
C           -1.64124222854498       -4.75091755536933       -2.81955077301955
C           -2.87636676497036       -5.32788453436430       -3.52575450533535
C           -0.36629916305010       -5.21902557367079       -3.53568041873933
C           -1.61308329042396       -5.29836242203735       -1.38968358005171
C           -1.75169880114863       -2.58685619930312       -4.10027909447302
C           -1.81243294976923       -1.20960555485617       -4.21249289715818
C           -1.82419674184412       -0.44557025041407       -3.05805583827087
H           -2.89577718670282        4.65362709529234        0.59435882325849
H           -1.12464271717845        4.73553754937297        0.55988138206186
H           -2.08374204589626        6.20614870037690        0.43535941046379
H           -3.44137254758252        6.70798149090485       -1.53407845019753
H           -3.41245604926177        5.68423343305428       -2.96748002013365
H           -4.22627953221658        5.12644744635883       -1.50694601987749
H           -0.87819867634352        6.84401503242410       -1.57891200305358
H           -0.86007211979382        5.82814056337557       -3.01778959870547
H            0.06814998452904        5.35257663738774       -1.59743698972838
H           -2.05253876560759        4.15900414723825       -3.92848927247908
H           -1.94862341899330        1.88371606485060       -4.80006619031928
H           -1.92575366777690        2.67626019745348        0.08932489530556
H           -2.10369651000850       -1.74830418664484        1.40478276881549
H           -5.98065800754088       -3.49134965005866        2.56470536434967
H           -5.77713616441468       -5.05307653631073        4.49117923247095
H           -3.74038847085784       -4.90441697097924        5.93300351100064
H           -2.22472532278505       -1.80865565759216        3.76817874963101
H           -6.27243153743958       -1.15941113123602        2.11294813580851
H           -6.41410638068379        0.52400845996414       -1.97474496766114
H           -8.57538823854665        1.65396460576668       -2.47036282726291
H          -10.02844455915134        2.33640749006234       -0.55350134461800
H           -7.35129886106415        0.96069681713058        2.18538730210519
H           -4.30723055975519        0.99265280802210       -1.00868091467229
H            0.66138260596192       -1.00035145311500       -1.28319589433534
H            2.71159494209942       -0.93009894222102        0.05886373013893
H           -1.54739712192300        0.94786443079254        1.82019713921960
H           -1.01443219411362        1.91695310612569        4.30611567958033
H            0.04630503496382        2.58161272767401        6.43906176242538
H            2.43136320413920        2.18341871902518        6.82492005886690
H            3.83173124115201        1.08610833196042        5.12145562576328
H            4.04233486885690       -1.25136357099540        4.40061887000513
H            6.39255497436850       -1.97623328939898        4.21194839726044
H            7.73330954742035       -1.33813893496553        2.24226317849580
H            5.87443869371424        2.60423505373393        1.00871193732419
H            6.45331313351269        4.66506587399804       -0.20657522837430
H            7.93058302493548        4.61203958300001       -2.15907863372428
H            8.90082842986892        2.47836012472599       -2.94848307559076
H            9.61647704378588       -0.14783857986700       -3.29195483805281
H            9.89504635358978       -2.59763132831152       -3.09992784019495
H            8.72038605939166       -3.85551866286711       -1.35804247192430
H            7.25607656558235       -2.71917174547812        0.26506183477007
H            4.36519633862734        0.74772462012284        0.63553631279733
H           -1.68288262618557       -2.90370733105154       -0.73201381446587
H           -3.78453026634264       -4.97858876526874       -3.03850950862817
H           -2.91357534473670       -5.02945545567231       -4.56968685817723
H           -2.85796900780954       -6.41495628457077       -3.48372007629327
H           -0.29362830883279       -6.30405068721710       -3.50069653946377
H            0.51261538139153       -4.79840351395044       -3.05128680601626
H           -0.36070265371147       -4.91121113044821       -4.57763140019272
H           -1.57331180475088       -6.38549692479932       -1.41919923770849
H           -0.73602458341447       -4.94600989669153       -0.85152871536599
H           -2.50756659928137       -5.01011741907304       -0.84167292709184
H           -1.74150779056610       -3.17209193877395       -5.00763475896707
H           -1.85001783252544       -0.74233025315935       -5.18560302923898

          :  Hamiltonian                  GFN2-xTB          :
         :: gradient norm              0.000040103566 Eh/a0 ::
         :: HOMO-LUMO gap              2.738177374616 eV    ::
         :: SCC energy              -186.174506505527 Eh    ::
         :: -> dispersion             -0.175015663241 Eh    ::
         :: repulsion energy           3.352115304345 Eh    ::

    * Orbital Energies and Occupations

         #    Occupation            Energy/Eh            Energy/eV
      -------------------------------------------------------------
         1        2.0000           -0.6778075             -18.4441
       ...           ...                  ...                  ...
       159        2.0000           -0.4051060             -11.0235
       160        2.0000           -0.4039859             -10.9930
       161        2.0000           -0.3974006             -10.8138
       162        2.0000           -0.3946636             -10.7393
       163        2.0000           -0.3925479             -10.6818
       164        2.0000           -0.3894892             -10.5985
       165        2.0000           -0.3785308             -10.3003
       166        2.0000           -0.3784938             -10.2993
       167        2.0000           -0.3695593             -10.0562
       168        2.0000           -0.3668798              -9.9833
       169        2.0000           -0.3655861              -9.9481
       170        2.0000           -0.3638800              -9.9017
       171        2.0000           -0.3616666              -9.8414 (HOMO)
       172                         -0.2610404              -7.1033 (LUMO)
       173                         -0.2533835              -6.8949
       174                         -0.2485727              -6.7640
       175                         -0.2466208              -6.7109
       176                         -0.2458269              -6.6893
       177                         -0.2447324              -6.6595
       178                         -0.2433893              -6.6230
       179                         -0.2391940              -6.5088
       180                         -0.2389351              -6.5018
       181                         -0.2244257              -6.1069
       182                         -0.2218756              -6.0375
       ...                                ...                  ...
       338                          0.7461236              20.3031
      -------------------------------------------------------------
                  HL-Gap            0.1006262 Eh            2.7382 eV

     #   Z          covCN         q      C6AA      α(0)
     1   6 C        3.761    -0.106    22.568     6.772
     2   6 C        3.903     0.026    20.085     6.370
     3   6 C        3.762    -0.104    22.535     6.767
     4   6 C        3.762    -0.105    22.548     6.769
     5   6 C        2.975     0.006    27.892     8.663
     6   6 C        2.928    -0.039    28.979     8.828
     7   6 C        2.913    -0.038    28.935     8.821
     8   6 C        3.036    -0.004    28.088     8.693
     9   6 C        3.057    -0.000    27.982     8.675
    10   6 C        2.919    -0.044    29.102     8.847
    11   6 C        3.949     0.008    20.376     6.414
    12   6 C        2.978     0.020    27.562     8.612
    13   6 C        2.930    -0.040    29.001     8.832
    14   6 C        2.974     0.006    27.874     8.660
    15   6 C        2.974     0.001    27.999     8.680
    16   6 C        2.933    -0.017    28.423     8.743
    17   6 C        2.912    -0.039    28.974     8.827
    18   6 C        2.914     0.057    26.714     8.475
    19   7 N        1.835    -0.219    26.625     7.647
    20   6 C        2.918     0.056    26.744     8.480
    21   6 C        2.929    -0.043    29.066     8.842
    22   6 C        2.974     0.006    27.881     8.661
    23   6 C        2.973     0.001    28.001     8.680
    24   6 C        2.934    -0.016    28.413     8.742
    25   6 C        2.912    -0.039    28.971     8.826
    26   6 C        2.914     0.057    26.717     8.476
    27   7 N        1.835    -0.220    26.635     7.648
    28   6 C        2.918     0.055    26.759     8.483
    29   6 C        2.929    -0.041    29.031     8.836
    30   6 C        2.978     0.006    27.880     8.661
    31   6 C        2.927    -0.039    28.973     8.827
    32   6 C        2.909    -0.052    29.288     8.874
    33   6 C        3.073     0.044    26.931     8.509
    34   6 C        3.068    -0.018    28.385     8.736
    35   6 C        2.917    -0.039    28.958     8.824
    36   6 C        3.068    -0.016    28.352     8.731
    37   6 C        2.913    -0.032    28.793     8.799
    38   6 C        2.920    -0.040    28.989     8.829
    39   6 C        2.924    -0.033    28.812     8.803
    40   6 C        2.910    -0.051    29.258     8.870
    41   6 C        3.076     0.047    26.868     8.499
    42   7 N        2.803    -0.044    22.086     6.980
    43   6 C        2.912     0.067    26.507     8.442
    44   6 C        2.922    -0.048    29.196     8.861
    45   6 C        2.919    -0.028    28.699     8.785
    46   6 C        2.922    -0.048    29.198     8.861
    47   6 C        2.912     0.067    26.507     8.442
    48   7 N        2.803    -0.044    22.095     6.981
    49   6 C        3.074     0.047    26.877     8.500
    50   6 C        2.910    -0.051    29.262     8.870
    51   6 C        2.924    -0.033    28.823     8.804
    52   6 C        2.920    -0.040    29.005     8.832
    53   6 C        2.913    -0.033    28.813     8.802
    54   6 C        3.068    -0.017    28.352     8.731
    55   6 C        3.067    -0.017    28.353     8.731
    56   6 C        2.913    -0.033    28.813     8.802
    57   6 C        2.920    -0.041    29.009     8.832
    58   6 C        2.924    -0.033    28.831     8.805
    59   6 C        2.910    -0.051    29.269     8.871
    60   6 C        3.075     0.047    26.879     8.500
    61   6 C        2.925    -0.058    29.451     8.900
    62   6 C        3.058    -0.000    27.971     8.673
    63   6 C        2.919    -0.045    29.106     8.847
    64   6 C        2.975     0.005    27.900     8.664
    65   6 C        3.903     0.026    20.085     6.370
    66   6 C        3.762    -0.105    22.544     6.768
    67   6 C        3.762    -0.105    22.543     6.768
    68   6 C        3.761    -0.105    22.559     6.771
    69   6 C        2.928    -0.039    28.979     8.828
    70   6 C        2.913    -0.038    28.935     8.821
    71   6 C        3.037    -0.004    28.080     8.692
    72   1 H        0.925     0.035     2.521     2.483
    73   1 H        0.925     0.036     2.502     2.474
    74   1 H        0.925     0.036     2.506     2.476
    75   1 H        0.925     0.037     2.488     2.467
    76   1 H        0.925     0.036     2.503     2.474
    77   1 H        0.925     0.032     2.556     2.500
    78   1 H        0.925     0.037     2.491     2.468
    79   1 H        0.925     0.036     2.499     2.472
    80   1 H        0.925     0.034     2.534     2.490
    81   1 H        0.926     0.028     2.611     2.527
    82   1 H        0.926     0.027     2.623     2.533
    83   1 H        0.926     0.036     2.504     2.474
    84   1 H        0.926     0.036     2.502     2.473
    85   1 H        0.926     0.035     2.523     2.484
    86   1 H        0.926     0.035     2.520     2.482
    87   1 H        0.925     0.038     2.481     2.463
    88   1 H        0.925     0.040     2.453     2.449
    89   1 H        0.926     0.033     2.545     2.495
    90   1 H        0.926     0.036     2.507     2.476
    91   1 H        0.926     0.035     2.519     2.482
    92   1 H        0.925     0.038     2.479     2.462
    93   1 H        0.925     0.038     2.473     2.459
    94   1 H        0.926     0.035     2.514     2.479
    95   1 H        0.926     0.033     2.551     2.497
    96   1 H        0.926     0.028     2.621     2.531
    97   1 H        0.926     0.031     2.579     2.511
    98   1 H        0.926     0.031     2.577     2.510
    99   1 H        0.926     0.029     2.595     2.519
   100   1 H        0.926     0.030     2.586     2.515
   101   1 H        0.926     0.027     2.626     2.534
   102   1 H        0.926     0.046     2.370     2.407
   103   1 H        0.926     0.042     2.427     2.436
   104   1 H        0.926     0.045     2.389     2.417
   105   1 H        0.926     0.027     2.633     2.537
   106   1 H        0.926     0.030     2.593     2.518
   107   1 H        0.926     0.029     2.607     2.525
   108   1 H        0.926     0.031     2.566     2.505
   109   1 H        0.926     0.031     2.568     2.506
   110   1 H        0.926     0.028     2.609     2.526
   111   1 H        0.926     0.029     2.597     2.520
   112   1 H        0.926     0.027     2.630     2.536
   113   1 H        0.926     0.050     2.319     2.381
   114   1 H        0.926     0.035     2.522     2.483
   115   1 H        0.925     0.033     2.550     2.497
   116   1 H        0.925     0.037     2.496     2.471
   117   1 H        0.925     0.037     2.493     2.469
   118   1 H        0.925     0.037     2.491     2.468
   119   1 H        0.925     0.033     2.539     2.492
   120   1 H        0.925     0.037     2.495     2.470
   121   1 H        0.925     0.036     2.509     2.477
   122   1 H        0.925     0.035     2.511     2.478
   123   1 H        0.925     0.034     2.532     2.489
   124   1 H        0.926     0.028     2.610     2.526
   125   1 H        0.926     0.028     2.617     2.530

molecular dipole:
                 x           y           z       tot (Debye)
 q only:        0.354      -0.308      -0.226
   full:        0.296      -0.495      -0.705       2.316

 projected vibrational frequencies (cm⁻¹)
eigval :       -0.00    -0.00    -0.00     0.00     0.00     0.00
eigval :        5.49     9.11     9.31    13.69    15.53    18.78
eigval :       20.43    23.13    24.65    27.31    31.80    42.82
eigval :       43.72    48.40    49.27    58.52    60.28    69.80
eigval :       72.53    76.12    76.27    84.27   100.48   104.04
eigval :      115.24   117.74   128.66   138.03   142.08   152.07
eigval :      157.98   170.47   179.80   185.54   187.76   190.48
eigval :      201.91   207.06   215.52   218.46   221.13   223.60
eigval :      226.22   232.22   239.67   253.08   265.73   268.89
eigval :      271.20   272.72   277.90   281.30   288.34   304.22
eigval :      307.56   320.13   323.92   328.55   332.94   343.04
eigval :      345.95   348.39   353.37   363.86   366.01   370.51
eigval :      372.40   384.53   386.90   395.53   398.35   399.55
eigval :      416.98   420.26   423.61   429.12   434.00   437.16
eigval :      440.89   441.79   448.78   461.75   464.65   468.03
eigval :      482.44   513.79   519.76   525.03   530.53   534.12
eigval :      536.34   541.12   541.61   544.11   556.06   572.34
eigval :      582.91   585.85   588.64   590.97   597.31   604.76
eigval :      605.31   611.49   615.79   617.08   631.20   634.40
eigval :      635.14   640.45   648.63   671.81   675.63   676.32
eigval :      678.59   682.65   691.82   692.32   695.99   708.00
eigval :      708.66   711.97   722.19   730.31   749.26   755.62
eigval :      762.46   769.41   775.28   780.56   780.80   784.12
eigval :      789.59   805.40   818.56   822.12   825.05   834.30
eigval :      839.18   843.17   868.75   870.72   872.08   874.22
eigval :      877.22   878.04   887.32   889.66   892.47   895.14
eigval :      897.87   900.06   900.27   903.46   904.43   905.20
eigval :      906.66   908.71   909.53   911.69   914.78   915.67
eigval :      916.16   917.38   918.93   921.69   923.98   924.15
eigval :      930.41   930.72   933.48   955.49   960.59   960.73
eigval :      960.97   962.90   963.29   963.62   969.62   977.30
eigval :      997.45  1000.31  1005.75  1009.47  1012.91  1016.42
eigval :     1019.57  1034.67  1035.43  1035.59  1035.99  1038.16
eigval :     1070.68  1072.50  1074.10  1095.29  1096.47  1104.92
eigval :     1113.41  1120.50  1124.84  1127.46  1128.17  1131.68
eigval :     1139.48  1140.94  1142.22  1152.64  1158.03  1170.11
eigval :     1176.69  1178.01  1178.90  1181.32  1181.96  1189.63
eigval :     1194.06  1197.76  1198.71  1201.36  1210.74  1215.31
eigval :     1227.53  1227.64  1231.70  1232.50  1235.35  1237.42
eigval :     1241.52  1245.38  1249.11  1250.93  1252.75  1255.79
eigval :     1260.22  1268.52  1270.84  1280.81  1281.75  1281.97
eigval :     1286.90  1294.20  1300.18  1302.69  1307.91  1310.72
eigval :     1318.38  1321.15  1324.48  1338.73  1345.95  1354.47
eigval :     1358.39  1360.36  1363.39  1367.18  1378.55  1388.87
eigval :     1400.85  1403.96  1405.16  1406.05  1406.22  1416.74
eigval :     1418.96  1422.25  1425.65  1426.59  1428.67  1429.82
eigval :     1429.97  1435.54  1438.44  1455.85  1464.94  1466.79
eigval :     1469.93  1473.65  1476.83  1479.74  1483.07  1486.14
eigval :     1488.33  1492.39  1492.50  1494.68  1494.76  1501.75
eigval :     1502.30  1505.66  1505.80  1515.54  1515.59  1520.90
eigval :     1521.12  1562.10  1562.68  1568.98  1571.43  1572.84
eigval :     1573.79  1576.82  1577.51  1581.18  1584.73  1585.01
eigval :     1587.71  1589.70  1590.73  1599.65  1600.59  1604.04
eigval :     1609.19  1615.32  1617.35  3021.17  3021.36  3023.17
eigval :     3023.44  3025.44  3025.60  3029.55  3029.92  3030.46
eigval :     3030.60  3034.16  3034.39  3037.43  3037.68  3046.26
eigval :     3046.76  3049.75  3050.12  3050.32  3052.09  3059.60
eigval :     3060.14  3068.36  3069.53  3073.82  3076.33  3076.36
eigval :     3076.91  3077.49  3081.19  3081.33  3082.55  3083.14
eigval :     3083.91  3085.55  3086.54  3087.36  3088.32  3088.74
eigval :     3088.88  3089.23  3090.07  3090.66  3091.13  3091.45
eigval :     3095.39  3095.54  3096.98  3097.38  3100.79  3101.27
eigval :     3105.52  3117.82  3119.48

   temp. (K)  partition function   enthalpy   heat capacity  entropy
                                   cal/mol     cal/K/mol   cal/K/mol   J/K/mol
 298.15  VIB  0.585E+30            36183.238    223.104    227.219
         ROT  0.241E+09              888.752      2.981     41.339
         INT  0.141E+39            37071.991    226.085    268.558
         TR   0.268E+29             1481.254      4.968     46.296
         TOT                       38553.2446   231.0533   314.8539  1317.3489

       T/K    H(0)-H(T)+PV         H(T)/Eh          T*S/Eh         G(T)/Eh
   ------------------------------------------------------------------------
    298.15    0.614385E-01    0.105916E+01    0.149597E+00    0.909564E+00
   ------------------------------------------------------------------------

         :::::::::::::::::::::::::::::::::::::::::::::::::::::
         ::                  THERMODYNAMIC                  ::
         :::::::::::::::::::::::::::::::::::::::::::::::::::::
         :: total free energy        -181.912826891512 Eh   ::
         ::.................................................::
         :: total energy             -182.822391201183 Eh   ::
         :: zero point energy           0.997723074096 Eh   ::
         :: G(RRHO) w/o ZPVE           -0.088158764425 Eh   ::
         :: G(RRHO) contrib.            0.909564309671 Eh   ::
         :::::::::::::::::::::::::::::::::::::::::::::::::::::

           -------------------------------------------------
          | TOTAL ENERGY             -182.822391201183 Eh   |
          | TOTAL ENTHALPY           -181.763229621055 Eh   |
          | TOTAL FREE ENERGY        -181.912826891512 Eh   |
          | GRADIENT NORM               0.000040102786 Eh/α |
          | HOMO-LUMO GAP               2.738177467379 eV   |
           -------------------------------------------------

 * finished run on 2025/08/24 at 19:42:04.240
