   * xtb version 6.7.1 (edcfbbe) compiled by 'albert@albert-system' on 2024-07-22

   ID    Z sym.   atoms
    1    6 C      1-18, 20-26, 28-41, 43-47, 49-71
    2    7 N      19, 27, 42, 48
    3    1 H      72-125

          program call               : xtb data2507/gas/mCP-BmPy/mCP-BmPy_gas_S0_finalOpt.xtbopt.xyz --gfn 2 --spinpol --tblite --uhf 2 --ohess vtight --parallel 40 --molden --ceasefiles --namespace data2507/gas/mCP-BmPy/mCP-BmPy_gas_T1_preOpt
 * total energy  :  -182.7153410 Eh     change        0.4136541E-07 Eh
 * total energy  :  -182.7169979 Eh     change       -0.1656933E-02 Eh
 * total energy  :  -182.7178092 Eh     change       -0.8113075E-03 Eh
 * total energy  :  -182.7181774 Eh     change       -0.3681334E-03 Eh
 * total energy  :  -182.7186860 Eh     change       -0.5086645E-03 Eh
 * total energy  :  -182.7189731 Eh     change       -0.2871093E-03 Eh
 * total energy  :  -182.7193327 Eh     change       -0.3596019E-03 Eh
 * total energy  :  -182.7194726 Eh     change       -0.1398466E-03 Eh
 * total energy  :  -182.7196382 Eh     change       -0.1656452E-03 Eh
 * total energy  :  -182.7197889 Eh     change       -0.1507032E-03 Eh
 * total energy  :  -182.7208842 Eh     change       -0.2834116E-06 Eh
 * total energy  :  -182.7208847 Eh     change       -0.5160880E-06 Eh
 * total energy  :  -182.7208850 Eh     change       -0.3342963E-06 Eh
 * total energy  :  -182.7208852 Eh     change       -0.2156430E-06 Eh
 * total energy  :  -182.7208854 Eh     change       -0.1423476E-06 Eh
 * total energy  :  -182.7208855 Eh     change       -0.1181409E-06 Eh
 * total energy  :  -182.7208858 Eh     change       -0.3288913E-06 Eh
 * total energy  :  -182.7208859 Eh     change       -0.4073851E-07 Eh
 * total energy  :  -182.7208859 Eh     change       -0.6773195E-07 Eh
   *** GEOMETRY OPTIMIZATION CONVERGED AFTER 56 ITERATIONS ***

 final structure:
================
125
 xtb: 6.7.1 (edcfbbe)
C           -1.81420674786594        4.21695886335561       -3.49350808295671
C           -2.56798896392079        3.38620732958239       -4.53588397847390
C           -3.84958249419721        4.14336009354112       -4.91184855322785
C           -1.66831126151352        3.24010895277205       -5.77157039557538
C           -2.94022107763886        2.00269339517231       -4.02526157545833
C           -3.63978539479991        1.13262761273121       -4.86207825778866
C           -4.01281421737634       -0.13673534677457       -4.45953235472306
C           -3.67779335412097       -0.55805087678480       -3.18402330147202
C           -2.96937894639941        0.30149518764464       -2.33555848375151
C           -2.60696237667080        1.56647574148341       -2.74480992230987
C           -2.72353750446921       -0.35486269078143       -0.99122751713016
C           -3.39744933347376        0.47722638140795        0.08341727862350
C           -4.66130473627250        0.18410304347386        0.51770088710885
C           -5.31664235026656        0.97098239056064        1.52394098565568
C           -6.63030408306013        0.68551792978765        1.94114741147726
C           -7.45139858863327        1.57675040154017        2.72249002417449
C           -8.67720158443537        1.19708342752265        3.17713992459075
C           -9.18358460829770       -0.06918597518019        2.82242848965573
N           -8.40178436877365       -0.91993385742270        2.16238406432384
C           -7.22316814445378       -0.61092075439073        1.74421213431760
C           -4.57766420953465        2.06180711589007        2.06173227260252
C           -3.31489986725576        2.36808711467245        1.61861305145571
C           -2.57065929997823        3.48333543820602        2.20347134000012
C           -3.18655395996754        4.68656298716145        2.55577572137320
C           -2.43432285352293        5.70196657132061        3.11562766245631
C           -1.07468816123156        5.49289966632084        3.29812264160523
N           -0.48044800670157        4.35650236049671        2.97592009842497
C           -1.19653557798845        3.38552151088503        2.45155192962356
C           -2.70905578970228        1.57784316021067        0.61449383512225
C           -1.25974259379124       -0.58444278386856       -0.67886117807242
C           -0.31579768232142       -0.64644638556861       -1.70646852066277
C            1.01941157023239       -0.90227099870450       -1.45985625327339
C            1.41130270722097       -1.11678876964255       -0.14676817517962
C            0.47146559300866       -1.04530259437532        0.90575037733333
C           -0.86331373802555       -0.79103794856017        0.63500134744343
C            1.20288744918873       -1.26111764172259        2.12357669321707
C            0.83276758086129       -1.31775198325948        3.45980514798937
C            1.80741426826704       -1.57255561018281        4.40482263646142
C            3.13130926652997       -1.78436847379416        4.02846905894149
C            3.52376150383225       -1.73037313255748        2.70406153040815
C            2.55422394383925       -1.44853961063430        1.75260033312276
N            2.66610048216990       -1.35927512680310        0.37764794391117
C            3.84632332997131       -1.49999126503833       -0.36103958351352
C            3.88828299685341       -2.35601481193025       -1.45906265348669
C            5.05951474257643       -2.48670363379857       -2.18218250580036
C            6.19253629891585       -1.77963496713425       -1.82425133656851
C            6.15865541111549       -0.93038750183941       -0.72044418590041
N            7.30010585183510       -0.21157687157493       -0.34861863585380
C            8.56762194420620       -0.73821691140424       -0.18727625042866
C            8.99775540938181       -2.05364877189139       -0.28467268341466
C           10.33306256599395       -2.31533927704599       -0.04326417249879
C           11.22362985117778       -1.29980097855352        0.29691365581761
C           10.79581276810056        0.00700589729760        0.42121505264231
C            9.45847344328183        0.29465225538875        0.18349331127214
C            8.68296298323322        1.50243643290229        0.24080011930909
C            8.99711142271587        2.82452263987834        0.52603275406948
C            7.99249059258810        3.76978454899417        0.46982355540052
C            6.69270954409681        3.41296671987441        0.11888025870507
C            6.35619281327041        2.10407908873639       -0.16998009677772
C            7.35596697425376        1.14553653217609       -0.09024286856340
C            4.98313815222301       -0.79025055178747        0.00831815279948
C           -3.37942397216883       -1.70657308084943       -1.19599642404812
C           -3.47710226044548       -2.74869028689418       -0.30505606662700
C           -4.14307999352510       -3.92101579404932       -0.66975299046488
C           -4.26520773518961       -5.03935959968820        0.35338266130726
C           -2.85996943459845       -5.47552478584457        0.79220367802531
C           -5.05106358220922       -4.51550191914181        1.56473302386699
C           -4.99577996772532       -6.26900078019095       -0.19271265177603
C           -4.68064225719499       -4.00541941025213       -1.95071477002207
C           -4.57715147792667       -2.96401596085371       -2.85990423909249
C           -3.92616364898159       -1.80383964415842       -2.48236201017028
H           -2.41855765263074        4.36856868865519       -2.60188171832546
H           -0.87804119180468        3.73943052828653       -3.21298900964274
H           -1.57966827386899        5.19451786455284       -3.91041933998246
H           -3.60492907648322        5.14542863685259       -5.25822153058726
H           -4.39476919000924        3.63466584192371       -5.70195368725411
H           -4.50320354510030        4.22659670176224       -4.04592149480348
H           -1.37978247403679        4.22118699091343       -6.14321026883919
H           -2.17630787397345        2.70936641221886       -6.57197901163595
H           -0.76560688127057        2.68878062139078       -5.51593069097973
H           -3.90606189882882        1.45027760544244       -5.85916428065136
H           -4.55648743028245       -0.78494854027458       -5.13103704379275
H           -2.06632258858795        2.20239613701991       -2.06420168002096
H           -5.18639240171296       -0.65380985678518        0.08899478203864
H           -7.10761777895485        2.58426784835480        2.89711866253444
H           -9.30540574110318        1.87527251168432        3.73451423048718
H          -10.19360223671220       -0.37728061625635        3.03179536432908
H           -6.63561646668812       -1.41839005026921        1.33204691893683
H           -5.00827374867013        2.64136648578528        2.86382951665969
H           -4.24217571601008        4.82498201806367        2.36923414576624
H           -2.88655160098351        6.64210859604459        3.39228891167176
H           -0.43431498986778        6.25880687801601        3.71398625552822
H           -0.65775753661006        2.47183036984082        2.23649899254340
H           -1.71532901154435        1.81785110104322        0.27347989850884
H           -0.63855359889544       -0.48274849686564       -2.72380519465334
H            1.73279833559402       -0.92134332054828       -2.26983540656761
H           -1.57837405849470       -0.73694103713560        1.44213878596990
H           -0.19653776063080       -1.16825344414645        3.74913186154344
H            1.54201784142033       -1.61814054888266        5.45033833225589
H            3.86881357610245       -1.99812984192848        4.78772511436837
H            4.54992917126732       -1.91482312941425        2.42431831737481
H            3.01077444492446       -2.92378754385509       -1.72694659165702
H            5.08948718543378       -3.14755117840671       -3.03540934714838
H            7.09946715408843       -1.86695379125745       -2.40213953213395
H            8.31263643083450       -2.85151822232847       -0.52907965686830
H           10.69288557742560       -3.33104872080905       -0.11644871482000
H           12.26014568568470       -1.54471834557361        0.47466086086600
H           11.48187911760228        0.79178875734783        0.70185664081159
H           10.00839174193547        3.10265903559213        0.78155161664904
H            8.21451455147111        4.80304531049851        0.69110009949336
H            5.93029361694439        4.17606641345279        0.06827243785587
H            5.34932275618221        1.84436944917555       -0.45996882862386
H            4.95278746693972       -0.12896707980775        0.86065056867290
H           -3.04575542709091       -2.64487398348314        0.67900853819488
H           -2.31314231052557       -4.65757090105082        1.25303432033137
H           -2.92824733264618       -6.28756804610713        1.51318455482212
H           -2.28994836809605       -5.82356355405121       -0.06698536522975
H           -5.15289840361713       -5.29860508072853        2.31311608814992
H           -6.04753524430504       -4.20123163596556        1.25985766683116
H           -4.55126848371618       -3.66778108839420        2.02592297786341
H           -4.47042908290667       -6.68877828233187       -1.04761219468036
H           -5.04443105096567       -7.03355776565829        0.58019518854759
H           -6.01426392173584       -6.02314962454401       -0.48421846989489
H           -5.19832491280432       -4.89778263327588       -2.26271306254063
H           -5.00625666582388       -3.06094146916989       -3.84642509774552

 projected vibrational frequencies (cm⁻¹)
eigval :       -0.00    -0.00    -0.00     0.00     0.00     0.00
eigval :        5.49     7.73    10.37    13.44    16.61    20.20
eigval :       21.77    22.87    26.06    26.62    34.09    42.84
eigval :       45.26    47.07    50.38    58.31    60.66    69.64
eigval :       75.99    79.17    82.03    85.27    93.70    98.96
eigval :      107.29   117.05   125.20   133.54   142.92   148.04
eigval :      155.44   169.82   176.05   180.70   184.33   188.84
eigval :      199.97   201.34   212.27   217.37   222.00   223.74
eigval :      234.27   239.13   242.26   247.68   252.21   261.74
eigval :      269.01   271.76   276.71   278.69   282.15   304.12
eigval :      320.06   320.25   323.00   327.09   330.50   334.71
eigval :      340.64   346.12   356.80   367.41   369.11   373.05
eigval :      374.66   383.71   386.13   394.17   395.51   397.84
eigval :      412.70   418.15   423.61   428.38   433.15   436.35
eigval :      439.33   440.46   445.12   449.61   461.41   465.78
eigval :      480.02   508.98   513.61   518.40   521.25   530.59
eigval :      534.81   538.12   541.02   541.63   543.05   547.69
eigval :      551.94   566.10   572.21   575.58   580.02   586.32
eigval :      593.07   604.58   608.55   612.59   615.60   617.96
eigval :      629.74   631.08   632.04   634.41   646.68   661.68
eigval :      671.83   675.77   676.75   680.53   683.36   693.16
eigval :      705.27   708.18   709.93   717.87   729.28   739.29
eigval :      749.91   750.80   762.30   765.05   769.72   774.98
eigval :      779.62   781.04   782.51   792.86   801.95   804.32
eigval :      811.76   819.62   820.84   824.79   830.41   832.73
eigval :      867.27   871.09   871.81   872.07   873.56   876.08
eigval :      882.75   888.53   889.98   894.26   894.84   897.92
eigval :      899.36   900.04   904.00   905.46   906.55   907.88
eigval :      911.06   911.35   914.12   916.05   917.75   922.83
eigval :      922.98   923.87   925.79   933.34   938.64   960.05
eigval :      960.39   961.01   962.53   962.94   963.11   964.04
eigval :      967.23   975.28   993.53   997.21  1009.68  1015.41
eigval :     1017.79  1032.17  1034.55  1035.23  1035.75  1037.62
eigval :     1053.84  1057.76  1071.01  1072.60  1074.31  1094.37
eigval :     1099.55  1105.72  1113.95  1118.36  1122.28  1126.82
eigval :     1127.23  1131.11  1136.10  1139.50  1152.37  1154.67
eigval :     1169.93  1175.79  1177.41  1178.22  1180.39  1181.12
eigval :     1182.91  1189.56  1192.51  1194.51  1200.36  1206.30
eigval :     1212.43  1214.36  1226.43  1227.23  1231.60  1234.18
eigval :     1234.68  1236.28  1236.81  1240.42  1243.68  1250.92
eigval :     1254.21  1258.26  1265.18  1274.77  1281.76  1282.98
eigval :     1283.59  1289.12  1291.06  1298.75  1302.30  1304.58
eigval :     1306.22  1309.63  1318.75  1324.86  1327.64  1340.11
eigval :     1344.79  1351.38  1355.84  1357.58  1358.26  1361.25
eigval :     1370.13  1374.08  1393.57  1402.13  1404.13  1405.40
eigval :     1405.98  1413.57  1415.11  1418.31  1421.83  1424.99
eigval :     1427.90  1428.48  1428.72  1434.86  1444.57  1452.97
eigval :     1461.34  1467.45  1474.08  1475.96  1477.77  1479.48
eigval :     1483.68  1487.94  1490.11  1492.07  1492.71  1494.42
eigval :     1495.33  1501.53  1501.68  1505.30  1506.48  1511.45
eigval :     1514.79  1515.25  1520.18  1520.85  1527.48  1538.95
eigval :     1565.40  1570.38  1575.31  1575.73  1578.77  1584.14
eigval :     1586.68  1589.19  1591.04  1592.89  1598.66  1599.74
eigval :     1607.14  1609.38  1613.30  3020.39  3021.41  3022.18
eigval :     3022.55  3025.38  3025.63  3028.01  3029.20  3030.16
eigval :     3030.27  3034.22  3034.72  3036.85  3038.05  3043.60
eigval :     3046.44  3048.53  3049.82  3055.53  3063.08  3063.36
eigval :     3069.09  3074.36  3075.84  3077.07  3078.67  3078.69
eigval :     3079.42  3082.12  3083.01  3083.51  3083.62  3086.07
eigval :     3086.34  3086.87  3087.73  3088.60  3088.98  3089.62
eigval :     3091.00  3091.08  3092.51  3095.40  3096.11  3097.65
eigval :     3098.07  3101.36  3102.76  3103.48  3105.81  3106.97
eigval :     3107.87  3113.57  3121.75

   temp. (K)  partition function   enthalpy   heat capacity  entropy
                                   cal/mol     cal/K/mol   cal/K/mol   J/K/mol
 298.15  VIB  0.708E+30            36578.930    226.245    229.347
         ROT  0.258E+09              888.752      2.981     41.472
         INT  0.183E+39            37467.682    229.226    270.819
         TR   0.268E+29             1481.254      4.968     46.296
         TOT                       38948.9358   234.1941   317.1153  1326.8105

       T/K    H(0)-H(T)+PV         H(T)/Eh          T*S/Eh         G(T)/Eh
   ------------------------------------------------------------------------
    298.15    0.620691E-01    0.105397E+01    0.150672E+00    0.903300E+00
   ------------------------------------------------------------------------

         :::::::::::::::::::::::::::::::::::::::::::::::::::::
         ::                  THERMODYNAMIC                  ::
         :::::::::::::::::::::::::::::::::::::::::::::::::::::
         :: total free energy        -181.817585892427 Eh   ::
         ::.................................................::
         :: total energy             -182.720886040682 Eh   ::
         :: zero point energy           0.991902786638 Eh   ::
         :: G(RRHO) w/o ZPVE           -0.088602638382 Eh   ::
         :: G(RRHO) contrib.            0.903300148256 Eh   ::
         :::::::::::::::::::::::::::::::::::::::::::::::::::::

           -------------------------------------------------
          | TOTAL ENERGY             -182.720886040682 Eh   |
          | TOTAL ENTHALPY           -181.666914173936 Eh   |
          | TOTAL FREE ENERGY        -181.817585892427 Eh   |
          | GRADIENT NORM               0.000156231380 Eh/α |
           -------------------------------------------------

 * finished run on 2025/08/24 at 19:56:19.837
