   * xtb version 6.7.1 (edcfbbe) compiled by 'albert@albert-system' on 2024-07-22

   ID    Z sym.   atoms
    1   17 Cl     1, 33
    2    6 C      2, 3, 5-16, 18, 20-32, 34, 36-47
    3    7 N      4, 17, 19, 35
    4    1 H      48-71

          program call               : xtb data2507/gas/2,4,6-CzPyCl2/2,4,6-CzPyCl2_gas_S0_crest.xyz --gfn 2 --ohess vtight --parallel 40 --molden --ceasefiles --namespace data2507/gas/2,4,6-CzPyCl2/2,4,6-CzPyCl2_gas_S0_finalOpt
          :  Hamiltonian                  GFN2-xTB          :
 * total energy  :  -120.9586127 Eh     change       -0.5944528E-08 Eh
 * total energy  :  -120.9586133 Eh     change       -0.5954965E-06 Eh
 * total energy  :  -120.9586141 Eh     change       -0.7473917E-06 Eh
 * total energy  :  -120.9586152 Eh     change       -0.1108719E-05 Eh
 * total energy  :  -120.9586159 Eh     change       -0.7409721E-06 Eh
 * total energy  :  -120.9586164 Eh     change       -0.4667702E-06 Eh
 * total energy  :  -120.9586169 Eh     change       -0.4702783E-06 Eh
 * total energy  :  -120.9586174 Eh     change       -0.5443131E-06 Eh
 * total energy  :  -120.9586179 Eh     change       -0.5130475E-06 Eh
 * total energy  :  -120.9586184 Eh     change       -0.4579242E-06 Eh
 * total energy  :  -120.9586188 Eh     change       -0.4359829E-06 Eh
 * total energy  :  -120.9586192 Eh     change       -0.4167848E-06 Eh
 * total energy  :  -120.9586195 Eh     change       -0.2860011E-06 Eh
 * total energy  :  -120.9586197 Eh     change       -0.1670833E-06 Eh
 * total energy  :  -120.9586198 Eh     change       -0.1143980E-06 Eh
 * total energy  :  -120.9586199 Eh     change       -0.1047381E-06 Eh
 * total energy  :  -120.9586200 Eh     change       -0.9183154E-07 Eh
   *** GEOMETRY OPTIMIZATION CONVERGED AFTER 17 ITERATIONS ***

 final structure:
================
71
 xtb: 6.7.1 (edcfbbe)
Cl          -1.50414892401615       -2.55335552936746       -0.86057444583028
C           -0.64399604351085       -1.16601727072248       -0.28497731006178
C            0.75540150074204       -1.14712077216471       -0.18570688789549
N            1.53236027731557       -2.27777866785682       -0.34577375782343
C            2.68928816332791       -2.34176849858578       -1.11619276837935
C            3.33024292243375       -1.34203468789658       -1.82753711832380
C            4.45517799694981       -1.69051471900790       -2.55278258644217
C            4.92996135490382       -2.99903685942598       -2.57502298342185
C            4.29059010948977       -3.99874729942286       -1.86830928405833
C            3.16136163023458       -3.67062486592342       -1.13047684397901
C            2.27960335154446       -4.43348410421997       -0.28737132177196
C            2.26999155682377       -5.75978410328883        0.12080517143179
C            1.30029990171429       -6.16992703274698        1.01510980884776
C            0.37119762908399       -5.26732248066837        1.52302334160081
C            0.36314676787197       -3.94175262830862        1.12879361767820
C            1.29911789870556       -3.53698966021508        0.19041896433203
N            1.40653037948301       -0.00963043567241        0.00197512173962
C            0.76944455930214        1.13575051656737        0.18989343450969
N            1.56016245654484        2.25698888971825        0.34892762810829
C            1.34203674038111        3.51845441314610       -0.18834049803972
C            0.41031184716835        3.93383262388778       -1.12629733311115
C            0.43452025843900        5.25874988335830       -1.52204612424883
C            1.37526970890939        6.15027178517093       -1.01599919457499
C            2.34054349869269        5.72908394415391       -0.12204936382641
C            2.33398390992041        4.40322866697057        0.28764228415509
C            3.20694720035474        3.63038589757719        1.13079878376819
C            4.34075659560858        3.94528058630957        1.86737533656331
C            4.96835376778104        2.93844682370440        2.57452713773966
C            4.47747892246023        1.63584743975379        2.55392740203209
C            3.34768677826616        1.30056390655003        1.82999567842832
C            2.71847666707712        2.30744537622436        1.11825556728381
C           -0.62953964067039        1.17175093961681        0.28974611967043
Cl          -1.47235480158197        2.56964115653799        0.86545568835058
C           -1.35052408889419        0.00725434932805        0.00239597997467
N           -2.74096422891991        0.01609465400871        0.00198164252413
C           -3.55552734775759       -0.77445236646485        0.79332485984402
C           -3.20808994445422       -1.68578911025632        1.77664390651928
C           -4.23077562814409       -2.33165597962041        2.44557014820422
C           -5.56668868891314       -2.06690059744479        2.15588804316048
C           -5.91667648934988       -1.13510067554761        1.19831298428349
C           -4.90618000275894       -0.47714667397401        0.51032080468205
C           -4.89899877242011        0.53955260553379       -0.50679388675313
C           -5.90002166924755        1.21156163977481       -1.19507167954374
C           -5.53679705161305        2.13813419521779       -2.15278933215672
C           -4.19724957084259        2.38390639701988       -2.44241934369969
C           -3.18389894482896        1.72385642561825       -1.77316424432659
C           -3.54428852272948        0.81785482768707       -0.78958322804436
H            2.97057945784451       -0.32626963974032       -1.80299678182342
H            4.97791217114374       -0.92920337970964       -3.11233357905805
H            5.81196179039618       -3.23167924377122       -3.15292982667783
H            4.65663232456871       -5.01403016223865       -1.88618259374918
H            3.01361728759113       -6.44995023350709       -0.24742666314202
H            1.27208320268727       -7.19830237769484        1.34274703133279
H           -0.35559534003458       -5.60540715308958        2.24651147865681
H           -0.34345333795011       -3.24896952106268        1.55720096559968
H           -0.30528552243906        3.24947043127123       -1.55328313425816
H           -0.28867104609897        5.60503144222140       -2.24526649088555
H            1.35963943587491        7.17852939109983       -1.34484961337157
H            3.09308589453230        6.41032788513485        0.24468853460638
H            4.71930954613294        4.95598771486419        1.88395156499103
H            5.85363657618151        3.16077302761614        3.15148679432584
H            4.99128166158493        0.86870285683229        3.11377924188683
H            2.97549254796417        0.28929111256788        1.80673028383256
H           -2.17460626638604       -1.87816030820340        2.02193672494311
H           -3.98805587210204       -3.05285061733948        3.21179415922234
H           -6.33776387457083       -2.59288040296524        2.69866739437798
H           -6.95273581672311       -0.91656906596657        0.98873371230346
H           -6.93909196579118        1.00770209182903       -0.98563545961250
H           -6.30029565914163        2.67483192984508       -2.69578591609813
H           -3.94425892122906        3.10132708532826       -3.20886192600226
H           -2.14776153671296        1.90136871084515       -2.01847472421954

          :  Hamiltonian                  GFN2-xTB          :
         :: gradient norm              0.000032195238 Eh/a0 ::
         :: HOMO-LUMO gap              2.532155415263 eV    ::
         :: SCC energy              -123.038333661015 Eh    ::
         :: -> dispersion             -0.114570753811 Eh    ::
         :: repulsion energy           2.079713656724 Eh    ::

    * Orbital Energies and Occupations

         #    Occupation            Energy/Eh            Energy/eV
      -------------------------------------------------------------
         1        2.0000           -1.0714146             -29.1547
       ...           ...                  ...                  ...
        99        2.0000           -0.4223445             -11.4926
       100        2.0000           -0.4208548             -11.4520
       101        2.0000           -0.4147334             -11.2855
       102        2.0000           -0.4096024             -11.1458
       103        2.0000           -0.4093873             -11.1400
       104        2.0000           -0.4092877             -11.1373
       105        2.0000           -0.4045753             -11.0091
       106        2.0000           -0.3840057             -10.4493
       107        2.0000           -0.3839601             -10.4481
       108        2.0000           -0.3839156             -10.4469
       109        2.0000           -0.3757205             -10.2239
       110        2.0000           -0.3733458             -10.1593
       111        2.0000           -0.3716852             -10.1141 (HOMO)
       112                         -0.2786303              -7.5819 (LUMO)
       113                         -0.2711606              -7.3787
       114                         -0.2501061              -6.8057
       115                         -0.2486149              -6.7652
       116                         -0.2476264              -6.7383
       117                         -0.2267843              -6.1711
       118                         -0.2266324              -6.1670
       119                         -0.2266259              -6.1668
       120                         -0.2080753              -5.6620
       121                         -0.1969898              -5.3604
       122                         -0.1965470              -5.3483
       ...                                ...                  ...
       222                          0.7419967              20.1908
      -------------------------------------------------------------
                  HL-Gap            0.0930550 Eh            2.5322 eV

     #   Z          covCN         q      C6AA      α(0)
     1  17 Cl       0.949    -0.138   103.472    15.562
     2   6 C        2.883     0.043    27.029     8.523
     3   6 C        2.898     0.141    24.923     8.185
     4   7 N        2.806    -0.028    21.791     6.933
     5   6 C        3.067     0.052    26.762     8.483
     6   6 C        2.910    -0.044    29.085     8.843
     7   6 C        2.925    -0.030    28.759     8.794
     8   6 C        2.920    -0.037    28.930     8.820
     9   6 C        2.913    -0.032    28.791     8.799
    10   6 C        3.065    -0.012    28.236     8.713
    11   6 C        3.066    -0.011    28.219     8.711
    12   6 C        2.913    -0.031    28.777     8.797
    13   6 C        2.920    -0.037    28.932     8.821
    14   6 C        2.924    -0.031    28.770     8.796
    15   6 C        2.911    -0.043    29.064     8.840
    16   6 C        3.063     0.049    26.843     8.496
    17   7 N        1.862    -0.252    27.409     7.760
    18   6 C        2.898     0.141    24.922     8.185
    19   7 N        2.806    -0.028    21.791     6.933
    20   6 C        3.063     0.049    26.843     8.496
    21   6 C        2.911    -0.043    29.064     8.840
    22   6 C        2.924    -0.031    28.770     8.796
    23   6 C        2.920    -0.037    28.932     8.821
    24   6 C        2.913    -0.031    28.777     8.797
    25   6 C        3.066    -0.011    28.219     8.711
    26   6 C        3.066    -0.012    28.236     8.713
    27   6 C        2.913    -0.032    28.791     8.799
    28   6 C        2.920    -0.037    28.930     8.820
    29   6 C        2.925    -0.030    28.759     8.794
    30   6 C        2.910    -0.044    29.084     8.843
    31   6 C        3.067     0.052    26.762     8.483
    32   6 C        2.883     0.043    27.029     8.523
    33  17 Cl       0.949    -0.138   103.472    15.562
    34   6 C        2.981     0.064    26.564     8.454
    35   7 N        2.804    -0.029    21.805     6.935
    36   6 C        3.072     0.051    26.778     8.485
    37   6 C        2.910    -0.044    29.081     8.843
    38   6 C        2.925    -0.031    28.764     8.795
    39   6 C        2.920    -0.038    28.953     8.824
    40   6 C        2.913    -0.031    28.772     8.796
    41   6 C        3.068    -0.012    28.253     8.716
    42   6 C        3.068    -0.012    28.253     8.716
    43   6 C        2.913    -0.031    28.772     8.796
    44   6 C        2.920    -0.038    28.953     8.824
    45   6 C        2.925    -0.031    28.764     8.795
    46   6 C        2.910    -0.044    29.081     8.843
    47   6 C        3.072     0.051    26.778     8.485
    48   1 H        0.926     0.044     2.395     2.420
    49   1 H        0.926     0.035     2.512     2.479
    50   1 H        0.926     0.033     2.539     2.492
    51   1 H        0.926     0.036     2.507     2.476
    52   1 H        0.926     0.036     2.504     2.474
    53   1 H        0.926     0.033     2.543     2.494
    54   1 H        0.926     0.034     2.525     2.485
    55   1 H        0.926     0.028     2.609     2.526
    56   1 H        0.926     0.028     2.609     2.526
    57   1 H        0.926     0.034     2.525     2.485
    58   1 H        0.926     0.033     2.543     2.494
    59   1 H        0.926     0.036     2.504     2.474
    60   1 H        0.926     0.036     2.507     2.476
    61   1 H        0.926     0.033     2.539     2.492
    62   1 H        0.926     0.035     2.512     2.479
    63   1 H        0.926     0.044     2.395     2.420
    64   1 H        0.926     0.023     2.691     2.565
    65   1 H        0.926     0.033     2.547     2.496
    66   1 H        0.926     0.032     2.560     2.502
    67   1 H        0.926     0.035     2.522     2.483
    68   1 H        0.926     0.035     2.522     2.483
    69   1 H        0.926     0.032     2.560     2.502
    70   1 H        0.926     0.033     2.547     2.496
    71   1 H        0.926     0.023     2.691     2.565

molecular dipole:
                 x           y           z       tot (Debye)
 q only:        0.664      -0.004      -0.000
   full:       -0.029      -0.000      -0.000       0.075

 projected vibrational frequencies (cm⁻¹)
eigval :       -0.00    -0.00     0.00     0.00     0.00     0.00
eigval :       16.04    19.35    25.15    25.51    26.83    27.32
eigval :       52.68    53.63    68.54    93.25    97.42   104.99
eigval :      108.65   115.03   132.70   136.31   143.71   149.56
eigval :      153.96   161.76   175.50   177.47   191.06   222.67
eigval :      224.63   268.93   271.52   273.79   273.91   280.73
eigval :      287.84   293.61   321.46   327.15   351.11   387.87
eigval :      395.41   397.56   398.07   420.41   422.16   423.63
eigval :      433.03   437.43   439.38   490.46   491.96   514.90
eigval :      517.12   517.70   520.76   525.72   526.50   540.89
eigval :      541.42   542.07   542.16   562.81   583.03   588.14
eigval :      590.01   593.61   629.57   634.79   646.24   660.24
eigval :      666.03   672.46   674.41   675.23   680.56   702.36
eigval :      707.61   710.50   710.51   750.91   755.82   756.68
eigval :      767.52   770.64   771.41   771.65   779.62   781.41
eigval :      782.62   810.00   866.30   867.60   871.15   871.88
eigval :      874.88   875.96   893.30   894.99   900.98   901.52
eigval :      903.44   903.74   903.90   904.61   904.94   905.06
eigval :      921.24   921.73   922.90   923.01   923.44   923.60
eigval :     1012.31  1013.01  1014.89  1046.45  1054.75  1065.48
eigval :     1067.41  1069.45  1070.07  1071.55  1074.57  1076.10
eigval :     1127.28  1147.45  1149.17  1150.72  1153.96  1155.05
eigval :     1176.27  1178.21  1178.32  1180.02  1180.81  1182.28
eigval :     1207.48  1224.13  1224.61  1230.20  1232.34  1235.56
eigval :     1254.25  1267.28  1282.82  1283.76  1293.16  1295.84
eigval :     1299.42  1300.10  1308.69  1311.61  1355.62  1356.16
eigval :     1358.19  1359.17  1359.79  1361.63  1401.11  1401.79
eigval :     1406.19  1424.22  1424.99  1426.66  1429.80  1434.47
eigval :     1467.84  1473.04  1475.13  1475.49  1485.45  1485.58
eigval :     1487.09  1495.33  1500.06  1577.28  1578.07  1578.16
eigval :     1591.30  1591.62  1593.21  1599.68  1599.91  1601.50
eigval :     1611.56  1611.94  1614.56  3078.35  3078.72  3080.00
eigval :     3080.03  3081.14  3081.15  3082.94  3083.81  3087.02
eigval :     3087.03  3088.45  3088.45  3089.94  3091.68  3095.75
eigval :     3095.82  3097.23  3097.53  3097.65  3099.09  3103.42
eigval :     3103.56  3111.85  3112.06

   temp. (K)  partition function   enthalpy   heat capacity  entropy
                                   cal/mol     cal/K/mol   cal/K/mol   J/K/mol
 298.15  VIB  0.357E+16            21015.319    134.390    128.546
         ROT  0.322E+08              888.752      2.981     37.335
         INT  0.115E+24            21904.071    137.371    165.881
         TR   0.158E+29             1481.254      4.968     45.247
         TOT                       23385.3254   142.3389   211.1282   883.3605

       T/K    H(0)-H(T)+PV         H(T)/Eh          T*S/Eh         G(T)/Eh
   ------------------------------------------------------------------------
    298.15    0.372669E-01    0.559150E+00    0.100314E+00    0.458836E+00
   ------------------------------------------------------------------------

         :::::::::::::::::::::::::::::::::::::::::::::::::::::
         ::                  THERMODYNAMIC                  ::
         :::::::::::::::::::::::::::::::::::::::::::::::::::::
         :: total free energy        -120.499784214793 Eh   ::
         ::.................................................::
         :: total energy             -120.958620004290 Eh   ::
         :: zero point energy           0.521882729851 Eh   ::
         :: G(RRHO) w/o ZPVE           -0.063046940353 Eh   ::
         :: G(RRHO) contrib.            0.458835789498 Eh   ::
         :::::::::::::::::::::::::::::::::::::::::::::::::::::

           -------------------------------------------------
          | TOTAL ENERGY             -120.958620004290 Eh   |
          | TOTAL ENTHALPY           -120.399470386267 Eh   |
          | TOTAL FREE ENERGY        -120.499784214793 Eh   |
          | GRADIENT NORM               0.000032211479 Eh/α |
          | HOMO-LUMO GAP               2.532154306667 eV   |
           -------------------------------------------------

 * finished run on 2025/08/25 at 03:21:39.546
