   * xtb version 6.7.1 (edcfbbe) compiled by 'albert@albert-system' on 2024-07-22

   ID    Z sym.   atoms
    1   17 Cl     1, 33
    2    6 C      2, 3, 5-16, 18, 20-32, 34, 36-47
    3    7 N      4, 17, 19, 35
    4    1 H      48-71

          program call               : xtb data2507/gas/2,4,6-CzPyCl2/2,4,6-CzPyCl2_gas_S0_finalOpt.xtbopt.xyz --gfn 2 --spinpol --tblite --uhf 2 --ohess vtight --parallel 40 --molden --ceasefiles --namespace data2507/gas/2,4,6-CzPyCl2/2,4,6-CzPyCl2_gas_T1_preOpt
 * total energy  :  -120.8581101 Eh     change        0.2369958E-08 Eh
 * total energy  :  -120.8604526 Eh     change       -0.2342469E-02 Eh
 * total energy  :  -120.8616876 Eh     change       -0.1235017E-02 Eh
 * total energy  :  -120.8619611 Eh     change       -0.2734887E-03 Eh
 * total energy  :  -120.8621202 Eh     change       -0.1591463E-03 Eh
 * total energy  :  -120.8621341 Eh     change       -0.1385531E-04 Eh
 * total energy  :  -120.8621487 Eh     change       -0.1456454E-04 Eh
 * total energy  :  -120.8621543 Eh     change       -0.5623032E-05 Eh
 * total energy  :  -120.8621612 Eh     change       -0.6937549E-05 Eh
 * total energy  :  -120.8621659 Eh     change       -0.4634121E-05 Eh
 * total energy  :  -120.8679975 Eh     change       -0.5448805E-06 Eh
 * total energy  :  -120.8679981 Eh     change       -0.5963606E-06 Eh
 * total energy  :  -120.8679987 Eh     change       -0.6628691E-06 Eh
 * total energy  :  -120.8679994 Eh     change       -0.6449708E-06 Eh
 * total energy  :  -120.8680000 Eh     change       -0.6361739E-06 Eh
 * total energy  :  -120.8680005 Eh     change       -0.4666457E-06 Eh
 * total energy  :  -120.8680009 Eh     change       -0.4620627E-06 Eh
 * total energy  :  -120.8680013 Eh     change       -0.3473486E-06 Eh
 * total energy  :  -120.8680013 Eh     change       -0.2106897E-07 Eh
   *** GEOMETRY OPTIMIZATION CONVERGED AFTER 94 ITERATIONS ***

 final structure:
================
71
 xtb: 6.7.1 (edcfbbe)
Cl          -1.44304636972890       -2.67871221652640       -0.72262456430421
C           -0.65227576228222       -1.25970769558469       -0.09939850592209
C            0.76469095311450       -1.23333710070594        0.02095646673000
N            1.53936732891604       -2.36856855062734       -0.13088851436593
C            2.67886717213160       -2.46299785444537       -0.91257581435084
C            3.29760865261659       -1.49415612355836       -1.68781223749896
C            4.43127788095933       -1.86040522690567       -2.38960787093072
C            4.93244008370832       -3.15842589971529       -2.33425966018725
C            4.31040788756586       -4.13085098289511       -1.57256132133768
C            3.17596078272186       -3.78486348383102       -0.85400673951584
C            2.30387691913553       -4.51270647157352        0.02922159397809
C            2.29876418848807       -5.81664384461462        0.50089582370172
C            1.32730482567495       -6.18718968762194        1.41243955660373
C            0.39094523765352       -5.26626170797832        1.87469420648974
C            0.37757063927884       -3.96181171493923        1.41796913086842
C            1.31867719685576       -3.59695953177109        0.46593797959951
N            1.42154559950057       -0.06804927795138        0.12769070357981
C            0.80842939124665        1.07165859459932        0.27468141980345
N            1.55237990858102        2.21699382601949        0.34471352939383
C            1.08489859756460        3.51954000662349        0.18783834465870
C           -0.17881186841492        3.98526485913011       -0.14213465203765
C           -0.36258672977222        5.35228421006454       -0.25193382936220
C            0.68505260127039        6.24576258710450       -0.05593746911578
C            1.95445811980445        5.78874999007544        0.24722800503919
C            2.15724475812113        4.42273814896218        0.36424773104312
C            3.32850854714791        3.62979192074750        0.63083218526917
C            4.65126457330465        3.95981580351329        0.88084206174358
C            5.55670689115702        2.93765350899746        1.10028510668091
C            5.14784085506371        1.60827298847105        1.07821359477434
C            3.83127065575519        1.25788303294165        0.83423243113514
C            2.92144191889112        2.27798946885054        0.60118280196528
C           -0.64324963960962        1.11557857341297        0.45428784470015
Cl          -1.15270810127749        1.76183563636623        2.04646900818121
C           -1.35706184342342       -0.09427915119525        0.06547984233639
N           -2.73812933954040       -0.02363417420348       -0.07675097648574
C           -3.67941660915844       -0.78397562775207        0.58790117143225
C           -3.50059040087615       -1.77259679958067        1.54349150208794
C           -4.62977713173701       -2.36206089916559        2.08031009121793
C           -5.90749941850122       -1.97200633800377        1.68876459526921
C           -6.09157361743474       -0.96243327916642        0.76214807557644
C           -4.97335360099127       -0.35755902894128        0.20804365798214
C           -4.79147721165059        0.71850572760550       -0.72991149441657
C           -5.66137702656063        1.52833729456786       -1.44460690560704
C           -5.13018253066738        2.48604128561282       -2.28949560734499
C           -3.75340764255757        2.62695898092534       -2.44367781056812
C           -2.86662217885528        1.82437558830737       -1.74988871635403
C           -3.39604923351891        0.88967046046063       -0.87359425062723
H            2.91016387251604       -0.48922353068646       -1.73256808499113
H            4.93735896095319       -1.12352276887348       -2.99521158902779
H            5.81928809574729       -3.40701715484403       -2.89794649640337
H            4.69691516549665       -5.13806583383417       -1.53535172924544
H            3.04473122948672       -6.52216540991317        0.16784834032041
H            1.30248749286323       -7.19927937689746        1.78770280373236
H           -0.33662870838689       -5.57533516700368        2.61021767419282
H           -0.33374614069075       -3.24967249939777        1.80525538409250
H           -1.00251530078837        3.31111768413848       -0.30829100898444
H           -1.34295597622092        5.72931193434489       -0.50142775077031
H            0.50418251999753        7.30584987247776       -0.15140583762913
H            2.77429301158627        6.47674616671310        0.38647466799072
H            4.96272707420190        4.99297473740363        0.90409041468042
H            6.59262005541364        3.17189250655441        1.29499405313867
H            5.87268516904066        0.82824759255887        1.25667997829434
H            3.52355991811274        0.22662879518216        0.82268598884084
H           -2.51504175251709       -2.06468040082233        1.87014540384440
H           -4.51792518003084       -3.13861300979515        2.82233700574584
H           -6.76553592213649       -2.45860784938661        2.12801173807959
H           -7.08329792360922       -0.64392339111748        0.47865538891682
H           -6.72955554264400        1.41020419006731       -1.34321593001141
H           -5.79167718701920        3.12885728193664       -2.85094045056342
H           -3.37027396672751        3.37081147814554       -3.12636914860140
H           -1.80028440764548        1.90797296409710       -1.89570839619620

 projected vibrational frequencies (cm⁻¹)
eigval :       -0.00    -0.00    -0.00     0.00     0.00     0.00
eigval :       13.52    19.40    23.84    24.07    27.99    30.28
eigval :       49.27    58.54    73.11    79.55    96.35   100.73
eigval :      104.85   114.40   130.10   134.30   139.33   144.83
eigval :      150.73   156.45   158.27   170.42   178.73   216.35
eigval :      224.44   232.64   268.87   272.69   274.05   275.80
eigval :      279.11   311.63   325.53   332.49   352.19   367.01
eigval :      394.21   395.60   400.26   419.98   422.82   425.74
eigval :      433.31   435.34   437.13   455.40   488.57   503.95
eigval :      513.58   515.03   517.10   520.38   523.98   537.36
eigval :      538.76   540.97   544.75   553.51   569.27   584.54
eigval :      585.58   588.31   600.69   607.90   616.77   635.97
eigval :      653.41   663.70   668.65   673.80   674.23   676.68
eigval :      708.71   709.18   711.47   744.72   751.58   755.26
eigval :      764.63   767.56   769.90   772.96   773.96   778.02
eigval :      780.44   783.68   865.38   868.47   869.01   873.18
eigval :      875.87   882.09   884.43   891.71   897.07   900.72
eigval :      902.03   902.61   903.44   904.07   907.42   910.58
eigval :      919.58   920.80   920.92   921.63   924.11   929.51
eigval :      961.92  1009.26  1011.61  1014.11  1034.21  1042.19
eigval :     1064.43  1067.36  1068.40  1070.42  1071.74  1073.30
eigval :     1110.85  1135.37  1140.48  1142.50  1144.60  1147.21
eigval :     1172.28  1174.05  1176.68  1177.53  1179.13  1180.37
eigval :     1186.79  1206.32  1208.23  1221.98  1229.52  1232.64
eigval :     1234.95  1238.96  1251.91  1262.49  1281.46  1291.05
eigval :     1293.00  1295.05  1296.49  1298.01  1345.80  1347.15
eigval :     1350.14  1355.63  1359.44  1360.76  1363.87  1365.63
eigval :     1393.11  1411.12  1415.17  1417.55  1419.41  1425.04
eigval :     1439.49  1463.08  1464.99  1467.99  1474.78  1481.58
eigval :     1483.88  1484.59  1515.79  1571.22  1572.44  1574.57
eigval :     1581.36  1583.52  1585.66  1586.02  1588.05  1589.70
eigval :     1602.56  1603.68  1606.03  3079.02  3079.86  3080.21
eigval :     3081.26  3081.74  3083.17  3083.96  3086.28  3086.85
eigval :     3088.55  3089.25  3091.05  3091.39  3094.67  3095.17
eigval :     3096.84  3097.41  3097.67  3099.50  3100.73  3102.31
eigval :     3110.81  3113.67  3133.09

   temp. (K)  partition function   enthalpy   heat capacity  entropy
                                   cal/mol     cal/K/mol   cal/K/mol   J/K/mol
 298.15  VIB  0.723E+16            21284.846    135.683    130.730
         ROT  0.638E+08              888.752      2.981     38.696
         INT  0.461E+24            22173.598    138.664    169.426
         TR   0.158E+29             1481.254      4.968     45.247
         TOT                       23654.8524   143.6318   214.6728   898.1910

       T/K    H(0)-H(T)+PV         H(T)/Eh          T*S/Eh         G(T)/Eh
   ------------------------------------------------------------------------
    298.15    0.376964E-01    0.556822E+00    0.101998E+00    0.454824E+00
   ------------------------------------------------------------------------

         :::::::::::::::::::::::::::::::::::::::::::::::::::::
         ::                  THERMODYNAMIC                  ::
         :::::::::::::::::::::::::::::::::::::::::::::::::::::
         :: total free energy        -120.413177046328 Eh   ::
         ::.................................................::
         :: total energy             -120.868001309327 Eh   ::
         :: zero point energy           0.519125828033 Eh   ::
         :: G(RRHO) w/o ZPVE           -0.064301565035 Eh   ::
         :: G(RRHO) contrib.            0.454824262998 Eh   ::
         :::::::::::::::::::::::::::::::::::::::::::::::::::::

           -------------------------------------------------
          | TOTAL ENERGY             -120.868001309327 Eh   |
          | TOTAL ENTHALPY           -120.311179074580 Eh   |
          | TOTAL FREE ENERGY        -120.413177046328 Eh   |
          | GRADIENT NORM               0.000048326921 Eh/α |
           -------------------------------------------------

 * finished run on 2025/08/25 at 03:21:54.633
