   * xtb version 6.7.1 (edcfbbe) compiled by 'albert@albert-system' on 2024-07-22

   ID    Z sym.   atoms
    1   17 Cl     1, 33
    2    6 C      2, 3, 5-16, 18, 20-32, 34, 36-47
    3    7 N      4, 17, 19, 35
    4    1 H      48-71

          program call               : xtb data2507/gas/2,4,6-CzPyCl2/2,4,6-CzPyCl2_gas_T1_crest.xyz --gfn 2 --spinpol --tblite --uhf 2 --ohess vtight --parallel 40 --molden --ceasefiles --namespace data2507/gas/2,4,6-CzPyCl2/2,4,6-CzPyCl2_gas_T1_finalOpt
 * total energy  :  -120.8678329 Eh     change       -0.7502010E-08 Eh
 * total energy  :  -120.8678711 Eh     change       -0.3827642E-04 Eh
 * total energy  :  -120.8678953 Eh     change       -0.2413610E-04 Eh
 * total energy  :  -120.8679028 Eh     change       -0.7573169E-05 Eh
 * total energy  :  -120.8679087 Eh     change       -0.5855884E-05 Eh
 * total energy  :  -120.8679126 Eh     change       -0.3889242E-05 Eh
 * total energy  :  -120.8679159 Eh     change       -0.3322305E-05 Eh
 * total energy  :  -120.8679187 Eh     change       -0.2828759E-05 Eh
 * total energy  :  -120.8679215 Eh     change       -0.2756464E-05 Eh
 * total energy  :  -120.8679245 Eh     change       -0.2972488E-05 Eh
 * total energy  :  -120.8679852 Eh     change       -0.7192180E-06 Eh
 * total energy  :  -120.8679859 Eh     change       -0.6478133E-06 Eh
 * total energy  :  -120.8679866 Eh     change       -0.7610001E-06 Eh
 * total energy  :  -120.8679877 Eh     change       -0.1026348E-05 Eh
 * total energy  :  -120.8679891 Eh     change       -0.1394144E-05 Eh
 * total energy  :  -120.8679904 Eh     change       -0.1369677E-05 Eh
 * total energy  :  -120.8679918 Eh     change       -0.1401843E-05 Eh
 * total energy  :  -120.8679927 Eh     change       -0.8526013E-06 Eh
 * total energy  :  -120.8679927 Eh     change       -0.1493507E-07 Eh
   *** GEOMETRY OPTIMIZATION CONVERGED AFTER 44 ITERATIONS ***

 final structure:
================
71
 xtb: 6.7.1 (edcfbbe)
Cl          -1.57949764180018       -1.48287253404145       -1.97288087940708
C           -0.91148839066503       -0.97559931610601       -0.38936083295465
C            0.51400557168625       -1.26665155025249       -0.23127270462141
N            0.97487734600711       -2.55134795758889       -0.31886611299049
C            2.28878575674683       -2.92173707916473       -0.60162288755835
C            3.40271123073914       -2.13472068780164       -0.85163192200040
C            4.59962926828746       -2.77481428503075       -1.12234575044563
C            4.69383175148691       -4.16229770811588       -1.15388331626992
C            3.58352588969882       -4.95222431540899       -0.91710831726698
C            2.37598781769700       -4.33060905548912       -0.64042244283103
C            1.05991927130122       -4.83674467076749       -0.35143328843422
C            0.55304310809019       -6.12093824593227       -0.22997842409379
C           -0.78119064495754       -6.27753171278614        0.09787528396691
C           -1.59367171968860       -5.16945759355265        0.31321724459444
C           -1.10496004255083       -3.87998285633725        0.19942507617722
C            0.22540392136360       -3.71353710030264       -0.15431144424675
N            1.37418888023381       -0.29941147404224       -0.08693535386217
C            1.00426026905731        0.98457037347931        0.03656316648742
N            2.02070410030430        1.90942670642579        0.18971492171651
C            2.08197505549694        3.16375743886899       -0.39044702353177
C            1.24291100185844        3.74619852718779       -1.32958707246813
C            1.54960042464904        5.01985975572220       -1.77009112324581
C            2.67329898465506        5.69751124205148       -1.30457142043466
C            3.54070363345408        5.10299404727850       -0.40672603185131
C            3.25235518269689        3.82530957139917        0.04837646402275
C            3.94136420539630        2.90591162218731        0.91460656993025
C            5.12913650632323        2.97467708712068        1.62696428722338
C            5.51810222979120        1.87574856161709        2.37114044149616
C            4.73520119471196        0.72499503365635        2.41496919614124
C            3.54373943914828        0.63602293068812        1.71901863237687
C            3.15679346586681        1.73113099808981        0.96174104122873
C           -0.36763798599055        1.33468073000418        0.17424537744926
Cl          -0.80508652428495        2.89181648801930        0.81546791223905
C           -1.32315612214517        0.36402951621292        0.01074350899463
N           -2.68205280482063        0.61360486259421        0.16461924432422
C           -3.52860941458064       -0.12914018758588        0.96053336496244
C           -3.22427457372039       -1.16646679614395        1.82838425333020
C           -4.26858631675346       -1.74827916984294        2.52319715505617
C           -5.57675111798540       -1.29350223201413        2.37820311402577
C           -5.87731137120511       -0.23326714961340        1.54226863218572
C           -4.84779769362349        0.35982869187261        0.82697277177978
C           -4.78153826599912        1.45589422538278       -0.10309035786610
C           -5.73289557203914        2.30684250098325       -0.64541320367036
C           -5.32566553691030        3.25434591791409       -1.56637314954786
C           -3.99450866383526        3.34223099581906       -1.96423693905795
C           -3.02907232141983        2.50370056962136       -1.43936739788848
C           -3.42612797407975        1.57540084008619       -0.48903456923230
H            3.33853844331473       -1.06052661418099       -0.83265971556595
H            5.47976574435198       -2.17979916161627       -1.31471027924758
H            5.64497635339702       -4.62557312821644       -1.36975492117447
H            3.65063088823860       -6.02904784152857       -0.94751828072046
H            1.19151003478568       -6.97728971192751       -0.38453396183343
H           -1.19720352423655       -7.26879927852281        0.19757976448175
H           -2.62938061814834       -5.31400228296159        0.58143498178544
H           -1.74980834481604       -3.03623684081903        0.38053396809139
H            0.38619844826470        3.21967652566735       -1.71938248885914
H            0.90699014310774        5.49651002505786       -2.49516857193852
H            2.87660757922142        6.69420264698301       -1.66655941899017
H            4.42935891477826        5.61591627317554       -0.07153905883172
H            5.73455392700607        3.86793750103595        1.59844912557582
H            6.44159607797415        1.90823851240800        2.92983654861138
H            5.06403717076959       -0.11611047068094        3.00680843176971
H            2.93822912810254       -0.25509385644049        1.75452676430919
H           -2.20503293106460       -1.49384145283544        1.96728713576132
H           -4.06362181400622       -2.56484548345115        3.19950459755129
H           -6.36577156507912       -1.77096580296987        2.93988079702718
H           -6.89013769284799        0.12806358371896        1.44812383526307
H           -6.76985606671613        2.22344814757453       -0.35717086202489
H           -6.05050067696536        3.92951431315920       -1.99614242267971
H           -3.71029717497043        4.07813963226934       -2.70167330053439
H           -2.00450724965552        2.56307174193891       -1.77110180705625

 projected vibrational frequencies (cm⁻¹)
eigval :       -0.00    -0.00     0.00     0.00     0.00     0.00
eigval :       12.70    19.40    23.81    24.59    27.54    30.31
eigval :       49.81    58.53    73.11    80.02    96.77   100.66
eigval :      104.91   114.29   130.23   134.29   139.48   144.87
eigval :      150.64   156.44   158.12   170.58   179.26   216.42
eigval :      224.55   232.67   268.85   272.88   274.01   275.71
eigval :      279.11   311.23   325.61   332.61   352.26   367.00
eigval :      394.29   395.64   400.25   420.87   422.74   425.93
eigval :      433.47   435.28   437.31   455.65   488.36   503.66
eigval :      513.63   515.03   517.12   520.16   524.09   537.39
eigval :      538.74   541.00   544.46   553.35   569.13   584.54
eigval :      585.62   588.39   600.38   607.90   616.63   635.88
eigval :      653.47   663.87   669.07   673.83   674.18   676.77
eigval :      708.75   709.16   711.43   746.76   751.83   755.26
eigval :      764.14   767.61   770.04   772.87   774.34   778.08
eigval :      780.50   783.78   865.45   868.59   869.14   873.32
eigval :      875.81   882.17   884.41   891.67   897.10   900.79
eigval :      902.15   902.70   903.48   904.18   907.41   910.65
eigval :      919.64   920.85   921.01   921.70   924.24   929.41
eigval :      962.19  1009.29  1011.45  1013.95  1033.83  1042.08
eigval :     1064.22  1067.29  1068.28  1070.32  1071.67  1073.35
eigval :     1111.16  1135.10  1140.26  1142.43  1144.56  1147.14
eigval :     1172.34  1174.14  1176.75  1177.65  1179.30  1180.51
eigval :     1186.68  1206.02  1208.08  1221.99  1229.45  1232.61
eigval :     1234.95  1237.99  1251.79  1262.38  1281.52  1290.98
eigval :     1293.07  1294.92  1296.60  1297.90  1345.77  1347.45
eigval :     1350.09  1355.56  1359.83  1360.85  1364.00  1365.60
eigval :     1393.00  1411.43  1415.34  1417.70  1419.61  1425.31
eigval :     1439.41  1463.15  1464.95  1467.93  1475.13  1481.66
eigval :     1483.89  1484.69  1515.81  1571.07  1572.33  1574.42
eigval :     1581.31  1583.39  1585.47  1585.91  1587.97  1589.66
eigval :     1602.56  1603.65  1606.10  3079.04  3079.84  3080.23
eigval :     3081.26  3081.67  3083.08  3084.03  3086.25  3086.85
eigval :     3088.43  3089.28  3091.05  3091.36  3094.77  3095.29
eigval :     3096.80  3097.42  3097.67  3099.34  3100.59  3102.23
eigval :     3110.90  3114.02  3132.80

   temp. (K)  partition function   enthalpy   heat capacity  entropy
                                   cal/mol     cal/K/mol   cal/K/mol   J/K/mol
 298.15  VIB  0.749E+16            21282.227    135.687    130.753
         ROT  0.639E+08              888.752      2.981     38.696
         INT  0.478E+24            22170.980    138.668    169.449
         TR   0.158E+29             1481.254      4.968     45.247
         TOT                       23652.2337   143.6359   214.6959   898.2877

       T/K    H(0)-H(T)+PV         H(T)/Eh          T*S/Eh         G(T)/Eh
   ------------------------------------------------------------------------
    298.15    0.376922E-01    0.556828E+00    0.102009E+00    0.454819E+00
   ------------------------------------------------------------------------

         :::::::::::::::::::::::::::::::::::::::::::::::::::::
         ::                  THERMODYNAMIC                  ::
         :::::::::::::::::::::::::::::::::::::::::::::::::::::
         :: total free energy        -120.413173985797 Eh   ::
         ::.................................................::
         :: total energy             -120.867992700113 Eh   ::
         :: zero point energy           0.519135434568 Eh   ::
         :: G(RRHO) w/o ZPVE           -0.064316720253 Eh   ::
         :: G(RRHO) contrib.            0.454818714315 Eh   ::
         :::::::::::::::::::::::::::::::::::::::::::::::::::::

           -------------------------------------------------
          | TOTAL ENERGY             -120.867992700113 Eh   |
          | TOTAL ENTHALPY           -120.311165031910 Eh   |
          | TOTAL FREE ENERGY        -120.413173985797 Eh   |
          | GRADIENT NORM               0.000055061723 Eh/α |
           -------------------------------------------------

 * finished run on 2025/08/25 at 03:25:59.102
