   * xtb version 6.7.1 (edcfbbe) compiled by 'albert@albert-system' on 2024-07-22

   ID    Z sym.   atoms
    1   17 Cl     1, 33
    2    6 C      2, 3, 5-16, 18, 20-32, 34, 36-47
    3    7 N      4, 17, 19, 35
    4    1 H      48-71

          program call               : xtb data2507/gas/2,4,6-CzPyCl2/2,4,6-CzPyCl2.xyz --gfn 2 --ohess vtight --parallel 40 --molden --ceasefiles --namespace data2507/gas/2,4,6-CzPyCl2/2,4,6-CzPyCl2_gas_S0_preOpt
          :  Hamiltonian                  GFN2-xTB          :
 * total energy  :  -120.9321568 Eh     change       -0.6938492E-08 Eh
 * total energy  :  -120.9516261 Eh     change       -0.1946932E-01 Eh
 * total energy  :  -120.9564145 Eh     change       -0.4788393E-02 Eh
 * total energy  :  -120.9572210 Eh     change       -0.8064297E-03 Eh
 * total energy  :  -120.9576449 Eh     change       -0.4239425E-03 Eh
 * total energy  :  -120.9577947 Eh     change       -0.1498126E-03 Eh
 * total energy  :  -120.9578986 Eh     change       -0.1038734E-03 Eh
 * total energy  :  -120.9579568 Eh     change       -0.5823294E-04 Eh
 * total energy  :  -120.9580304 Eh     change       -0.7354874E-04 Eh
 * total energy  :  -120.9580810 Eh     change       -0.5066913E-04 Eh
 * total energy  :  -120.9586049 Eh     change       -0.1485246E-05 Eh
 * total energy  :  -120.9586059 Eh     change       -0.1019586E-05 Eh
 * total energy  :  -120.9586066 Eh     change       -0.7234903E-06 Eh
 * total energy  :  -120.9586072 Eh     change       -0.5496232E-06 Eh
 * total energy  :  -120.9586077 Eh     change       -0.4712467E-06 Eh
 * total energy  :  -120.9586081 Eh     change       -0.4357685E-06 Eh
 * total energy  :  -120.9586085 Eh     change       -0.4401427E-06 Eh
 * total energy  :  -120.9586090 Eh     change       -0.4912807E-06 Eh
 * total energy  :  -120.9586090 Eh     change       -0.3505761E-08 Eh
   *** GEOMETRY OPTIMIZATION CONVERGED AFTER 44 ITERATIONS ***

 final structure:
================
71
 xtb: 6.7.1 (edcfbbe)
Cl          -1.64073705439739       -2.50663692429354       -1.01067966911623
C           -0.78867191184930       -1.14938613502457       -0.35702651846985
C            0.61065523828173       -1.12729505018151       -0.25943965974494
N            1.39464273173516       -2.24017986437486       -0.49381568347396
C            2.54588183936886       -2.24736191387172       -1.27499698634042
C            3.17068767191366       -1.20127953035628       -1.93197202619468
C            4.29237357203969       -1.49533621046018       -2.68575046139050
C            4.77957741573287       -2.79546894238259       -2.78824492072527
C            4.15626965722989       -3.84120767444700       -2.13588199006458
C            3.03035430127742       -3.56833999701826       -1.37091738956929
C            2.16224504136593       -4.38803238063697       -0.56793197894944
C            2.16805961780406       -5.73601480266799       -0.23824016603466
C            1.20820848153685       -6.20753139871964        0.63620478396362
C            0.27321766542196       -5.34581908681845        1.20120881689295
C            0.24979608540325       -3.99951848271680        0.88569432592958
C            1.17655474992860       -3.53096568424910       -0.03190739644799
N            1.25515112033238       -0.00021328791959       -0.00001568112482
C            0.61105843601126        1.12709581452582        0.25942019200830
N            1.39544071029163        2.23970261638300        0.49379800937861
C            1.17780204335233        3.53056772477730        0.03190113019983
C            0.25121088062229        3.99944929262714       -0.88570134376807
C            0.27509405858243        5.34574630028738       -1.20119702868901
C            1.21037067974719        6.20713253579202       -0.63616856893863
C            2.17005088129080        5.73527728189484        0.23828186981612
C            2.16377679257267        4.38729145962726        0.56795127449778
C            3.03160330059131        3.56728939137935        1.37092615279627
C            4.15760620479487        3.83976036764362        2.13590321695771
C            4.78053924765846        2.79380189243025        2.78827180006337
C            4.29288224027679        1.49383988359897        2.68576740758561
C            3.17110519051615        1.20017697586045        1.93197105128112
C            2.54667174036066        2.24648055882631        1.27499409498118
C           -0.78825830318995        1.14967999464902        0.35702908500086
Cl          -1.63983323590838        2.50722498533674        1.01071013257133
C           -1.50222059507547        0.00027307576853        0.00000732954253
N           -2.89267235342069        0.00052592553887        0.00003751999738
C           -3.70167068836258       -0.83908269330884        0.74512178806183
C           -3.34759492593078       -1.80221573676569        1.67527501488629
C           -4.36571389684200       -2.49104896738573        2.30728346655204
C           -5.70348262234393       -2.21886158949143        2.03342554822922
C           -6.06012411324528       -1.23733502278310        1.12947725713669
C           -5.05433930517924       -0.53527490334591        0.47918270902668
C           -5.05414662125428        0.53701740579882       -0.47921031952244
C           -6.05967619170910        1.23939398773089       -1.12955841634291
C           -5.70267833290326        2.22079148774636       -2.03350621847077
C           -4.36480995733655        2.49254168074312       -2.30731109381064
C           -3.34694168552929        1.80338918209588       -1.67524723743792
C           -3.70136922929692        0.84038510772268       -0.74509452217496
H            2.80122882308756       -0.19241605668896       -1.84530449355005
H            4.80250133947977       -0.69748689970572       -3.20455380640089
H            5.65851663692253       -2.98499503877572       -3.38622731256408
H            4.53196028630032       -4.84991867087269       -2.21629193054356
H            2.91586855592968       -6.39595484652217       -0.65076617428327
H            1.19225945978854       -7.25353395765063        0.90328162449098
H           -0.44593201310530       -5.73327441486516        1.90737276533206
H           -0.46135595239965       -3.34020883629313        1.35734481544026
H           -0.46017439148886        3.34039198751867       -1.35735248088493
H           -0.44392924294998        5.73346063004744       -1.90734702825268
H            1.19478555744372        7.25314237902656       -0.90323667987137
H            2.91809494150394        6.39495219961895        0.65080487804664
H            4.53363439806229        4.84834348353444        2.21634030546814
H            5.65953168563694        2.98302075093343        3.38627333691578
H            4.80273191620180        0.69580894729681        3.20456492413389
H            2.80130366471263        0.19144074777763        1.84528284804796
H           -2.31266092144074       -2.00167580370407        1.90864189543378
H           -4.11792938355559       -3.25252213949715        3.03177784826538
H           -6.47081389076156       -2.77917472989395        2.54633184050172
H           -7.09772272979556       -1.01419480797720        0.93277081715492
H           -7.09735556719952        1.01659093255116       -0.93289605161967
H           -6.46980590595597        2.78134378899085       -2.54645585681710
H           -4.11674719545585        3.25392155769309       -3.03180832093571
H           -2.31193364322875        2.00250914789194       -1.90857546407369

          :  Hamiltonian                  GFN2-xTB          :
         :: gradient norm              0.000047391060 Eh/a0 ::
         :: HOMO-LUMO gap              2.527813171647 eV    ::
         :: SCC energy              -123.038359291822 Eh    ::
         :: -> dispersion             -0.114479848284 Eh    ::
         :: repulsion energy           2.079750269519 Eh    ::

    * Orbital Energies and Occupations

         #    Occupation            Energy/Eh            Energy/eV
      -------------------------------------------------------------
         1        2.0000           -1.0715331             -29.1579
       ...           ...                  ...                  ...
        99        2.0000           -0.4223787             -11.4935
       100        2.0000           -0.4209347             -11.4542
       101        2.0000           -0.4147868             -11.2869
       102        2.0000           -0.4096235             -11.1464
       103        2.0000           -0.4094138             -11.1407
       104        2.0000           -0.4092932             -11.1374
       105        2.0000           -0.4047522             -11.0139
       106        2.0000           -0.3840244             -10.4498
       107        2.0000           -0.3839398             -10.4475
       108        2.0000           -0.3839156             -10.4469
       109        2.0000           -0.3756519             -10.2220
       110        2.0000           -0.3733731             -10.1600
       111        2.0000           -0.3717165             -10.1149 (HOMO)
       112                         -0.2788211              -7.5871 (LUMO)
       113                         -0.2712217              -7.3803
       114                         -0.2501073              -6.8058
       115                         -0.2486417              -6.7659
       116                         -0.2476382              -6.7386
       117                         -0.2268205              -6.1721
       118                         -0.2266065              -6.1663
       119                         -0.2266046              -6.1662
       120                         -0.2079589              -5.6589
       121                         -0.1970420              -5.3618
       122                         -0.1965970              -5.3497
       ...                                ...                  ...
       222                          0.7419617              20.1898
      -------------------------------------------------------------
                  HL-Gap            0.0928954 Eh            2.5278 eV

     #   Z          covCN         q      C6AA      α(0)
     1  17 Cl       0.949    -0.138   103.464    15.562
     2   6 C        2.883     0.043    27.025     8.523
     3   6 C        2.898     0.141    24.921     8.185
     4   7 N        2.806    -0.028    21.793     6.933
     5   6 C        3.067     0.052    26.761     8.483
     6   6 C        2.910    -0.044    29.083     8.843
     7   6 C        2.925    -0.030    28.759     8.794
     8   6 C        2.920    -0.037    28.930     8.820
     9   6 C        2.913    -0.032    28.791     8.799
    10   6 C        3.065    -0.012    28.236     8.713
    11   6 C        3.066    -0.011    28.219     8.711
    12   6 C        2.913    -0.031    28.777     8.797
    13   6 C        2.920    -0.037    28.932     8.821
    14   6 C        2.924    -0.031    28.770     8.796
    15   6 C        2.911    -0.043    29.065     8.840
    16   6 C        3.063     0.049    26.842     8.496
    17   7 N        1.862    -0.251    27.403     7.759
    18   6 C        2.898     0.141    24.921     8.185
    19   7 N        2.806    -0.028    21.793     6.933
    20   6 C        3.063     0.049    26.842     8.496
    21   6 C        2.911    -0.043    29.065     8.840
    22   6 C        2.924    -0.031    28.770     8.796
    23   6 C        2.920    -0.037    28.932     8.821
    24   6 C        2.913    -0.031    28.777     8.797
    25   6 C        3.066    -0.011    28.219     8.711
    26   6 C        3.065    -0.012    28.236     8.713
    27   6 C        2.913    -0.032    28.791     8.799
    28   6 C        2.920    -0.037    28.930     8.820
    29   6 C        2.925    -0.030    28.759     8.794
    30   6 C        2.910    -0.044    29.083     8.843
    31   6 C        3.067     0.052    26.761     8.483
    32   6 C        2.883     0.043    27.025     8.523
    33  17 Cl       0.949    -0.138   103.464    15.562
    34   6 C        2.981     0.064    26.562     8.454
    35   7 N        2.805    -0.029    21.807     6.936
    36   6 C        3.072     0.051    26.778     8.485
    37   6 C        2.910    -0.044    29.081     8.843
    38   6 C        2.925    -0.031    28.764     8.795
    39   6 C        2.920    -0.038    28.953     8.824
    40   6 C        2.913    -0.031    28.772     8.796
    41   6 C        3.068    -0.012    28.253     8.716
    42   6 C        3.068    -0.012    28.253     8.716
    43   6 C        2.913    -0.031    28.772     8.796
    44   6 C        2.920    -0.038    28.953     8.824
    45   6 C        2.925    -0.031    28.764     8.795
    46   6 C        2.910    -0.044    29.081     8.843
    47   6 C        3.072     0.051    26.778     8.485
    48   1 H        0.926     0.044     2.400     2.423
    49   1 H        0.926     0.035     2.512     2.479
    50   1 H        0.926     0.033     2.539     2.492
    51   1 H        0.926     0.036     2.507     2.476
    52   1 H        0.926     0.036     2.504     2.474
    53   1 H        0.926     0.033     2.543     2.494
    54   1 H        0.926     0.034     2.526     2.485
    55   1 H        0.926     0.028     2.611     2.527
    56   1 H        0.926     0.028     2.611     2.527
    57   1 H        0.926     0.034     2.526     2.485
    58   1 H        0.926     0.033     2.543     2.494
    59   1 H        0.926     0.036     2.504     2.474
    60   1 H        0.926     0.036     2.507     2.476
    61   1 H        0.926     0.033     2.539     2.492
    62   1 H        0.926     0.035     2.512     2.479
    63   1 H        0.926     0.044     2.400     2.423
    64   1 H        0.926     0.023     2.691     2.565
    65   1 H        0.926     0.033     2.547     2.496
    66   1 H        0.926     0.032     2.560     2.502
    67   1 H        0.926     0.035     2.522     2.483
    68   1 H        0.926     0.035     2.522     2.483
    69   1 H        0.926     0.032     2.560     2.502
    70   1 H        0.926     0.033     2.547     2.496
    71   1 H        0.926     0.023     2.691     2.565

molecular dipole:
                 x           y           z       tot (Debye)
 q only:        0.656      -0.000      -0.000
   full:       -0.037      -0.000      -0.000       0.094

 projected vibrational frequencies (cm⁻¹)
eigval :       -0.00    -0.00     0.00     0.00     0.00     0.00
eigval :       16.01    19.35    25.07    25.29    26.60    26.94
eigval :       52.52    53.27    68.50    93.19    97.31   104.92
eigval :      108.41   114.85   132.75   136.36   143.59   149.49
eigval :      153.68   161.65   175.41   177.08   190.98   222.46
eigval :      224.85   268.87   271.47   273.70   273.81   280.76
eigval :      287.75   293.74   321.34   327.41   351.05   387.88
eigval :      395.41   397.51   397.98   420.42   422.10   423.56
eigval :      432.98   437.30   439.24   490.85   491.93   514.83
eigval :      517.07   517.67   520.68   525.71   526.37   540.91
eigval :      541.44   542.04   542.15   562.45   583.05   588.14
eigval :      589.96   593.62   629.41   634.81   646.71   660.39
eigval :      666.13   672.48   674.39   675.11   680.96   702.39
eigval :      707.60   710.47   710.50   750.94   755.79   756.59
eigval :      767.56   770.63   771.43   771.57   779.64   781.39
eigval :      782.56   810.14   866.44   867.75   871.06   871.73
eigval :      874.81   875.87   893.38   894.96   901.04   901.58
eigval :      903.38   903.69   903.86   904.56   904.95   905.01
eigval :      921.28   921.76   922.87   922.96   923.41   923.57
eigval :     1012.32  1012.95  1014.86  1046.42  1054.76  1065.62
eigval :     1067.48  1069.49  1070.08  1071.57  1074.51  1076.03
eigval :     1127.24  1147.56  1149.23  1150.73  1154.05  1155.02
eigval :     1176.38  1178.24  1178.38  1180.08  1180.83  1182.27
eigval :     1207.51  1224.20  1224.69  1230.35  1232.42  1235.62
eigval :     1254.37  1267.35  1283.04  1283.87  1293.31  1295.98
eigval :     1299.50  1300.15  1308.79  1311.67  1355.69  1356.20
eigval :     1358.11  1359.16  1359.71  1361.62  1401.07  1401.81
eigval :     1406.16  1424.27  1425.05  1426.71  1429.80  1434.55
eigval :     1467.91  1473.09  1475.19  1475.51  1485.51  1485.66
eigval :     1487.11  1495.40  1499.90  1577.26  1578.01  1578.11
eigval :     1591.32  1591.63  1593.19  1599.71  1599.94  1601.47
eigval :     1611.57  1611.95  1614.53  3078.26  3078.63  3079.98
eigval :     3079.98  3081.09  3081.10  3082.87  3083.74  3086.95
eigval :     3086.96  3088.37  3088.37  3089.87  3091.60  3095.66
eigval :     3095.72  3097.11  3097.42  3097.61  3099.15  3102.96
eigval :     3103.06  3111.37  3111.57

   temp. (K)  partition function   enthalpy   heat capacity  entropy
                                   cal/mol     cal/K/mol   cal/K/mol   J/K/mol
 298.15  VIB  0.376E+16            21019.557    134.371    128.597
         ROT  0.322E+08              888.752      2.981     37.335
         INT  0.121E+24            21908.309    137.352    165.932
         TR   0.158E+29             1481.254      4.968     45.247
         TOT                       23389.5633   142.3203   211.1797   883.5759

       T/K    H(0)-H(T)+PV         H(T)/Eh          T*S/Eh         G(T)/Eh
   ------------------------------------------------------------------------
    298.15    0.372736E-01    0.559146E+00    0.100338E+00    0.458808E+00
   ------------------------------------------------------------------------

         :::::::::::::::::::::::::::::::::::::::::::::::::::::
         ::                  THERMODYNAMIC                  ::
         :::::::::::::::::::::::::::::::::::::::::::::::::::::
         :: total free energy        -120.499801457349 Eh   ::
         ::.................................................::
         :: total energy             -120.958609022288 Eh   ::
         :: zero point energy           0.521872215187 Eh   ::
         :: G(RRHO) w/o ZPVE           -0.063064650248 Eh   ::
         :: G(RRHO) contrib.            0.458807564939 Eh   ::
         :::::::::::::::::::::::::::::::::::::::::::::::::::::

           -------------------------------------------------
          | TOTAL ENERGY             -120.958609022288 Eh   |
          | TOTAL ENTHALPY           -120.399463165421 Eh   |
          | TOTAL FREE ENERGY        -120.499801457349 Eh   |
          | GRADIENT NORM               0.000047386178 Eh/α |
          | HOMO-LUMO GAP               2.527812510791 eV   |
           -------------------------------------------------

 * finished run on 2025/08/25 at 03:18:02.417
