   * xtb version 6.7.1 (edcfbbe) compiled by 'albert@albert-system' on 2024-07-22

   ID    Z sym.   atoms
    1    6 C      1-3, 5-16, 18, 20-23, 25-39, 41-45
    2    7 N      4, 17, 19, 24, 40
    3    1 H      46-70

          program call               : xtb data2507/toluene/2CzCbPy/2CzCbPy.xyz --gfn 2 --gbsa toluene --ohess vtight --parallel 40 --molden --ceasefiles --namespace data2507/toluene/2CzCbPy/2CzCbPy_toluene_S0_preOpt
      * Solvation model:               GBSA
        Solvent                        toluene
        Solvent mass                       9.2140E+01 g/mol
          :  Hamiltonian                  GFN2-xTB          :
 * total energy  :  -113.1559901 Eh     change       -0.2842896E-08 Eh
 * total energy  :  -113.1737388 Eh     change       -0.1774864E-01 Eh
 * total energy  :  -113.1781448 Eh     change       -0.4405976E-02 Eh
 * total energy  :  -113.1790804 Eh     change       -0.9356370E-03 Eh
 * total energy  :  -113.1799068 Eh     change       -0.8263813E-03 Eh
 * total energy  :  -113.1802521 Eh     change       -0.3452952E-03 Eh
 * total energy  :  -113.1804615 Eh     change       -0.2094102E-03 Eh
 * total energy  :  -113.1805918 Eh     change       -0.1303224E-03 Eh
 * total energy  :  -113.1806836 Eh     change       -0.9180867E-04 Eh
 * total energy  :  -113.1807682 Eh     change       -0.8455797E-04 Eh
 * total energy  :  -113.1813861 Eh     change       -0.5321205E-06 Eh
 * total energy  :  -113.1813865 Eh     change       -0.4553471E-06 Eh
 * total energy  :  -113.1813869 Eh     change       -0.3620513E-06 Eh
 * total energy  :  -113.1813872 Eh     change       -0.2835673E-06 Eh
 * total energy  :  -113.1813874 Eh     change       -0.2541343E-06 Eh
 * total energy  :  -113.1813877 Eh     change       -0.2728683E-06 Eh
 * total energy  :  -113.1813880 Eh     change       -0.3541140E-06 Eh
 * total energy  :  -113.1813885 Eh     change       -0.4376510E-06 Eh
 * total energy  :  -113.1813885 Eh     change       -0.1735472E-08 Eh
   *** GEOMETRY OPTIMIZATION CONVERGED AFTER 68 ITERATIONS ***

 final structure:
================
70
 xtb: 6.7.1 (edcfbbe)
C            2.37606177377416        3.20664872837830        0.27190006789848
C            3.59747724279091        2.59958558228732        0.50290595407926
C            3.70181638347459        1.22698725949281        0.26201155920062
N            4.90539069030420        0.55155991719271        0.39688182899484
C            5.05012309811506       -0.74368138771484        0.88296392453995
C            4.08599066071248       -1.63943168991473        1.31740528367227
C            4.51115776157198       -2.86850782872103        1.78811711326743
C            5.86220346397825       -3.20269625570042        1.83474799442297
C            6.82751807134323       -2.30938813153615        1.41303626283823
C            6.42194263424813       -1.07065627117791        0.93368855766794
C            7.13759971461456        0.06589297818739        0.41932167836985
C            8.48504220083332        0.30801529422866        0.18870831464527
C            8.85357607528782        1.50799752068508       -0.38756834357964
C            7.89184876416090        2.44481252501080       -0.75419192418442
C            6.54435781504423        2.22504971189565       -0.52957976621560
C            6.16923198478609        1.04081411130457        0.08872891818871
N            2.65331106213369        0.49023047129636       -0.08506779637436
C            1.47413974770441        1.07024477165425       -0.26067732679668
N            0.43124779682872        0.22084955059688       -0.62104187833003
C           -0.91575127086066        0.36746112247400       -0.31492866874305
C           -1.55042441469526        1.25803296021263        0.54161190332842
C           -2.91974145993759        1.16219588892579        0.68892386321800
C           -3.66924470521387        0.20009637373844       -0.00005680129843
N           -5.06214992540687        0.16245434157112        0.16907525306717
C           -5.80855983756708       -0.94844034216324        0.50960675936403
C           -5.39103127133877       -2.23992473898579        0.79980913119752
C           -6.35566617899541       -3.16812141280993        1.14269123099914
C           -7.70550487990279       -2.82667777194208        1.20498389200714
C           -8.12480312276074       -1.53870119306695        0.93753814986293
C           -7.17352244137820       -0.58700519436574        0.59171064807157
C           -7.24499454937827        0.81278106349466        0.27742382769719
C           -8.29279712556841        1.71996939889573        0.18210934779819
C           -8.00945964901369        3.02475220954512       -0.17003966973830
C           -6.70265164765368        3.42584992194204       -0.44142661735887
C           -5.64388293715059        2.54223439737034       -0.35271889966818
C           -5.91915324572150        1.23500797211826        0.02425818737146
C           -3.03859101033195       -0.72032510259760       -0.82414272280456
C           -1.66065513683432       -0.64475405657816       -0.96283024382474
C           -0.71188597211283       -1.45630884626672       -1.67324871293404
N           -0.91614293042110       -2.52885969614723       -2.42547695873709
C            0.15816199655930       -3.08770035851642       -2.95281842593895
C            1.45720576982641       -2.61586812696073       -2.76817639627671
C            1.68480344215232       -1.49508042279898       -1.98623815116899
C            0.56791650451273       -0.90208222349407       -1.41917695228943
C            1.29271755824381        2.44840095712551       -0.14065797834998
H            2.26660899918927        4.27172094147755        0.41292334602795
H            4.43872724227547        3.16068789158740        0.87279658342230
H            3.03848846765067       -1.38893013608455        1.27778611860994
H            3.77664123106055       -3.58503884670684        2.12562540036038
H            6.15508976606216       -4.17323694401089        2.20722563705969
H            7.87584017289838       -2.56387005589011        1.45309837961873
H            9.22460373064936       -0.43472980399441        0.44651804285244
H            9.89619434748560        1.71795333153295       -0.57441291582622
H            8.20161213446332        3.36254091244286       -1.23214655307845
H            5.81594594324005        2.95124280562210       -0.85509187371185
H           -0.99953334331675        1.98888486694699        1.11146649134730
H           -3.43055647076737        1.83237520317992        1.36369302220789
H           -4.34686590994486       -2.51209030726508        0.76615894804977
H           -6.05601084512837       -4.18097732955674        1.36969388823364
H           -8.42932224207564       -3.58214589523259        1.47377185874761
H           -9.16922334059219       -1.27106847923020        0.99878542898486
H           -9.30751460769788        1.40603281929258        0.37670865788582
H           -8.81005625349935        3.74587990266259       -0.24737010506369
H           -6.51389723541312        4.44956118008721       -0.73082972953505
H           -4.63687694277812        2.85801166960496       -0.58028090367259
H           -3.59568660415150       -1.47926852068497       -1.34944079190693
H           -0.02880132916057       -3.96457483960627       -3.55852648640123
H            2.28392383985570       -3.12913434461404       -3.23389348722645
H            2.67764929966054       -1.11106355468142       -1.81491763426296
H            0.34879344927022        2.90752155494243       -0.37943573986671

          :  Hamiltonian                  GFN2-xTB          :
         :: gradient norm              0.000034986231 Eh/a0 ::
         :: HOMO-LUMO gap              2.411661457737 eV    ::
         :: SCC energy              -115.251548499123 Eh    ::
         :: -> dispersion             -0.099929345677 Eh    ::
         :: -> Gsolv                  -0.046355372528 Eh    ::
         :: repulsion energy           2.070160016313 Eh    ::

    * Orbital Energies and Occupations

         #    Occupation            Energy/Eh            Energy/eV
      -------------------------------------------------------------
         1        2.0000           -0.6943728             -18.8948
       ...           ...                  ...                  ...
        93        2.0000           -0.4208982             -11.4532
        94        2.0000           -0.4176626             -11.3652
        95        2.0000           -0.4164735             -11.3328
        96        2.0000           -0.4107317             -11.1766
        97        2.0000           -0.4039923             -10.9932
        98        2.0000           -0.3995360             -10.8719
        99        2.0000           -0.3941962             -10.7266
       100        2.0000           -0.3863099             -10.5120
       101        2.0000           -0.3844089             -10.4603
       102        2.0000           -0.3772916             -10.2666
       103        2.0000           -0.3734587             -10.1623
       104        2.0000           -0.3716640             -10.1135
       105        2.0000           -0.3601660              -9.8006 (HOMO)
       106                         -0.2715391              -7.3890 (LUMO)
       107                         -0.2633042              -7.1649
       108                         -0.2573127              -7.0018
       109                         -0.2472202              -6.7272
       110                         -0.2464430              -6.7061
       111                         -0.2413559              -6.5676
       112                         -0.2274659              -6.1897
       113                         -0.2206699              -6.0047
       114                         -0.2148094              -5.8453
       115                         -0.2057903              -5.5998
       116                         -0.1958918              -5.3305
       ...                                ...                  ...
       205                          0.7457571              20.2931
      -------------------------------------------------------------
                  HL-Gap            0.0886269 Eh            2.4117 eV

     #   Z          covCN         q      C6AA      α(0)
     1   6 C        2.929    -0.013    28.349     8.732
     2   6 C        2.915    -0.067    29.677     8.933
     3   6 C        2.891     0.154    24.659     8.141
     4   7 N        2.804    -0.046    22.130     6.987
     5   6 C        3.064     0.053    26.752     8.481
     6   6 C        2.910    -0.047    29.163     8.855
     7   6 C        2.924    -0.033    28.830     8.805
     8   6 C        2.920    -0.039    28.977     8.827
     9   6 C        2.913    -0.034    28.848     8.807
    10   6 C        3.064    -0.016    28.340     8.730
    11   6 C        3.065    -0.014    28.293     8.722
    12   6 C        2.913    -0.033    28.827     8.804
    13   6 C        2.920    -0.039    28.980     8.828
    14   6 C        2.923    -0.034    28.841     8.807
    15   6 C        2.910    -0.052    29.290     8.874
    16   6 C        3.060     0.046    26.909     8.507
    17   7 N        1.857    -0.275    27.985     7.841
    18   6 C        2.892     0.152    24.709     8.150
    19   7 N        2.802    -0.045    22.109     6.984
    20   6 C        3.068     0.043    26.964     8.515
    21   6 C        2.910    -0.049    29.219     8.864
    22   6 C        2.926    -0.043    29.079     8.843
    23   6 C        2.913     0.058    26.692     8.472
    24   7 N        2.802    -0.044    22.089     6.980
    25   6 C        3.075     0.047    26.879     8.500
    26   6 C        2.909    -0.052    29.280     8.873
    27   6 C        2.924    -0.034    28.859     8.810
    28   6 C        2.920    -0.043    29.057     8.840
    29   6 C        2.912    -0.035    28.867     8.810
    30   6 C        3.068    -0.018    28.398     8.738
    31   6 C        3.067    -0.018    28.395     8.738
    32   6 C        2.912    -0.035    28.864     8.810
    33   6 C        2.919    -0.043    29.067     8.841
    34   6 C        2.923    -0.035    28.879     8.813
    35   6 C        2.910    -0.053    29.304     8.877
    36   6 C        3.075     0.046    26.886     8.501
    37   6 C        2.915    -0.041    29.020     8.834
    38   6 C        3.063    -0.019    28.427     8.743
    39   6 C        3.070     0.074    26.280     8.406
    40   7 N        1.832    -0.250    27.351     7.750
    41   6 C        2.923     0.052    26.840     8.496
    42   6 C        2.922    -0.045    29.123     8.850
    43   6 C        2.915    -0.030    28.749     8.792
    44   6 C        3.068     0.047    26.885     8.502
    45   6 C        2.915    -0.069    29.729     8.941
    46   1 H        0.926     0.052     2.293     2.368
    47   1 H        0.926     0.051     2.302     2.372
    48   1 H        0.926     0.042     2.423     2.434
    49   1 H        0.926     0.034     2.525     2.485
    50   1 H        0.926     0.034     2.526     2.485
    51   1 H        0.926     0.037     2.492     2.469
    52   1 H        0.926     0.038     2.481     2.463
    53   1 H        0.926     0.035     2.519     2.482
    54   1 H        0.926     0.036     2.504     2.475
    55   1 H        0.926     0.032     2.553     2.499
    56   1 H        0.926     0.048     2.350     2.397
    57   1 H        0.926     0.053     2.286     2.365
    58   1 H        0.926     0.030     2.591     2.517
    59   1 H        0.926     0.031     2.578     2.511
    60   1 H        0.926     0.028     2.609     2.526
    61   1 H        0.926     0.031     2.574     2.509
    62   1 H        0.926     0.031     2.577     2.510
    63   1 H        0.926     0.028     2.616     2.529
    64   1 H        0.926     0.030     2.587     2.515
    65   1 H        0.926     0.029     2.604     2.523
    66   1 H        0.926     0.058     2.225     2.332
    67   1 H        0.925     0.038     2.469     2.457
    68   1 H        0.926     0.045     2.389     2.417
    69   1 H        0.926     0.053     2.277     2.360
    70   1 H        0.926     0.051     2.309     2.376

molecular dipole:
                 x           y           z       tot (Debye)
 q only:        1.110       0.895       0.300
   full:        1.477       1.451       0.375       5.348

 projected vibrational frequencies (cm⁻¹)
eigval :       -0.00    -0.00     0.00     0.00     0.00     0.00
eigval :        9.34    16.69    19.11    25.99    34.32    38.12
eigval :       58.70    67.39    90.04    94.03    99.64   104.59
eigval :      122.27   137.07   141.25   149.17   152.45   179.10
eigval :      204.60   219.62   230.29   247.39   252.11   272.09
eigval :      273.95   283.70   293.30   310.13   336.93   344.89
eigval :      361.22   391.51   393.26   398.25   403.16   411.11
eigval :      422.73   423.65   426.83   434.91   436.74   437.89
eigval :      472.46   516.20   517.48   526.08   529.17   537.47
eigval :      539.69   542.20   546.83   561.43   566.75   587.28
eigval :      587.93   607.36   613.71   617.65   626.33   629.81
eigval :      644.42   673.81   674.25   679.14   686.64   700.65
eigval :      707.20   709.57   711.57   728.57   751.23   754.83
eigval :      763.22   767.66   768.37   777.91   779.99   795.70
eigval :      797.32   804.34   829.36   864.66   867.01   870.52
eigval :      871.89   881.77   889.99   895.71   897.48   900.34
eigval :      901.33   901.83   902.47   903.62   903.95   914.86
eigval :      917.17   918.72   919.33   922.37   922.70   925.27
eigval :      933.33   973.99  1008.39  1011.31  1012.61  1024.35
eigval :     1039.95  1068.81  1069.57  1072.09  1075.26  1084.76
eigval :     1107.70  1112.66  1123.01  1133.85  1148.40  1149.90
eigval :     1151.63  1160.22  1168.24  1174.40  1178.93  1179.68
eigval :     1181.57  1183.97  1194.92  1214.23  1226.63  1230.90
eigval :     1235.26  1242.02  1243.88  1269.95  1286.74  1289.29
eigval :     1295.83  1299.89  1300.83  1302.68  1323.01  1326.17
eigval :     1338.43  1353.73  1354.89  1356.00  1359.05  1362.37
eigval :     1371.32  1384.20  1411.61  1416.51  1420.73  1424.15
eigval :     1426.69  1435.45  1443.90  1469.91  1472.01  1473.99
eigval :     1483.76  1484.94  1486.95  1554.80  1555.51  1562.45
eigval :     1566.53  1573.37  1576.05  1582.78  1587.43  1587.76
eigval :     1597.13  1597.27  1604.42  1610.38  1612.84  3058.54
eigval :     3070.62  3071.67  3075.59  3076.48  3077.27  3077.70
eigval :     3082.45  3082.62  3084.00  3084.44  3085.32  3091.02
eigval :     3091.63  3093.15  3093.21  3093.62  3093.66  3098.59
eigval :     3105.60  3106.37  3111.17  3112.88  3119.29  3121.59

   temp. (K)  partition function   enthalpy   heat capacity  entropy
                                   cal/mol     cal/K/mol   cal/K/mol   J/K/mol
 298.15  VIB  0.154E+15            19155.094    126.331    116.632
         ROT  0.710E+08              888.752      2.981     38.907
         INT  0.109E+23            20043.846    129.312    155.539
         TR   0.134E+29             1481.254      4.968     44.915
         TOT                       21525.1002   134.2802   200.4541   838.6998

       T/K    H(0)-H(T)+PV         H(T)/Eh          T*S/Eh         G(T)/Eh
   ------------------------------------------------------------------------
    298.15    0.343024E-01    0.563390E+00    0.952422E-01    0.468148E+00
   ------------------------------------------------------------------------

         :::::::::::::::::::::::::::::::::::::::::::::::::::::
         ::                  THERMODYNAMIC                  ::
         :::::::::::::::::::::::::::::::::::::::::::::::::::::
         :: total free energy        -112.713240278361 Eh   ::
         ::.................................................::
         :: total energy             -113.181388483850 Eh   ::
         :: zero point energy           0.529087973094 Eh   ::
         :: G(RRHO) w/o ZPVE           -0.060939767604 Eh   ::
         :: G(RRHO) contrib.            0.468148205489 Eh   ::
         :::::::::::::::::::::::::::::::::::::::::::::::::::::

           -------------------------------------------------
          | TOTAL ENERGY             -113.181388483850 Eh   |
          | TOTAL ENTHALPY           -112.617998080195 Eh   |
          | TOTAL FREE ENERGY        -112.713240278361 Eh   |
          | GRADIENT NORM               0.000034985893 Eh/α |
          | HOMO-LUMO GAP               2.411661323761 eV   |
           -------------------------------------------------

 * finished run on 2025/09/13 at 01:35:05.526
