   * xtb version 6.7.1 (edcfbbe) compiled by 'albert@albert-system' on 2024-07-22

   ID    Z sym.   atoms
    1    6 C      1-3, 5-16, 18, 20-23, 25-39, 41-45
    2    7 N      4, 17, 19, 24, 40
    3    1 H      46-70

          program call               : xtb data2507/toluene/2CzCbPy/2CzCbPy_toluene_S0_crest.xyz --gfn 2 --gbsa toluene --ohess vtight --parallel 40 --molden --ceasefiles --namespace data2507/toluene/2CzCbPy/2CzCbPy_toluene_S0_finalOpt
      * Solvation model:               GBSA
        Solvent                        toluene
        Solvent mass                       9.2140E+01 g/mol
          :  Hamiltonian                  GFN2-xTB          :
 * total energy  :  -113.1811641 Eh     change       -0.3756199E-08 Eh
 * total energy  :  -113.1811926 Eh     change       -0.2846674E-04 Eh
 * total energy  :  -113.1812056 Eh     change       -0.1303584E-04 Eh
 * total energy  :  -113.1812112 Eh     change       -0.5655187E-05 Eh
 * total energy  :  -113.1812180 Eh     change       -0.6791791E-05 Eh
 * total energy  :  -113.1812223 Eh     change       -0.4249373E-05 Eh
 * total energy  :  -113.1812275 Eh     change       -0.5216678E-05 Eh
 * total energy  :  -113.1812343 Eh     change       -0.6745164E-05 Eh
 * total energy  :  -113.1812406 Eh     change       -0.6365942E-05 Eh
 * total energy  :  -113.1812456 Eh     change       -0.4967767E-05 Eh
 * total energy  :  -113.1813453 Eh     change       -0.2231413E-06 Eh
 * total energy  :  -113.1813455 Eh     change       -0.2395585E-06 Eh
 * total energy  :  -113.1813457 Eh     change       -0.2422686E-06 Eh
 * total energy  :  -113.1813460 Eh     change       -0.2183846E-06 Eh
 * total energy  :  -113.1813462 Eh     change       -0.2045315E-06 Eh
 * total energy  :  -113.1813464 Eh     change       -0.2067238E-06 Eh
 * total energy  :  -113.1813466 Eh     change       -0.2266735E-06 Eh
 * total energy  :  -113.1813468 Eh     change       -0.2417935E-06 Eh
 * total energy  :  -113.1813468 Eh     change       -0.1691660E-08 Eh
   *** GEOMETRY OPTIMIZATION CONVERGED AFTER 68 ITERATIONS ***

 final structure:
================
70
 xtb: 6.7.1 (edcfbbe)
C            4.06658311762207       -3.18796712343644        0.97513024542191
C            4.59370825850432       -1.93114939970903        0.74029452466985
C            3.71941924847542       -0.92001681376175        0.32980140823355
N            4.14728226551558        0.38295450982412        0.13052369920719
C            3.67462509503179        1.23937731903792       -0.86014756237896
C            2.68067944339502        1.04024462745685       -1.80526913392028
C            2.42895736791608        2.06102936341619       -2.70413803030532
C            3.14939798169104        3.25222873409777       -2.67428431617453
C            4.14753135818591        3.45195358444127       -1.74072511597916
C            4.41345052790555        2.44113167321971       -0.82623423516054
C            5.34919610954811        2.32208859206769        0.25956684317767
C            6.29378445039427        3.18996966902454        0.79037000292128
C            7.01007953750039        2.79035088212609        1.90174069057958
C            6.76869567083310        1.55493990365417        2.49509530574794
C            5.83502316940643        0.67358177077223        1.97912681523641
C            5.14556618322417        1.04716853515861        0.83425113139749
N            2.43885617969318       -1.15948558088173        0.07569367361837
C            1.94883144522080       -2.37753209362022        0.25669191489012
N            0.60282515599456       -2.54188072764571       -0.06178942456483
C           -0.38061612334352       -1.56979395016871        0.08549062176021
C           -0.28045794524557       -0.27220440654549        0.56577910797844
C           -1.43206677712232        0.48456478967790        0.63594141449749
C           -2.67268681511845       -0.02265292058541        0.22628644676775
N           -3.80939250620793        0.79824974263420        0.29825312150797
C           -5.01189864077666        0.46585499308650        0.88933050840143
C           -5.37280110861223       -0.68672146342217        1.57347193077165
C           -6.64908056592165       -0.75293712696044        2.09900870301120
C           -7.55016807650300        0.30104072481231        1.95805907531201
C           -7.19040933969699        1.45825803784046        1.29641542070665
C           -5.91216240159450        1.54911654860534        0.75982679107352
C           -5.21030196883415        2.57976677237911        0.04694535304708
C           -5.56209762498918        3.85170991835788       -0.38739526882057
C           -4.62866220744664        4.59612181403936       -1.08096471189550
C           -3.36277098017078        4.08174544393332       -1.35560618198213
C           -2.98937732056963        2.81964213399217       -0.93457221594632
C           -3.91552807168884        2.07509326571137       -0.21671222201449
C           -2.78023185980976       -1.32257591728864       -0.24549025365487
C           -1.63058760826208       -2.09733320978764       -0.30415053848818
C           -1.38714001595464       -3.44625528241988       -0.73241074500182
N           -2.23797136935384       -4.34284246743605       -1.20873859778587
C           -1.72763515074710       -5.50505571486182       -1.57371260604655
C           -0.36948786548923       -5.81100507408851       -1.51785086124679
C            0.53213460826459       -4.88317173228166       -1.02016948129296
C            0.00749157983129       -3.67639178853382       -0.58084680427230
C            2.71917469402975       -3.42696378701529        0.75689375459756
H            4.70535785055803       -3.98518639919332        1.32558054717785
H            5.64755231090475       -1.74024636055264        0.84962804141252
H            2.11424557200725        0.12393217746660       -1.82951632039644
H            1.65338292964803        1.92969775677733       -3.44456134539709
H            2.92200054899820        4.02739792940001       -3.39123434862405
H            4.71111155494409        4.37238186488824       -1.71766027812288
H            6.45351571597710        4.16063245755419        0.34609516746585
H            7.75205908719170        3.44794421774833        2.32960633645455
H            7.31669301826046        1.27811024835733        3.38374292179795
H            5.64093790778526       -0.26199079046734        2.48001418944402
H            0.66960648985591        0.13489965096672        0.86857191132602
H           -1.38438102270566        1.49132446500147        1.02225925424924
H           -4.67792327450638       -1.50330123168411        1.69947904908278
H           -6.95450627341227       -1.64106432002992        2.63310791895354
H           -8.54006624702771        0.20956231313701        2.38082427213783
H           -7.88428530962242        2.27999380428209        1.19896670612874
H           -6.54784844078833        4.24482124915130       -0.18754858496374
H           -4.88141524339212        5.58851454656471       -1.42492902293581
H           -2.65811476377586        4.68192575889818       -1.91283512046791
H           -2.01154849491568        2.42504208963839       -1.16630021654030
H           -3.72540118655893       -1.72614695897759       -0.57164575209920
H           -2.44085298385737       -6.22605553786442       -1.95006716983229
H           -0.02075792441481       -6.76830277624895       -1.87219587924970
H            1.59007281140509       -5.09685394251879       -1.00501899728487
H            2.27903832832398       -4.38335906492224        0.98211001838778

          :  Hamiltonian                  GFN2-xTB          :
         :: gradient norm              0.000031060018 Eh/a0 ::
         :: HOMO-LUMO gap              2.354977190333 eV    ::
         :: SCC energy              -115.251496644475 Eh    ::
         :: -> dispersion             -0.100210993389 Eh    ::
         :: -> Gsolv                  -0.046201466621 Eh    ::
         :: repulsion energy           2.070149810086 Eh    ::

    * Orbital Energies and Occupations

         #    Occupation            Energy/Eh            Energy/eV
      -------------------------------------------------------------
         1        2.0000           -0.6944539             -18.8971
       ...           ...                  ...                  ...
        93        2.0000           -0.4192246             -11.4077
        94        2.0000           -0.4158864             -11.3168
        95        2.0000           -0.4149226             -11.2906
        96        2.0000           -0.4101748             -11.1614
        97        2.0000           -0.4023121             -10.9475
        98        2.0000           -0.3992263             -10.8635
        99        2.0000           -0.3918610             -10.6631
       100        2.0000           -0.3857844             -10.4977
       101        2.0000           -0.3839181             -10.4469
       102        2.0000           -0.3759965             -10.2314
       103        2.0000           -0.3756210             -10.2212
       104        2.0000           -0.3714525             -10.1077
       105        2.0000           -0.3583585              -9.7514 (HOMO)
       106                         -0.2718147              -7.3965 (LUMO)
       107                         -0.2633993              -7.1675
       108                         -0.2580218              -7.0211
       109                         -0.2469570              -6.7200
       110                         -0.2449805              -6.6663
       111                         -0.2399464              -6.5293
       112                         -0.2269825              -6.1765
       113                         -0.2190005              -5.9593
       114                         -0.2139595              -5.8221
       115                         -0.2054964              -5.5918
       116                         -0.1954654              -5.3189
       ...                                ...                  ...
       205                          0.7473715              20.3370
      -------------------------------------------------------------
                  HL-Gap            0.0865438 Eh            2.3550 eV

     #   Z          covCN         q      C6AA      α(0)
     1   6 C        2.929    -0.014    28.355     8.733
     2   6 C        2.915    -0.068    29.682     8.934
     3   6 C        2.890     0.154    24.664     8.142
     4   7 N        2.804    -0.045    22.107     6.983
     5   6 C        3.063     0.053    26.758     8.483
     6   6 C        2.910    -0.047    29.168     8.856
     7   6 C        2.924    -0.033    28.824     8.804
     8   6 C        2.920    -0.039    28.969     8.826
     9   6 C        2.913    -0.034    28.846     8.807
    10   6 C        3.064    -0.015    28.332     8.728
    11   6 C        3.065    -0.014    28.286     8.721
    12   6 C        2.913    -0.033    28.825     8.804
    13   6 C        2.920    -0.039    28.976     8.827
    14   6 C        2.923    -0.034    28.842     8.807
    15   6 C        2.910    -0.052    29.286     8.874
    16   6 C        3.059     0.046    26.914     8.508
    17   7 N        1.858    -0.273    27.938     7.834
    18   6 C        2.891     0.152    24.714     8.151
    19   7 N        2.801    -0.044    22.096     6.981
    20   6 C        3.073     0.051    26.783     8.485
    21   6 C        2.910    -0.044    29.082     8.843
    22   6 C        2.927    -0.042    29.055     8.840
    23   6 C        2.913     0.059    26.686     8.471
    24   7 N        2.802    -0.044    22.084     6.979
    25   6 C        3.075     0.047    26.879     8.500
    26   6 C        2.909    -0.052    29.286     8.874
    27   6 C        2.924    -0.035    28.869     8.811
    28   6 C        2.919    -0.043    29.067     8.841
    29   6 C        2.912    -0.035    28.871     8.811
    30   6 C        3.067    -0.019    28.400     8.739
    31   6 C        3.067    -0.018    28.400     8.738
    32   6 C        2.912    -0.035    28.871     8.811
    33   6 C        2.919    -0.043    29.067     8.841
    34   6 C        2.924    -0.035    28.873     8.812
    35   6 C        2.909    -0.052    29.297     8.875
    36   6 C        3.075     0.046    26.883     8.501
    37   6 C        2.915    -0.042    29.038     8.837
    38   6 C        3.061    -0.021    28.467     8.749
    39   6 C        3.071     0.076    26.233     8.398
    40   7 N        1.832    -0.247    27.301     7.743
    41   6 C        2.922     0.051    26.854     8.498
    42   6 C        2.920    -0.046    29.144     8.853
    43   6 C        2.915    -0.036    28.904     8.816
    44   6 C        3.062     0.037    27.103     8.537
    45   6 C        2.915    -0.069    29.727     8.941
    46   1 H        0.926     0.051     2.304     2.374
    47   1 H        0.926     0.052     2.299     2.371
    48   1 H        0.926     0.044     2.392     2.418
    49   1 H        0.926     0.035     2.521     2.483
    50   1 H        0.926     0.034     2.525     2.485
    51   1 H        0.926     0.037     2.492     2.469
    52   1 H        0.926     0.038     2.480     2.462
    53   1 H        0.926     0.035     2.519     2.482
    54   1 H        0.926     0.036     2.505     2.475
    55   1 H        0.926     0.033     2.547     2.496
    56   1 H        0.926     0.059     2.211     2.325
    57   1 H        0.926     0.052     2.291     2.367
    58   1 H        0.926     0.029     2.597     2.520
    59   1 H        0.926     0.030     2.588     2.516
    60   1 H        0.926     0.028     2.617     2.530
    61   1 H        0.926     0.030     2.580     2.512
    62   1 H        0.926     0.030     2.582     2.513
    63   1 H        0.926     0.028     2.618     2.530
    64   1 H        0.926     0.030     2.580     2.512
    65   1 H        0.926     0.031     2.576     2.510
    66   1 H        0.926     0.057     2.237     2.339
    67   1 H        0.925     0.039     2.466     2.456
    68   1 H        0.926     0.045     2.385     2.415
    69   1 H        0.926     0.041     2.433     2.439
    70   1 H        0.926     0.048     2.349     2.396

molecular dipole:
                 x           y           z       tot (Debye)
 q only:        1.527      -0.318       0.278
   full:        2.214      -0.868       0.442       6.148

 projected vibrational frequencies (cm⁻¹)
eigval :       -0.00    -0.00    -0.00    -0.00     0.00     0.00
eigval :       10.79    15.39    17.65    28.98    30.89    39.47
eigval :       58.33    69.43    84.19    99.40   103.43   111.22
eigval :      130.22   135.07   137.85   146.13   157.43   173.91
eigval :      206.83   214.84   230.00   239.22   262.17   273.73
eigval :      274.16   278.51   297.77   301.99   338.51   348.24
eigval :      371.86   386.46   393.72   398.82   401.01   411.91
eigval :      423.16   424.16   427.82   435.02   437.57   437.82
eigval :      471.04   516.42   517.48   526.57   529.83   537.32
eigval :      539.35   542.69   547.45   561.40   568.74   587.49
eigval :      587.95   607.10   613.47   619.21   624.30   631.01
eigval :      643.93   672.64   674.91   677.66   688.03   701.18
eigval :      707.44   710.09   712.74   727.42   751.18   754.80
eigval :      763.58   767.33   768.79   778.00   779.47   788.85
eigval :      801.35   804.28   831.19   865.28   868.64   870.70
eigval :      872.72   883.20   888.65   895.54   897.23   898.04
eigval :      899.00   900.55   901.74   905.30   905.64   914.53
eigval :      914.95   920.20   921.96   922.59   923.32   924.97
eigval :      931.17   973.78  1008.23  1011.05  1012.28  1030.67
eigval :     1035.17  1069.26  1069.45  1072.69  1075.22  1091.43
eigval :     1107.09  1115.84  1123.04  1137.64  1144.47  1149.93
eigval :     1150.85  1162.00  1168.86  1175.23  1179.09  1180.15
eigval :     1181.10  1182.45  1195.72  1213.78  1224.63  1230.53
eigval :     1236.19  1241.03  1243.99  1266.61  1285.48  1288.71
eigval :     1296.11  1299.32  1302.05  1303.86  1323.14  1329.92
eigval :     1337.17  1353.36  1354.29  1356.02  1358.09  1361.85
eigval :     1371.88  1388.83  1408.70  1416.55  1421.11  1424.16
eigval :     1427.22  1434.15  1447.27  1468.46  1471.98  1473.29
eigval :     1483.57  1484.46  1486.82  1554.52  1555.38  1562.23
eigval :     1569.96  1573.78  1576.18  1580.40  1587.06  1587.42
eigval :     1596.98  1597.07  1605.05  1610.13  1612.87  3061.56
eigval :     3070.49  3070.83  3073.95  3076.02  3076.67  3076.99
eigval :     3081.22  3081.53  3082.46  3083.09  3084.22  3085.36
eigval :     3090.75  3090.90  3092.28  3093.16  3096.82  3097.53
eigval :     3098.92  3110.78  3114.42  3119.60  3120.74  3122.48

   temp. (K)  partition function   enthalpy   heat capacity  entropy
                                   cal/mol     cal/K/mol   cal/K/mol   J/K/mol
 298.15  VIB  0.138E+15            19138.591    126.321    116.387
         ROT  0.687E+08              888.752      2.981     38.842
         INT  0.945E+22            20027.343    129.302    155.229
         TR   0.134E+29             1481.254      4.968     44.915
         TOT                       21508.5971   134.2704   200.1445   837.4046

       T/K    H(0)-H(T)+PV         H(T)/Eh          T*S/Eh         G(T)/Eh
   ------------------------------------------------------------------------
    298.15    0.342761E-01    0.563412E+00    0.950951E-01    0.468317E+00
   ------------------------------------------------------------------------

         :::::::::::::::::::::::::::::::::::::::::::::::::::::
         ::                  THERMODYNAMIC                  ::
         :::::::::::::::::::::::::::::::::::::::::::::::::::::
         :: total free energy        -112.713029983623 Eh   ::
         ::.................................................::
         :: total energy             -113.181346833902 Eh   ::
         :: zero point energy           0.529135828418 Eh   ::
         :: G(RRHO) w/o ZPVE           -0.060818978139 Eh   ::
         :: G(RRHO) contrib.            0.468316850279 Eh   ::
         :::::::::::::::::::::::::::::::::::::::::::::::::::::

           -------------------------------------------------
          | TOTAL ENERGY             -113.181346833902 Eh   |
          | TOTAL ENTHALPY           -112.617934874266 Eh   |
          | TOTAL FREE ENERGY        -112.713029983623 Eh   |
          | GRADIENT NORM               0.000031065942 Eh/α |
          | HOMO-LUMO GAP               2.354977120208 eV   |
           -------------------------------------------------

 * finished run on 2025/09/13 at 01:38:47.670
