   * xtb version 6.7.1 (edcfbbe) compiled by 'albert@albert-system' on 2024-07-22

   ID    Z sym.   atoms
    1    6 C      1-3, 5-16, 18, 20-23, 25-39, 41-45
    2    7 N      4, 17, 19, 24, 40
    3    1 H      46-70

          program call               : xtb data2507/toluene/2CzCbPy/2CzCbPy_toluene_T1_crest.xyz --gfn 2 --uhf 2 --gbsa toluene --ohess vtight --parallel 40 --molden --ceasefiles --namespace data2507/toluene/2CzCbPy/2CzCbPy_toluene_T1_finalOpt
      * Solvation model:               GBSA
        Solvent                        toluene
        Solvent mass                       9.2140E+01 g/mol
          :  Hamiltonian                  GFN2-xTB          :
 * total energy  :  -113.0844436 Eh     change        0.2809628E-09 Eh
 * total energy  :  -113.0845074 Eh     change       -0.6383411E-04 Eh
 * total energy  :  -113.0845404 Eh     change       -0.3304712E-04 Eh
 * total energy  :  -113.0845534 Eh     change       -0.1294495E-04 Eh
 * total energy  :  -113.0845692 Eh     change       -0.1579672E-04 Eh
 * total energy  :  -113.0845872 Eh     change       -0.1796653E-04 Eh
 * total energy  :  -113.0846051 Eh     change       -0.1793937E-04 Eh
 * total energy  :  -113.0846191 Eh     change       -0.1399824E-04 Eh
 * total energy  :  -113.0846283 Eh     change       -0.9210026E-05 Eh
 * total energy  :  -113.0846356 Eh     change       -0.7261340E-05 Eh
 * total energy  :  -113.0846852 Eh     change       -0.3186471E-06 Eh
 * total energy  :  -113.0846855 Eh     change       -0.2499029E-06 Eh
 * total energy  :  -113.0846857 Eh     change       -0.2234960E-06 Eh
 * total energy  :  -113.0846860 Eh     change       -0.2616840E-06 Eh
 * total energy  :  -113.0846863 Eh     change       -0.3036439E-06 Eh
 * total energy  :  -113.0846865 Eh     change       -0.2357875E-06 Eh
 * total energy  :  -113.0846866 Eh     change       -0.1352245E-06 Eh
 * total energy  :  -113.0846867 Eh     change       -0.1060221E-06 Eh
 * total energy  :  -113.0846868 Eh     change       -0.2330792E-07 Eh
   *** GEOMETRY OPTIMIZATION CONVERGED AFTER 38 ITERATIONS ***

 final structure:
================
70
 xtb: 6.7.1 (edcfbbe)
C            4.13631181381873       -3.23181319027912        0.73105773275706
C            4.63323653096823       -1.94776876864674        0.49780726116710
C            3.71157286154614       -0.93443902743204        0.22913916839856
N            4.11262574543215        0.38684929649591        0.07410541013916
C            3.54653961266433        1.29810541281101       -0.80961788538368
C            2.47521997148910        1.14561816882260       -1.67661248408045
C            2.12804788133069        2.22299877296417       -2.47168748270603
C            2.82931409700791        3.42486160059925       -2.41657078084523
C            3.90410436511519        3.57922283595891       -1.56183134952751
C            4.26698952500742        2.51146778909252       -0.75202757015599
C            5.29502567524491        2.33496478329692        0.23777462900252
C            6.27046490691762        3.18058218738846        0.74740917084105
C            7.08548850678550        2.71675686083949        1.76241589791442
C            6.91175976621195        1.43847297574266        2.28459961426390
C            5.94707731552202        0.57877270251904        1.78909235820933
C            5.15693586627909        1.01842062347079        0.73590286640226
N            2.41906685620776       -1.17343049006329        0.06510191251920
C            1.95166638131302       -2.42418539013847        0.20445900280316
N            0.60068084278423       -2.59687071042601       -0.01820362623737
C           -0.36081235642712       -1.61684884816813        0.14714776186422
C           -0.23644426253533       -0.31649273700742        0.59465367393375
C           -1.36873940776537        0.48345547552146        0.64493686601240
C           -2.63031382113493       -0.02940084401245        0.26697435667612
N           -3.73980372357034        0.81085898346733        0.30647707270426
C           -4.97590096199813        0.49692597771841        0.83826189440647
C           -5.38506524413227       -0.65021649382032        1.50594984034066
C           -6.68587283502707       -0.69404803710847        1.97647391712415
C           -7.55709610883212        0.37772272228928        1.80276363015461
C           -7.14477980493752        1.53723874921309        1.16665412788247
C           -5.84689980181823        1.60228911577424        0.68557046376038
C           -5.08912165202827        2.62905212736629        0.01637531470864
C           -5.39844461913128        3.90589496672288       -0.42446769630746
C           -4.41882476711206        4.63543591727969       -1.07806638655914
C           -3.15642929047857        4.09604185270310       -1.30838460729909
C           -2.82633936656659        2.82246732978364       -0.87893821148699
C           -3.79383050153134        2.09855993331555       -0.19374798699329
C           -2.77869957545100       -1.34695378126655       -0.14852727392035
C           -1.64375145102643       -2.16029847901860       -0.21433364436422
C           -1.42873432067108       -3.49279094451602       -0.61065168859752
N           -2.29994439344030       -4.42486265623867       -1.04292389029203
C           -1.80233107843410       -5.59038166143460       -1.41991497869144
C           -0.45409165284409       -5.89391433847613       -1.42828805219072
C            0.47968785471220       -4.94578941892664       -0.95071149733441
C           -0.02161432340506       -3.75022314401692       -0.50369598914891
C            2.78419306073104       -3.47679374331798        0.60816997270808
H            4.81044264048389       -4.02790046425593        1.00893191438254
H            5.69155132116208       -1.75193941321648        0.49913966350788
H            1.92389159112086        0.22064244980374       -1.71640364041978
H            1.29345538122691        2.12712088794660       -3.15067959848216
H            2.52760310272457        4.24413590736901       -3.05240702070676
H            4.45197802661311        4.50844938916718       -1.52023582621744
H            6.37996974232742        4.18274904953521        0.36171271378346
H            7.85343042502793        3.35642202626276        2.17126448803118
H            7.53792995295331        1.10987867331185        3.10099054108172
H            5.80728051969634       -0.39350197669196        2.23512652638966
H            0.72115825094685        0.07257441094852        0.89857212741056
H           -1.30089049875687        1.48851718588053        1.02707321098314
H           -4.71005029361746       -1.47690712807069        1.66343705077926
H           -7.02913776991264       -1.57772267491443        2.49318545325978
H           -8.56547639062456        0.30585431410929        2.18201565572969
H           -7.81596530489421        2.37450651933945        1.05229861679408
H           -6.38336683042179        4.31784543107558       -0.26701390995256
H           -4.63897439113070        5.63352887354539       -1.42626508054011
H           -2.41877819108720        4.68022324292065       -1.83779115602512
H           -1.85277315180225        2.40438167208481       -1.08103731649602
H           -3.73157821846068       -1.72424677141244       -0.48307636550082
H           -2.53374243193685       -6.31848293176785       -1.74824445705344
H           -0.11347053049516       -6.85218693727426       -1.78511111500810
H            1.53182863722917       -5.18130888405608       -0.96701834729828
H            2.36823749534618       -4.43883022248475        0.85599075059759

          :  Hamiltonian                  GFN2-xTB          :
         :: gradient norm              0.000044014718 Eh/a0 ::
         :: HOMO-LUMO gap              0.194493174664 eV    ::
         :: SCC energy              -115.138513624046 Eh    ::
         :: -> dispersion             -0.100904521095 Eh    ::
         :: -> Gsolv                  -0.047977273314 Eh    ::
         :: repulsion energy           2.053826818848 Eh    ::

    * Orbital Energies and Occupations

         #    Occupation            Energy/Eh            Energy/eV
      -------------------------------------------------------------
         1        2.0000           -0.6883665             -18.7314
       ...           ...                  ...                  ...
        94        2.0000           -0.4202896             -11.4367
        95        2.0000           -0.4161834             -11.3249
        96        2.0000           -0.4147006             -11.2846
        97        2.0000           -0.4098331             -11.1521
        98        2.0000           -0.3890030             -10.5853
        99        2.0000           -0.3869679             -10.5299
       100        2.0000           -0.3838369             -10.4447
       101        2.0000           -0.3834052             -10.4330
       102        2.0000           -0.3781346             -10.2896
       103        1.9981           -0.3699467             -10.0668
       104        1.8590           -0.3657221              -9.9518
       105        1.1429           -0.3623028              -9.8588
       106        0.9735           -0.2626780              -7.1478 (HOMO)
       107        0.0194           -0.2555299              -6.9533 (LUMO)
       108        0.0071           -0.2545595              -6.9269
       109        0.0000           -0.2495819              -6.7915
       110                         -0.2427593              -6.6058
       111                         -0.2328090              -6.3351
       112                         -0.2321493              -6.3171
       113                         -0.2268661              -6.1733
       114                         -0.2117029              -5.7607
       115                         -0.1971587              -5.3650
       116                         -0.1957679              -5.3271
       117                         -0.1908325              -5.1928
       ...                                ...                  ...
       205                          0.7391743              20.1140
      -------------------------------------------------------------
                  HL-Gap            0.0071481 Eh            0.1945 eV

     #   Z          covCN         q      C6AA      α(0)
     1   6 C        2.925    -0.027    28.667     8.780
     2   6 C        2.914    -0.074    29.849     8.959
     3   6 C        2.882     0.155    24.649     8.139
     4   7 N        2.804    -0.042    22.055     6.975
     5   6 C        3.065     0.054    26.725     8.477
     6   6 C        2.910    -0.045    29.128     8.850
     7   6 C        2.924    -0.033    28.833     8.806
     8   6 C        2.920    -0.038    28.947     8.823
     9   6 C        2.912    -0.034    28.842     8.806
    10   6 C        3.064    -0.016    28.336     8.729
    11   6 C        3.065    -0.014    28.294     8.722
    12   6 C        2.912    -0.033    28.823     8.804
    13   6 C        2.919    -0.039    28.958     8.825
    14   6 C        2.923    -0.034    28.851     8.808
    15   6 C        2.910    -0.050    29.246     8.868
    16   6 C        3.061     0.047    26.890     8.504
    17   7 N        1.855    -0.286    28.276     7.881
    18   6 C        2.884     0.138    24.984     8.195
    19   7 N        2.795    -0.028    21.792     6.933
    20   6 C        3.055     0.044    26.955     8.514
    21   6 C        2.906    -0.043    29.077     8.842
    22   6 C        2.921    -0.071    29.766     8.947
    23   6 C        2.910     0.059    26.675     8.469
    24   7 N        2.802    -0.002    21.304     6.855
    25   6 C        3.070     0.047    26.879     8.501
    26   6 C        2.909    -0.040    28.998     8.830
    27   6 C        2.922    -0.031    28.762     8.795
    28   6 C        2.920    -0.032    28.793     8.799
    29   6 C        2.912    -0.029    28.728     8.789
    30   6 C        3.064    -0.010    28.202     8.708
    31   6 C        3.064    -0.010    28.202     8.708
    32   6 C        2.912    -0.029    28.727     8.789
    33   6 C        2.920    -0.032    28.796     8.800
    34   6 C        2.922    -0.031    28.766     8.795
    35   6 C        2.909    -0.041    29.010     8.832
    36   6 C        3.070     0.047    26.877     8.501
    37   6 C        2.910    -0.052    29.289     8.874
    38   6 C        3.053    -0.033    28.757     8.795
    39   6 C        3.039     0.056    26.714     8.477
    40   7 N        1.832    -0.263    27.677     7.796
    41   6 C        2.897     0.054    26.797     8.487
    42   6 C        2.916    -0.072    29.799     8.952
    43   6 C        2.912    -0.051    29.271     8.872
    44   6 C        3.048     0.036    27.159     8.547
    45   6 C        2.913    -0.062    29.548     8.914
    46   1 H        0.926     0.042     2.427     2.436
    47   1 H        0.926     0.043     2.409     2.427
    48   1 H        0.926     0.046     2.368     2.406
    49   1 H        0.926     0.036     2.506     2.475
    50   1 H        0.926     0.036     2.501     2.473
    51   1 H        0.926     0.038     2.480     2.463
    52   1 H        0.926     0.039     2.466     2.456
    53   1 H        0.926     0.036     2.506     2.476
    54   1 H        0.926     0.036     2.503     2.474
    55   1 H        0.926     0.033     2.542     2.493
    56   1 H        0.926     0.054     2.275     2.359
    57   1 H        0.926     0.040     2.453     2.449
    58   1 H        0.926     0.044     2.394     2.420
    59   1 H        0.926     0.042     2.420     2.433
    60   1 H        0.926     0.042     2.416     2.431
    61   1 H        0.926     0.045     2.383     2.414
    62   1 H        0.926     0.045     2.388     2.416
    63   1 H        0.926     0.042     2.416     2.431
    64   1 H        0.926     0.043     2.406     2.426
    65   1 H        0.926     0.047     2.359     2.402
    66   1 H        0.926     0.046     2.369     2.407
    67   1 H        0.925     0.026     2.641     2.541
    68   1 H        0.926     0.024     2.677     2.559
    69   1 H        0.926     0.026     2.647     2.544
    70   1 H        0.926     0.042     2.428     2.437

molecular dipole:
                 x           y           z       tot (Debye)
 q only:       -0.634       2.104       0.516
   full:        0.053       1.480       0.638       4.100

 projected vibrational frequencies (cm⁻¹)
eigval :       -0.00    -0.00    -0.00     0.00     0.00     0.00
eigval :       16.17    18.83    20.69    34.95    35.77    40.57
eigval :       61.35    70.10    85.18   100.00   103.92   112.22
eigval :      131.31   134.91   141.86   150.05   159.47   172.90
eigval :      200.66   214.52   223.89   236.59   257.27   270.11
eigval :      274.54   278.38   288.46   303.28   336.99   338.78
eigval :      347.30   371.12   382.01   392.75   396.68   401.17
eigval :      412.92   416.12   419.90   424.65   435.76   437.17
eigval :      458.16   499.00   513.48   516.18   525.29   531.61
eigval :      534.65   536.31   538.98   551.98   562.86   579.02
eigval :      584.73   586.29   603.25   609.87   612.25   622.00
eigval :      627.35   652.12   667.34   670.53   673.97   674.94
eigval :      677.13   700.34   710.23   710.43   720.38   743.88
eigval :      752.98   758.53   765.50   765.85   772.68   774.89
eigval :      783.44   784.24   793.40   816.79   819.18   846.38
eigval :      867.55   871.78   873.92   877.24   878.33   879.85
eigval :      883.89   893.91   894.95   898.15   901.46   903.87
eigval :      904.22   907.10   907.98   919.40   921.97   923.08
eigval :      925.75   957.75   981.42  1005.99  1010.28  1014.20
eigval :     1025.21  1067.24  1068.36  1069.34  1073.90  1075.86
eigval :     1096.65  1101.21  1109.76  1120.45  1128.01  1139.91
eigval :     1146.06  1153.14  1163.26  1165.90  1175.68  1176.49
eigval :     1178.82  1179.88  1189.59  1199.61  1203.29  1225.52
eigval :     1227.76  1229.87  1237.67  1242.22  1257.45  1262.65
eigval :     1277.47  1283.05  1288.11  1294.54  1300.53  1311.42
eigval :     1324.85  1326.00  1333.30  1336.82  1351.30  1354.19
eigval :     1357.55  1360.18  1363.69  1371.38  1398.71  1408.47
eigval :     1410.42  1419.06  1420.77  1421.57  1431.81  1437.10
eigval :     1456.31  1462.93  1467.52  1468.93  1476.48  1482.42
eigval :     1500.83  1531.23  1541.48  1563.11  1570.02  1573.05
eigval :     1574.06  1581.10  1586.65  1589.93  1599.81  3040.69
eigval :     3075.51  3076.64  3081.36  3081.71  3082.19  3082.51
eigval :     3083.59  3086.81  3088.06  3088.78  3091.95  3093.10
eigval :     3095.94  3097.19  3097.89  3100.10  3101.62  3103.00
eigval :     3105.49  3107.78  3113.98  3114.12  3117.11  3120.41

   temp. (K)  partition function   enthalpy   heat capacity  entropy
                                   cal/mol     cal/K/mol   cal/K/mol   J/K/mol
 298.15  VIB  0.572E+14            19411.537    128.930    117.095
         ROT  0.676E+08              888.752      2.981     38.809
         INT  0.387E+22            20300.290    131.911    155.903
         TR   0.134E+29             1481.254      4.968     44.915
         TOT                       21781.5437   136.8794   200.8182   840.2234

       T/K    H(0)-H(T)+PV         H(T)/Eh          T*S/Eh         G(T)/Eh
   ------------------------------------------------------------------------
    298.15    0.347111E-01    0.558485E+00    0.954152E-01    0.463070E+00
   ------------------------------------------------------------------------

         :::::::::::::::::::::::::::::::::::::::::::::::::::::
         ::                  THERMODYNAMIC                  ::
         :::::::::::::::::::::::::::::::::::::::::::::::::::::
         :: total free energy        -112.621617029732 Eh   ::
         ::.................................................::
         :: total energy             -113.084686811785 Eh   ::
         :: zero point energy           0.523773898886 Eh   ::
         :: G(RRHO) w/o ZPVE           -0.060704116834 Eh   ::
         :: G(RRHO) contrib.            0.463069782053 Eh   ::
         :::::::::::::::::::::::::::::::::::::::::::::::::::::

           -------------------------------------------------
          | TOTAL ENERGY             -113.084686811785 Eh   |
          | TOTAL ENTHALPY           -112.526201813506 Eh   |
          | TOTAL FREE ENERGY        -112.621617029732 Eh   |
          | GRADIENT NORM               0.000043471332 Eh/α |
          | HOMO-LUMO GAP               0.194510571892 eV   |
           -------------------------------------------------

 * finished run on 2025/09/13 at 01:44:14.640
