   * xtb version 6.7.1 (edcfbbe) compiled by 'albert@albert-system' on 2024-07-22

   ID    Z sym.   atoms
    1    6 C      1-3, 5-16, 18, 20-23, 25-39, 41-45
    2    7 N      4, 17, 19, 24, 40
    3    1 H      46-70

          program call               : xtb data2507/toluene/2CzCbPy/2CzCbPy_toluene_S0_finalOpt.xtbopt.xyz --gfn 2 --uhf 2 --gbsa toluene --ohess vtight --parallel 40 --molden --ceasefiles --namespace data2507/toluene/2CzCbPy/2CzCbPy_toluene_T1_preOpt
      * Solvation model:               GBSA
        Solvent                        toluene
        Solvent mass                       9.2140E+01 g/mol
          :  Hamiltonian                  GFN2-xTB          :
 * total energy  :  -113.0811615 Eh     change       -0.5529841E-08 Eh
 * total energy  :  -113.0835777 Eh     change       -0.2416269E-02 Eh
 * total energy  :  -113.0844307 Eh     change       -0.8529965E-03 Eh
 * total energy  :  -113.0845250 Eh     change       -0.9423948E-04 Eh
 * total energy  :  -113.0845762 Eh     change       -0.5120891E-04 Eh
 * total energy  :  -113.0845897 Eh     change       -0.1351380E-04 Eh
 * total energy  :  -113.0846083 Eh     change       -0.1861063E-04 Eh
 * total energy  :  -113.0846167 Eh     change       -0.8407407E-05 Eh
 * total energy  :  -113.0846337 Eh     change       -0.1695033E-04 Eh
 * total energy  :  -113.0846435 Eh     change       -0.9816880E-05 Eh
 * total energy  :  -113.0846839 Eh     change       -0.5629760E-06 Eh
 * total energy  :  -113.0846843 Eh     change       -0.3845993E-06 Eh
 * total energy  :  -113.0846846 Eh     change       -0.3401803E-06 Eh
 * total energy  :  -113.0846850 Eh     change       -0.3478357E-06 Eh
 * total energy  :  -113.0846852 Eh     change       -0.2389019E-06 Eh
 * total energy  :  -113.0846853 Eh     change       -0.1327288E-06 Eh
 * total energy  :  -113.0846854 Eh     change       -0.1088040E-06 Eh
 * total energy  :  -113.0846856 Eh     change       -0.1208995E-06 Eh
 * total energy  :  -113.0846856 Eh     change       -0.7969886E-07 Eh
   *** GEOMETRY OPTIMIZATION CONVERGED AFTER 32 ITERATIONS ***

 final structure:
================
70
 xtb: 6.7.1 (edcfbbe)
C            4.07994708063218       -3.18789669814047        0.89445245505457
C            4.59899239453060       -1.91198118039015        0.66315310432174
C            3.70651193808595       -0.90325319468348        0.29951378206505
N            4.13713285748404        0.40529913601671        0.11404540849876
C            3.67282205209351        1.26903325578589       -0.86943317559340
C            2.68275835155682        1.07728487508512       -1.82084369460588
C            2.43288345597405        2.10718066855431       -2.70980737397051
C            3.15238365645371        3.29879117219366       -2.66415635863187
C            4.14681876964224        3.49137303001432       -1.72398002289084
C            4.41119550251407        2.47208934277480       -0.81900496539358
C            5.34192288125421        2.33960479589970        0.26950693691862
C            6.28748729878461        3.19631973042617        0.81584299805650
C            6.99923867804371        2.77783504522508        1.92405212915151
C            6.75430194914925        1.53407884938106        2.49887475715980
C            5.81865736494498        0.66343191433010        1.96836565930993
C            5.13255598317900        1.05702657994079        0.82775265676107
N            2.42208327999214       -1.13352334295779        0.06797001979686
C            1.93702659038635       -2.37640277955510        0.21934460020873
N            0.59431218168993       -2.54691483893471       -0.05263339236900
C           -0.37698825258528       -1.57473738526257        0.09591365391335
C           -0.26636846207554       -0.26911054909009        0.53105278929280
C           -1.40988693760428        0.51486814261814        0.58636105700273
C           -2.66713389307575       -0.01958306906086        0.22463813353193
N           -3.79307010182446        0.79713920704036        0.29042129258278
C           -5.00845976753586        0.45253135608504        0.85067373229113
C           -5.37632910133756       -0.70855342066846        1.51832641449637
C           -6.66330992961539       -0.78376307562377        2.02174596722189
C           -7.56078700209281        0.27098157934859        1.88055613895871
C           -7.18911132371788        1.44433050335287        1.24477303033333
C           -5.90575299522559        1.54067294017507        0.73095039175273
C           -5.18665364399075        2.58924113957955        0.05302934524780
C           -5.53315598344328        3.86395828674890       -0.36560480610911
C           -4.58503550560070        4.62103551297820       -1.03417706851297
C           -3.31791099278443        4.11061515240727       -1.30155789529807
C           -2.95113870583636        2.83939847427586       -0.89540339513906
C           -3.88629002043668        2.08804791598597       -0.19492880468288
C           -2.79833118816757       -1.33832487218503       -0.19324211537089
C           -1.65256047749949       -2.13578388754173       -0.26443535020961
C           -1.42091814381941       -3.46802667663264       -0.65303250996360
N           -2.27787210264022       -4.41331326890183       -1.08546433513587
C           -1.76271747439371       -5.57427617613843       -1.45344069252016
C           -0.41104161588653       -5.86278405109205       -1.44900908492130
C            0.50794718498225       -4.90087513433276       -0.97057113412963
C           -0.01210994235667       -3.70891524384037       -0.53553998927343
C            2.73673270815483       -3.42650458479554        0.68898515520056
H            4.72896948293621       -3.98116916033199        1.23317163196975
H            5.65566360980116       -1.71924838986765        0.73446932843745
H            2.12016594133791        0.15864431965528       -1.85430866227149
H            1.66156533225003        1.98221849254335       -3.45565689020210
H            2.92817392104730        4.08061500019031       -3.37485910750099
H            4.70818587383728        4.41281376660083       -1.68983718841496
H            6.45289663751791        4.17265278024076        0.38632644246531
H            7.74165878310423        3.42725659523135        2.36350461018595
H            7.30044492388947        1.24263653671076        3.38393483352061
H            5.62006489694355       -0.28140146162725        2.45017605143756
H            0.68899754212342        0.13367015852294        0.82459280530538
H           -1.35397307584759        1.52247883232071        0.96371162529627
H           -4.68065425116163       -1.52240256186836        1.65096546567665
H           -6.97449049744742       -1.67887377207323        2.53911822053887
H           -8.55728793921866        0.17472255929556        2.28495103837531
H           -7.88013404089469        2.26843053927453        1.15582531579275
H           -6.52211830566979        4.25360151927717       -0.17936909554450
H           -4.83406309588977        5.61836214144509       -1.36466509554236
H           -2.60585035993987        4.71610628878783       -1.84196667585597
H           -1.97461389776832        2.44387609780333       -1.12703430559058
H           -3.74853203595920       -1.72997695819626       -0.51881313472096
H           -2.48270096629989       -6.31240817828051       -1.78463463416376
H           -0.05701043738393       -6.81918249730325       -1.79770616507058
H            1.56372381600758       -5.12152256758487       -0.97629205618521
H            2.29841763689718       -4.38163033168964        0.92559569134813

          :  Hamiltonian                  GFN2-xTB          :
         :: gradient norm              0.000046989172 Eh/a0 ::
         :: HOMO-LUMO gap              0.195171214876 eV    ::
         :: SCC energy              -115.138363213253 Eh    ::
         :: -> dispersion             -0.100334307223 Eh    ::
         :: -> Gsolv                  -0.048125351768 Eh    ::
         :: repulsion energy           2.053677577292 Eh    ::

    * Orbital Energies and Occupations

         #    Occupation            Energy/Eh            Energy/eV
      -------------------------------------------------------------
         1        2.0000           -0.6884665             -18.7341
       ...           ...                  ...                  ...
        94        2.0000           -0.4205880             -11.4448
        95        2.0000           -0.4163198             -11.3286
        96        2.0000           -0.4148116             -11.2876
        97        2.0000           -0.4099495             -11.1553
        98        2.0000           -0.3890980             -10.5879
        99        2.0000           -0.3871071             -10.5337
       100        2.0000           -0.3841626             -10.4536
       101        2.0000           -0.3836455             -10.4395
       102        2.0000           -0.3782740             -10.2934
       103        1.9978           -0.3699835             -10.0678
       104        1.8516           -0.3658158              -9.9544
       105        1.1506           -0.3625125              -9.8645
       106        0.9737           -0.2627807              -7.1506 (HOMO)
       107        0.0192           -0.2556084              -6.9555 (LUMO)
       108        0.0071           -0.2546478              -6.9293
       109        0.0000           -0.2498471              -6.7987
       110                         -0.2429978              -6.6123
       111                         -0.2329018              -6.3376
       112                         -0.2322865              -6.3208
       113                         -0.2269451              -6.1755
       114                         -0.2118239              -5.7640
       115                         -0.1972916              -5.3686
       116                         -0.1958649              -5.3298
       117                         -0.1909578              -5.1962
       ...                                ...                  ...
       205                          0.7390679              20.1111
      -------------------------------------------------------------
                  HL-Gap            0.0071723 Eh            0.1952 eV

     #   Z          covCN         q      C6AA      α(0)
     1   6 C        2.924    -0.027    28.676     8.782
     2   6 C        2.914    -0.073    29.832     8.956
     3   6 C        2.883     0.155    24.648     8.139
     4   7 N        2.805    -0.042    22.057     6.975
     5   6 C        3.066     0.054    26.721     8.476
     6   6 C        2.910    -0.045    29.122     8.849
     7   6 C        2.924    -0.033    28.831     8.805
     8   6 C        2.920    -0.038    28.948     8.823
     9   6 C        2.912    -0.034    28.839     8.806
    10   6 C        3.064    -0.016    28.338     8.729
    11   6 C        3.065    -0.014    28.295     8.723
    12   6 C        2.912    -0.033    28.821     8.803
    13   6 C        2.919    -0.039    28.958     8.825
    14   6 C        2.923    -0.034    28.848     8.808
    15   6 C        2.910    -0.050    29.241     8.867
    16   6 C        3.062     0.047    26.886     8.503
    17   7 N        1.854    -0.287    28.288     7.883
    18   6 C        2.885     0.138    24.980     8.194
    19   7 N        2.796    -0.029    21.798     6.934
    20   6 C        3.055     0.045    26.949     8.514
    21   6 C        2.906    -0.044    29.085     8.843
    22   6 C        2.921    -0.071    29.762     8.946
    23   6 C        2.910     0.059    26.676     8.469
    24   7 N        2.802    -0.002    21.306     6.856
    25   6 C        3.070     0.047    26.879     8.501
    26   6 C        2.909    -0.040    28.998     8.830
    27   6 C        2.922    -0.031    28.761     8.795
    28   6 C        2.920    -0.032    28.793     8.799
    29   6 C        2.912    -0.029    28.727     8.789
    30   6 C        3.064    -0.010    28.201     8.708
    31   6 C        3.064    -0.010    28.201     8.708
    32   6 C        2.912    -0.029    28.727     8.789
    33   6 C        2.920    -0.032    28.796     8.800
    34   6 C        2.922    -0.031    28.766     8.795
    35   6 C        2.909    -0.041    29.009     8.832
    36   6 C        3.070     0.047    26.876     8.500
    37   6 C        2.911    -0.052    29.291     8.875
    38   6 C        3.054    -0.032    28.755     8.794
    39   6 C        3.039     0.056    26.715     8.478
    40   7 N        1.832    -0.263    27.676     7.796
    41   6 C        2.897     0.054    26.798     8.488
    42   6 C        2.917    -0.072    29.794     8.951
    43   6 C        2.912    -0.051    29.267     8.871
    44   6 C        3.049     0.036    27.154     8.546
    45   6 C        2.913    -0.062    29.532     8.911
    46   1 H        0.926     0.042     2.424     2.435
    47   1 H        0.926     0.043     2.410     2.428
    48   1 H        0.926     0.045     2.383     2.414
    49   1 H        0.926     0.036     2.505     2.475
    50   1 H        0.926     0.036     2.502     2.473
    51   1 H        0.926     0.038     2.478     2.462
    52   1 H        0.926     0.039     2.465     2.455
    53   1 H        0.926     0.036     2.505     2.475
    54   1 H        0.926     0.036     2.502     2.474
    55   1 H        0.926     0.033     2.548     2.496
    56   1 H        0.926     0.053     2.283     2.363
    57   1 H        0.926     0.040     2.453     2.449
    58   1 H        0.926     0.044     2.395     2.420
    59   1 H        0.926     0.042     2.420     2.432
    60   1 H        0.926     0.043     2.415     2.430
    61   1 H        0.926     0.045     2.382     2.413
    62   1 H        0.926     0.045     2.386     2.416
    63   1 H        0.926     0.043     2.416     2.430
    64   1 H        0.926     0.043     2.407     2.426
    65   1 H        0.926     0.047     2.362     2.403
    66   1 H        0.926     0.046     2.368     2.407
    67   1 H        0.925     0.026     2.638     2.540
    68   1 H        0.926     0.024     2.675     2.558
    69   1 H        0.926     0.025     2.652     2.547
    70   1 H        0.926     0.042     2.427     2.436

molecular dipole:
                 x           y           z       tot (Debye)
 q only:       -0.664       2.077       0.553
   full:        0.013       1.464       0.699       4.124

 projected vibrational frequencies (cm⁻¹)
eigval :       -0.00    -0.00    -0.00    -0.00     0.00     0.00
eigval :       10.93    15.77    17.96    30.89    34.44    40.97
eigval :       60.30    68.93    84.47    97.67   103.03   111.09
eigval :      129.90   133.58   138.05   148.70   158.36   172.46
eigval :      200.86   213.68   223.30   235.41   256.09   270.56
eigval :      272.65   277.73   286.42   301.03   335.65   340.06
eigval :      347.04   371.47   381.77   392.05   397.61   401.92
eigval :      412.67   415.13   420.14   422.89   435.65   436.08
eigval :      457.41   498.41   513.33   516.01   524.65   531.63
eigval :      535.04   535.58   537.78   551.98   561.09   579.31
eigval :      584.65   585.95   603.66   609.21   612.39   622.19
eigval :      628.00   651.87   667.44   670.66   673.93   675.79
eigval :      677.32   700.27   709.61   711.18   714.82   743.79
eigval :      752.77   758.17   762.88   766.05   770.25   775.41
eigval :      780.41   783.52   793.52   814.14   832.43   844.97
eigval :      865.54   869.38   873.20   873.73   876.27   876.78
eigval :      883.87   892.42   894.91   896.49   900.53   901.62
eigval :      902.88   904.83   908.27   919.58   920.32   921.88
eigval :      923.22   957.78   981.33  1006.13  1010.21  1014.44
eigval :     1024.96  1066.81  1067.35  1069.22  1071.79  1073.52
eigval :     1096.24  1100.33  1108.97  1120.37  1126.94  1139.32
eigval :     1145.03  1152.20  1161.45  1165.33  1173.12  1174.88
eigval :     1177.77  1178.64  1187.98  1200.71  1202.76  1225.45
eigval :     1227.80  1229.19  1236.58  1243.17  1255.72  1261.66
eigval :     1277.19  1282.97  1288.29  1293.14  1302.01  1310.01
eigval :     1323.58  1328.27  1333.32  1336.98  1351.08  1353.46
eigval :     1357.03  1360.03  1363.80  1371.39  1398.81  1408.47
eigval :     1410.08  1419.14  1420.53  1421.16  1432.51  1436.70
eigval :     1456.18  1462.23  1467.32  1468.48  1476.38  1481.80
eigval :     1501.31  1532.05  1541.48  1563.14  1569.49  1573.32
eigval :     1574.41  1581.35  1586.79  1589.70  1599.53  3040.33
eigval :     3074.26  3076.73  3081.31  3081.68  3081.71  3082.26
eigval :     3083.07  3083.96  3087.96  3088.67  3090.76  3092.07
eigval :     3095.90  3096.82  3097.12  3099.37  3101.21  3101.76
eigval :     3105.24  3107.21  3111.53  3112.33  3115.68  3119.17

   temp. (K)  partition function   enthalpy   heat capacity  entropy
                                   cal/mol     cal/K/mol   cal/K/mol   J/K/mol
 298.15  VIB  0.150E+15            19471.874    128.898    118.134
         ROT  0.687E+08              888.752      2.981     38.842
         INT  0.103E+23            20360.626    131.879    156.976
         TR   0.134E+29             1481.254      4.968     44.915
         TOT                       21841.8802   136.8471   201.8914   844.7137

       T/K    H(0)-H(T)+PV         H(T)/Eh          T*S/Eh         G(T)/Eh
   ------------------------------------------------------------------------
    298.15    0.348073E-01    0.558282E+00    0.959251E-01    0.462357E+00
   ------------------------------------------------------------------------

         :::::::::::::::::::::::::::::::::::::::::::::::::::::
         ::                  THERMODYNAMIC                  ::
         :::::::::::::::::::::::::::::::::::::::::::::::::::::
         :: total free energy        -112.622329120685 Eh   ::
         ::.................................................::
         :: total energy             -113.084685638688 Eh   ::
         :: zero point energy           0.523474398482 Eh   ::
         :: G(RRHO) w/o ZPVE           -0.061117880479 Eh   ::
         :: G(RRHO) contrib.            0.462356518003 Eh   ::
         :::::::::::::::::::::::::::::::::::::::::::::::::::::

           -------------------------------------------------
          | TOTAL ENERGY             -113.084685638688 Eh   |
          | TOTAL ENTHALPY           -112.526403988560 Eh   |
          | TOTAL FREE ENERGY        -112.622329120685 Eh   |
          | GRADIENT NORM               0.000050000142 Eh/α |
          | HOMO-LUMO GAP               0.195169334164 eV   |
           -------------------------------------------------

 * finished run on 2025/09/13 at 01:38:53.690
