   * xtb version 6.7.1 (edcfbbe) compiled by 'albert@albert-system' on 2024-07-22

   ID    Z sym.   atoms
    1    6 C      1-6, 8-26
    2    7 N      7
    3    1 H      27-43

          program call               : xtb data2507/gas/FAC/FAC_gas_S0_crest.xyz --gfn 2 --ohess vtight --parallel 40 --molden --ceasefiles --namespace data2507/gas/FAC/FAC_gas_S0_finalOpt
          :  Hamiltonian                  GFN2-xTB          :
 * total energy  :   -65.1541468 Eh     change       -0.8827072E-09 Eh
 * total energy  :   -65.1541477 Eh     change       -0.8467644E-06 Eh
 * total energy  :   -65.1541486 Eh     change       -0.9137687E-06 Eh
 * total energy  :   -65.1541506 Eh     change       -0.2055973E-05 Eh
 * total energy  :   -65.1541534 Eh     change       -0.2777488E-05 Eh
 * total energy  :   -65.1541551 Eh     change       -0.1703931E-05 Eh
 * total energy  :   -65.1541562 Eh     change       -0.1115300E-05 Eh
 * total energy  :   -65.1541576 Eh     change       -0.1333449E-05 Eh
 * total energy  :   -65.1541593 Eh     change       -0.1734857E-05 Eh
 * total energy  :   -65.1541611 Eh     change       -0.1804510E-05 Eh
 * total energy  :   -65.1541644 Eh     change       -0.8523901E-06 Eh
 * total energy  :   -65.1541657 Eh     change       -0.1302536E-05 Eh
 * total energy  :   -65.1541673 Eh     change       -0.1612906E-05 Eh
 * total energy  :   -65.1541688 Eh     change       -0.1517875E-05 Eh
 * total energy  :   -65.1541700 Eh     change       -0.1208349E-05 Eh
 * total energy  :   -65.1541709 Eh     change       -0.8961648E-06 Eh
 * total energy  :   -65.1541718 Eh     change       -0.8350790E-06 Eh
 * total energy  :   -65.1541726 Eh     change       -0.8228350E-06 Eh
 * total energy  :   -65.1541726 Eh     change       -0.3311300E-08 Eh
   *** GEOMETRY OPTIMIZATION CONVERGED AFTER 22 ITERATIONS ***

 final structure:
================
43
 xtb: 6.7.1 (edcfbbe)
C           -2.33833944798568        3.64612212597547       -0.14187319576091
C           -0.95400742682321        3.68245854090009       -0.16390895646978
C           -0.23721336065282        2.49912361415772       -0.13668750674976
C           -0.88080513094540        1.27247687925792       -0.08912135768138
C           -2.27709896712423        1.23977564345467       -0.06846993240610
C           -2.99646073008630        2.43386541530580       -0.09552379554799
N           -2.94380412600424        0.03669789146898       -0.01967460278219
C           -2.30719610245464       -1.18230721091013       -0.07483516090387
C           -3.05594416928141       -2.35807013554275       -0.10645379473654
C           -2.42805587383958       -3.58599869418877       -0.15944932221265
C           -1.04508196718929       -3.65647655274229       -0.18420357712577
C           -0.29916273926932       -2.49139852148279       -0.15227989470825
C           -0.91216509342333       -1.24949447533790       -0.09736288932700
C           -0.06280668288778        0.00085503594650       -0.03774357473708
C            0.80203622228641       -0.01469066096440        1.20908482173020
C            0.39796875657601       -0.01877612465016        2.52548223296506
C            1.37017627917628       -0.03544940788933        3.51666135233169
C            2.71739286243356       -0.04732757233621        3.18895739522336
C            3.12793927174953       -0.04322079426950        1.86540260965043
C            2.16262786119560       -0.02715094504317        0.87245512372719
C            2.27943857256928       -0.02163097423813       -0.57800238402948
C            3.39154276294883       -0.02878637038803       -1.40339575972787
C            3.19850923565981       -0.02162027312889       -2.77571381460249
C            1.92116127167729       -0.00773493387019       -3.31491645149326
C            0.80249605900718       -0.00004879745946       -2.49226945643166
C            0.98969097780739       -0.00693627271390       -1.12789846793942
H           -2.90732998384227        4.56376071778198       -0.16152746896782
H           -0.43459957645079        4.62765618201886       -0.20031959606289
H            0.84286748726008        2.52313588096939       -0.15103262154368
H           -4.07708270941981        2.39746602729922       -0.07926636764674
H           -3.95209283113463        0.04925284919974       -0.02717087359362
H           -4.13530919336860       -2.29504179743058       -0.08813519382468
H           -3.01962031310754       -4.48918159386370       -0.18205165945343
H           -0.54930311157759       -4.61406118907282       -0.22597568810107
H            0.77999108403074       -2.54190646596521       -0.16827204405402
H           -0.65188483415845       -0.00970007896207        2.78077378139587
H            1.07375071456724       -0.03948360605206        4.55538698305519
H            3.45645786026720       -0.06034683723297        3.97700507571848
H            4.17862227825945       -0.05288697360285        1.61527902699459
H            4.38848191086542       -0.03959671590493       -0.98796836072626
H            4.05442273381488       -0.02696145309461       -3.43510827113226
H            1.79511432160237       -0.00270504024026       -4.38770950886369
H           -0.19285772602826        0.01102919484177       -2.91244983614843

          :  Hamiltonian                  GFN2-xTB          :
         :: gradient norm              0.000045963509 Eh/a0 ::
         :: HOMO-LUMO gap              2.725957470447 eV    ::
         :: SCC energy               -66.403183097643 Eh    ::
         :: -> dispersion             -0.060498602311 Eh    ::
         :: repulsion energy           1.249010497302 Eh    ::

    * Orbital Energies and Occupations

         #    Occupation            Energy/Eh            Energy/eV
      -------------------------------------------------------------
         1        2.0000           -0.6669585             -18.1489
       ...           ...                  ...                  ...
        49        2.0000           -0.4278633             -11.6428
        50        2.0000           -0.4225973             -11.4995
        51        2.0000           -0.4191839             -11.4066
        52        2.0000           -0.4182247             -11.3805
        53        2.0000           -0.4169553             -11.3459
        54        2.0000           -0.4088775             -11.1261
        55        2.0000           -0.4073553             -11.0847
        56        2.0000           -0.4035364             -10.9808
        57        2.0000           -0.3944474             -10.7335
        58        2.0000           -0.3920663             -10.6687
        59        2.0000           -0.3901880             -10.6176
        60        2.0000           -0.3755687             -10.2197
        61        2.0000           -0.3481549              -9.4738 (HOMO)
        62                         -0.2479778              -6.7478 (LUMO)
        63                         -0.2279288              -6.2023
        64                         -0.2210726              -6.0157
        65                         -0.2202141              -5.9923
        66                         -0.2193185              -5.9680
        67                         -0.2116158              -5.7584
        68                         -0.1882564              -5.1227
        69                         -0.1855775              -5.0498
        70                         -0.1061731              -2.8891
        71                         -0.0908650              -2.4726
        72                         -0.0783864              -2.1330
       ...                                ...                  ...
       121                          0.7336119              19.9626
      -------------------------------------------------------------
                  HL-Gap            0.1001771 Eh            2.7260 eV

     #   Z          covCN         q      C6AA      α(0)
     1   6 C        2.919    -0.032    28.792     8.799
     2   6 C        2.918    -0.043    29.079     8.843
     3   6 C        2.925    -0.035    28.861     8.810
     4   6 C        2.982    -0.006    28.175     8.707
     5   6 C        2.916     0.065    26.537     8.447
     6   6 C        2.924    -0.061    29.529     8.911
     7   7 N        2.703    -0.142    24.065     7.286
     8   6 C        2.916     0.065    26.537     8.447
     9   6 C        2.924    -0.061    29.529     8.911
    10   6 C        2.919    -0.032    28.792     8.799
    11   6 C        2.918    -0.043    29.079     8.843
    12   6 C        2.925    -0.035    28.860     8.810
    13   6 C        2.982    -0.006    28.176     8.707
    14   6 C        3.948     0.012    20.313     6.404
    15   6 C        3.060     0.003    27.893     8.661
    16   6 C        2.914    -0.033    28.811     8.802
    17   6 C        2.923    -0.032    28.795     8.800
    18   6 C        2.921    -0.033    28.816     8.803
    19   6 C        2.915    -0.034    28.852     8.808
    20   6 C        3.035     0.001    27.962     8.673
    21   6 C        3.035     0.001    27.963     8.674
    22   6 C        2.915    -0.035    28.859     8.809
    23   6 C        2.921    -0.033    28.815     8.803
    24   6 C        2.923    -0.032    28.794     8.800
    25   6 C        2.914    -0.032    28.799     8.800
    26   6 C        3.058     0.003    27.896     8.661
    27   1 H        0.926     0.030     2.588     2.516
    28   1 H        0.926     0.028     2.608     2.526
    29   1 H        0.926     0.029     2.596     2.520
    30   1 H        0.925     0.023     2.691     2.565
    31   1 H        0.860     0.158     1.347     1.818
    32   1 H        0.925     0.023     2.691     2.565
    33   1 H        0.926     0.030     2.588     2.516
    34   1 H        0.926     0.028     2.608     2.526
    35   1 H        0.926     0.029     2.597     2.520
    36   1 H        0.926     0.026     2.646     2.544
    37   1 H        0.926     0.029     2.595     2.519
    38   1 H        0.926     0.029     2.596     2.520
    39   1 H        0.926     0.030     2.584     2.514
    40   1 H        0.926     0.030     2.588     2.516
    41   1 H        0.926     0.029     2.598     2.521
    42   1 H        0.926     0.029     2.595     2.519
    43   1 H        0.926     0.026     2.647     2.544

molecular dipole:
                 x           y           z       tot (Debye)
 q only:       -0.421       0.005       0.004
   full:       -0.574       0.007      -0.006       1.458

 projected vibrational frequencies (cm⁻¹)
eigval :       -0.00    -0.00     0.00     0.00     0.00     0.00
eigval :       12.01    41.72    45.27    65.21    84.15   113.43
eigval :      140.57   150.97   188.74   228.07   236.99   247.08
eigval :      280.23   294.51   313.64   384.24   394.20   394.45
eigval :      414.33   423.15   424.61   460.31   464.22   464.79
eigval :      500.66   511.63   514.92   540.33   560.28   588.00
eigval :      600.32   600.60   604.21   646.59   675.27   686.05
eigval :      686.70   688.64   730.58   753.93   767.66   772.66
eigval :      777.87   786.08   826.24   863.41   863.58   877.85
eigval :      878.80   881.23   892.54   907.70   909.16   909.64
eigval :      913.58   919.66   919.95   921.12   926.56   926.87
eigval :      933.79  1006.65  1074.20  1079.28  1089.64  1099.28
eigval :     1100.00  1125.98  1142.79  1147.15  1177.17  1177.52
eigval :     1181.69  1181.73  1184.54  1205.24  1205.84  1219.65
eigval :     1238.09  1241.84  1260.04  1266.54  1276.62  1278.82
eigval :     1284.73  1327.22  1335.21  1336.69  1367.52  1380.55
eigval :     1429.55  1430.52  1442.06  1461.77  1468.95  1472.16
eigval :     1494.77  1500.92  1580.69  1586.43  1590.70  1592.86
eigval :     1597.09  1602.57  1605.49  1605.80  3063.20  3063.91
eigval :     3071.12  3071.76  3075.05  3075.94  3079.68  3079.89
eigval :     3082.05  3084.02  3084.38  3084.58  3090.19  3091.48
eigval :     3097.71  3098.22  3444.24

   temp. (K)  partition function   enthalpy   heat capacity  entropy
                                   cal/mol     cal/K/mol   cal/K/mol   J/K/mol
 298.15  VIB  0.814E+07            10339.777     72.419     61.460
         ROT  0.826E+07              888.752      2.981     34.632
         INT  0.673E+14            11228.529     75.400     96.092
         TR   0.584E+28             1481.254      4.968     43.270
         TOT                       12709.7829    80.3679   139.3617   583.0892

       T/K    H(0)-H(T)+PV         H(T)/Eh          T*S/Eh         G(T)/Eh
   ------------------------------------------------------------------------
    298.15    0.202543E-01    0.354515E+00    0.662152E-01    0.288300E+00
   ------------------------------------------------------------------------

         :::::::::::::::::::::::::::::::::::::::::::::::::::::
         ::                  THERMODYNAMIC                  ::
         :::::::::::::::::::::::::::::::::::::::::::::::::::::
         :: total free energy         -64.865872592031 Eh   ::
         ::.................................................::
         :: total energy              -65.154172600341 Eh   ::
         :: zero point energy           0.334260903842 Eh   ::
         :: G(RRHO) w/o ZPVE           -0.045960895532 Eh   ::
         :: G(RRHO) contrib.            0.288300008310 Eh   ::
         :::::::::::::::::::::::::::::::::::::::::::::::::::::

           -------------------------------------------------
          | TOTAL ENERGY              -65.154172600341 Eh   |
          | TOTAL ENTHALPY            -64.799657368212 Eh   |
          | TOTAL FREE ENERGY         -64.865872592031 Eh   |
          | GRADIENT NORM               0.000045961911 Eh/α |
          | HOMO-LUMO GAP               2.725957717627 eV   |
           -------------------------------------------------

 * finished run on 2025/09/04 at 12:53:27.892
