   * xtb version 6.7.1 (edcfbbe) compiled by 'albert@albert-system' on 2024-07-22

   ID    Z sym.   atoms
    1    6 C      1-6, 8-26
    2    7 N      7
    3    1 H      27-43

          program call               : xtb data2507/gas/FAC/FAC.xyz --gfn 2 --ohess vtight --parallel 40 --molden --ceasefiles --namespace data2507/gas/FAC/FAC_gas_S0_preOpt
          :  Hamiltonian                  GFN2-xTB          :
 * total energy  :   -65.1452132 Eh     change       -0.1258911E-08 Eh
 * total energy  :   -65.1526312 Eh     change       -0.7418043E-02 Eh
 * total energy  :   -65.1539603 Eh     change       -0.1329054E-02 Eh
 * total energy  :   -65.1541054 Eh     change       -0.1450836E-03 Eh
 * total energy  :   -65.1541735 Eh     change       -0.6813408E-04 Eh
 * total energy  :   -65.1541882 Eh     change       -0.1476057E-04 Eh
 * total energy  :   -65.1541912 Eh     change       -0.2996954E-05 Eh
 * total energy  :   -65.1541916 Eh     change       -0.3860461E-06 Eh
 * total energy  :   -65.1541916 Eh     change       -0.1846057E-07 Eh
   *** GEOMETRY OPTIMIZATION CONVERGED AFTER 9 ITERATIONS ***

 final structure:
================
43
 xtb: 6.7.1 (edcfbbe)
C           -2.41156832082097        3.61804162495064       -0.00012180442103
C           -1.02757863132861        3.67168127365976       -0.00016481536740
C           -0.29674743154827        2.49671742425078       -0.00012149343370
C           -0.92567639469321        1.26152665263981       -0.00003590564205
C           -2.32154309046860        1.21138811300100        0.00000759029729
C           -3.05516560762885        2.39717504884217       -0.00003591537049
N           -2.97411812309721       -0.00010709533613        0.00009331973143
C           -2.32144866936177       -1.21155140559728        0.00010561354198
C           -3.05497855060809       -2.39739569179407        0.00015332081894
C           -2.41128602007504       -3.61821203418819        0.00016610464343
C           -1.02729217619106       -3.67174361768817        0.00013423262585
C           -0.29655280361848       -2.49672272569216        0.00008728711149
C           -0.92557817321072       -1.26158104200029        0.00007067906172
C           -0.09076830882392        0.00000583804265        0.00000790609926
C            0.87127647591850        0.00009056368154        1.17224936849987
C            0.57471645639949        0.00015028624270        2.51701399798149
C            1.62362999989838        0.00022361624740        3.42686245178102
C            2.94022025755114        0.00023534916158        2.99198637078732
C            3.24296874426740        0.00017585172751        1.63966782328034
C            2.20078799453940        0.00010412840655        0.72756321402106
C            2.20076590540448        0.00003629600683       -0.72761769890591
C            3.24291770754035        0.00001747009151       -1.63975543639047
C            2.94012607915207       -0.00005147191423       -2.99206435416369
C            1.62352211200879       -0.00009998641794       -3.42689907183925
C            0.57463760500562       -0.00008290706882       -2.51701739033813
C            0.87124084471868       -0.00001526357729       -1.17226238350539
H           -2.99157815510938        4.52896969108792       -0.00015592871694
H           -0.51954242192746        4.62373100403102       -0.00023221911409
H            0.78308037435865        2.53374169350025       -0.00015466924736
H           -4.13537519367440        2.34742310540202       -0.00000227741877
H           -3.98242903060300       -0.00014640507122        0.00011014381550
H           -4.13519200700900       -2.34772810305796        0.00017880646770
H           -2.99122465510839       -4.52918541318761        0.00020162575530
H           -0.51918138785399       -4.62375353890066        0.00014444556938
H            0.78327781637445       -2.53366321736440        0.00005972714600
H           -0.45125962763049        0.00014184137278        2.85585876630751
H            1.41176353760858        0.00027238480924        4.48607365916818
H            3.74036010961990        0.00029167059347        3.71806241906383
H            4.27015792902992        0.00018534882374        1.30577987555439
H            4.27011757002241        0.00005460943727       -1.30590039608527
H            3.74024281822997       -0.00006867412163       -3.71816582038315
H            1.41162198800732       -0.00015289885650       -4.48610350092059
H           -0.45134954526453       -0.00012139417561       -2.85582866786660

          :  Hamiltonian                  GFN2-xTB          :
         :: gradient norm              0.000034635061 Eh/a0 ::
         :: HOMO-LUMO gap              2.724425267861 eV    ::
         :: SCC energy               -66.403292600145 Eh    ::
         :: -> dispersion             -0.060490095684 Eh    ::
         :: repulsion energy           1.249100949584 Eh    ::

    * Orbital Energies and Occupations

         #    Occupation            Energy/Eh            Energy/eV
      -------------------------------------------------------------
         1        2.0000           -0.6669688             -18.1491
       ...           ...                  ...                  ...
        49        2.0000           -0.4278846             -11.6433
        50        2.0000           -0.4224546             -11.4956
        51        2.0000           -0.4191079             -11.4045
        52        2.0000           -0.4181636             -11.3788
        53        2.0000           -0.4169930             -11.3470
        54        2.0000           -0.4090624             -11.1312
        55        2.0000           -0.4073180             -11.0837
        56        2.0000           -0.4035765             -10.9819
        57        2.0000           -0.3944292             -10.7330
        58        2.0000           -0.3920664             -10.6687
        59        2.0000           -0.3901398             -10.6162
        60        2.0000           -0.3755552             -10.2194
        61        2.0000           -0.3480548              -9.4711 (HOMO)
        62                         -0.2479340              -6.7466 (LUMO)
        63                         -0.2279395              -6.2025
        64                         -0.2210097              -6.0140
        65                         -0.2202247              -5.9926
        66                         -0.2193559              -5.9690
        67                         -0.2116581              -5.7595
        68                         -0.1880662              -5.1175
        69                         -0.1855592              -5.0493
        70                         -0.1061239              -2.8878
        71                         -0.0909060              -2.4737
        72                         -0.0782493              -2.1293
       ...                                ...                  ...
       121                          0.7336034              19.9624
      -------------------------------------------------------------
                  HL-Gap            0.1001208 Eh            2.7244 eV

     #   Z          covCN         q      C6AA      α(0)
     1   6 C        2.919    -0.032    28.791     8.799
     2   6 C        2.918    -0.043    29.079     8.843
     3   6 C        2.925    -0.034    28.859     8.810
     4   6 C        2.982    -0.006    28.176     8.707
     5   6 C        2.916     0.065    26.537     8.447
     6   6 C        2.924    -0.062    29.530     8.912
     7   7 N        2.703    -0.141    24.057     7.285
     8   6 C        2.916     0.065    26.537     8.447
     9   6 C        2.924    -0.062    29.530     8.912
    10   6 C        2.919    -0.032    28.791     8.799
    11   6 C        2.918    -0.043    29.079     8.843
    12   6 C        2.925    -0.034    28.859     8.810
    13   6 C        2.982    -0.006    28.176     8.707
    14   6 C        3.948     0.012    20.314     6.404
    15   6 C        3.059     0.003    27.895     8.661
    16   6 C        2.914    -0.032    28.805     8.801
    17   6 C        2.923    -0.032    28.794     8.800
    18   6 C        2.921    -0.033    28.815     8.803
    19   6 C        2.915    -0.034    28.856     8.809
    20   6 C        3.035     0.001    27.963     8.674
    21   6 C        3.035     0.001    27.963     8.674
    22   6 C        2.915    -0.034    28.856     8.809
    23   6 C        2.921    -0.033    28.815     8.803
    24   6 C        2.923    -0.032    28.794     8.800
    25   6 C        2.914    -0.032    28.805     8.801
    26   6 C        3.059     0.003    27.895     8.661
    27   1 H        0.926     0.030     2.588     2.516
    28   1 H        0.926     0.028     2.609     2.526
    29   1 H        0.926     0.029     2.598     2.520
    30   1 H        0.925     0.023     2.691     2.565
    31   1 H        0.860     0.158     1.347     1.818
    32   1 H        0.925     0.023     2.691     2.565
    33   1 H        0.926     0.030     2.588     2.516
    34   1 H        0.926     0.028     2.609     2.526
    35   1 H        0.926     0.029     2.598     2.520
    36   1 H        0.926     0.026     2.648     2.545
    37   1 H        0.926     0.029     2.595     2.519
    38   1 H        0.926     0.029     2.597     2.520
    39   1 H        0.926     0.030     2.586     2.515
    40   1 H        0.926     0.030     2.586     2.515
    41   1 H        0.926     0.029     2.597     2.520
    42   1 H        0.926     0.029     2.595     2.519
    43   1 H        0.926     0.026     2.648     2.545

molecular dipole:
                 x           y           z       tot (Debye)
 q only:       -0.423      -0.000       0.000
   full:       -0.576      -0.000       0.000       1.463

 projected vibrational frequencies (cm⁻¹)
eigval :       -0.00    -0.00    -0.00     0.00     0.00     0.00
eigval :       11.45    42.68    44.26    65.09    83.96   113.51
eigval :      140.50   150.69   188.94   227.41   237.97   246.00
eigval :      279.91   294.55   313.86   384.16   394.16   394.30
eigval :      414.42   422.47   424.82   460.24   460.87   464.26
eigval :      500.64   511.33   514.99   540.32   560.29   588.01
eigval :      600.34   600.81   603.64   646.63   675.53   685.68
eigval :      686.73   688.28   730.63   753.92   767.66   772.55
eigval :      777.85   786.10   826.07   863.34   863.51   877.90
eigval :      878.76   881.34   892.52   907.73   909.13   909.67
eigval :      913.62   919.65   919.94   920.99   926.66   926.81
eigval :      933.96  1006.63  1074.20  1079.27  1089.66  1099.26
eigval :     1100.00  1126.06  1142.85  1147.15  1177.27  1177.45
eigval :     1181.70  1181.73  1184.49  1205.51  1205.66  1219.20
eigval :     1238.53  1241.81  1260.01  1266.40  1276.69  1278.77
eigval :     1284.74  1327.27  1335.36  1336.72  1367.54  1380.64
eigval :     1429.56  1430.51  1442.02  1461.74  1469.03  1472.15
eigval :     1494.86  1501.64  1580.68  1586.46  1590.75  1592.94
eigval :     1597.13  1602.61  1605.52  1605.80  3063.22  3063.93
eigval :     3071.10  3071.72  3074.98  3075.85  3079.60  3079.81
eigval :     3082.00  3083.96  3084.33  3084.52  3090.17  3091.46
eigval :     3097.72  3098.23  3445.25

   temp. (K)  partition function   enthalpy   heat capacity  entropy
                                   cal/mol     cal/K/mol   cal/K/mol   J/K/mol
 298.15  VIB  0.860E+07            10344.656     72.428     61.535
         ROT  0.413E+07              888.752      2.981     33.255
         INT  0.355E+14            11233.408     75.409     94.790
         TR   0.584E+28             1481.254      4.968     43.270
         TOT                       12714.6619    80.3775   138.0595   577.6411

       T/K    H(0)-H(T)+PV         H(T)/Eh          T*S/Eh         G(T)/Eh
   ------------------------------------------------------------------------
    298.15    0.202621E-01    0.354510E+00    0.655965E-01    0.288913E+00
   ------------------------------------------------------------------------

         :::::::::::::::::::::::::::::::::::::::::::::::::::::
         ::                  THERMODYNAMIC                  ::
         :::::::::::::::::::::::::::::::::::::::::::::::::::::
         :: total free energy         -64.865278261852 Eh   ::
         ::.................................................::
         :: total energy              -65.154191650561 Eh   ::
         :: zero point energy           0.334247824738 Eh   ::
         :: G(RRHO) w/o ZPVE           -0.045334436028 Eh   ::
         :: G(RRHO) contrib.            0.288913388710 Eh   ::
         :::::::::::::::::::::::::::::::::::::::::::::::::::::

           -------------------------------------------------
          | TOTAL ENERGY              -65.154191650561 Eh   |
          | TOTAL ENTHALPY            -64.799681722417 Eh   |
          | TOTAL FREE ENERGY         -64.865278261852 Eh   |
          | GRADIENT NORM               0.000034680811 Eh/α |
          | HOMO-LUMO GAP               2.724425693717 eV   |
           -------------------------------------------------

 * finished run on 2025/09/04 at 12:52:20.070
