   * xtb version 6.7.1 (edcfbbe) compiled by 'albert@albert-system' on 2024-07-22

   ID    Z sym.   atoms
    1    6 C      1-6, 8-26
    2    7 N      7
    3    1 H      27-43

          program call               : xtb data2507/gas/FAC/FAC_gas_S0_finalOpt.xtbopt.xyz --gfn 2 --spinpol --tblite --uhf 2 --ohess vtight --parallel 40 --molden --ceasefiles --namespace data2507/gas/FAC/FAC_gas_T1_preOpt
 * total energy  :   -65.0363683 Eh     change        0.2739188E-07 Eh
 * total energy  :   -65.0419209 Eh     change       -0.5552602E-02 Eh
 * total energy  :   -65.0412771 Eh     change        0.6437886E-03 Eh
 * total energy  :   -65.0470148 Eh     change       -0.5737650E-02 Eh
 * total energy  :   -65.0476302 Eh     change       -0.6154776E-03 Eh
 * total energy  :   -65.0481324 Eh     change       -0.5021606E-03 Eh
 * total energy  :   -65.0481428 Eh     change       -0.1039384E-04 Eh
 * total energy  :   -65.0481459 Eh     change       -0.3116852E-05 Eh
 * total energy  :   -65.0481468 Eh     change       -0.9124881E-06 Eh
 * total energy  :   -65.0481470 Eh     change       -0.1920855E-06 Eh
 * total energy  :   -65.0481471 Eh     change       -0.1267273E-06 Eh
 * total energy  :   -65.0481471 Eh     change        0.7595648E-07 Eh
 * total energy  :   -65.0481472 Eh     change       -0.1201991E-06 Eh
 * total energy  :   -65.0481472 Eh     change        0.1531654E-07 Eh
 * total energy  :   -65.0481472 Eh     change       -0.6118316E-07 Eh
   *** GEOMETRY OPTIMIZATION CONVERGED AFTER 15 ITERATIONS ***

 final structure:
================
43
 xtb: 6.7.1 (edcfbbe)
C           -2.35835413391054        3.64477445392117       -0.13304091968310
C           -0.97261223139147        3.68012999315826       -0.15764823837863
C           -0.25360976063267        2.49802220909231       -0.13666008951635
C           -0.89579421396571        1.27004712092396       -0.09317792457378
C           -2.29441182005990        1.23955100379312       -0.07136562229046
C           -3.01674198767977        2.43309652389511       -0.09104882575184
N           -2.95899812414469        0.03660308988822       -0.03248448981459
C           -2.32410993316776       -1.18200012557784       -0.07923345107822
C           -3.07549226328888       -2.35733534726190       -0.10584283386632
C           -2.44702232901902       -3.58449944898356       -0.15575219995277
C           -1.06257471014410       -3.65365581518037       -0.18169957340728
C           -0.31479611108257       -2.48968509081740       -0.15380493887693
C           -0.92666040128290       -1.24664014262329       -0.10204244971140
C           -0.07829989560820        0.00126360309794       -0.04472013737752
C            0.78630376273954       -0.01404145509265        1.20568471147241
C            0.39713911517048       -0.01608890071248        2.50522470019803
C            1.38078663247466       -0.03191124465871        3.51532163426978
C            2.75182831719385       -0.04534191555086        3.17727357735688
C            3.17063340962699       -0.04369448864000        1.88184531646116
C            2.19102968576160       -0.02809559456313        0.83486187168817
C            2.30369007866503       -0.02386087548094       -0.54151951174067
C            3.44075785232086       -0.03272060074025       -1.41506650644768
C            3.23813585143782       -0.02533644975877       -2.76169868414931
C            1.94074630202443       -0.00936705500723       -3.31794837094252
C            0.80546880865207       -0.00022987603972       -2.48093826841465
C            0.97759090639358       -0.00707091532905       -1.13539455530769
H           -2.92619855580432        4.56299865090201       -0.14741692172400
H           -0.45463990799276        4.62614433811322       -0.19118655460927
H            0.82592614077140        2.52177944816949       -0.15275769503640
H           -4.09724713339305        2.39599699154632       -0.07368560944319
H           -3.96819260744403        0.04896996922902       -0.02892410581541
H           -4.15475287342325       -2.29387204280987       -0.08741217365297
H           -3.03721447204491       -4.48842650799270       -0.17522500433250
H           -0.56798541997682       -4.61186367209379       -0.22147057704005
H            0.76383182869915       -2.53974488644498       -0.17073391885778
H           -0.64986510640164       -0.00585360390191        2.77508811630843
H            1.08526489859681       -0.03375687727329        4.55223121497541
H            3.47743247980340       -0.05721501941692        3.97861743223524
H            4.21918003268808       -0.05402578160692        1.62646024618661
H            4.43380081826398       -0.04492657959931       -0.99263353005886
H            4.08462182942328       -0.03173022733050       -3.43418740624373
H            1.81763936291623       -0.00390333903975       -4.38906686501448
H           -0.18376803806087        0.01219618844550       -2.91710761998585

 projected vibrational frequencies (cm⁻¹)
eigval :       -0.00    -0.00    -0.00     0.00     0.00     0.00
eigval :       -2.23    38.45    43.74    64.81    69.36   110.17
eigval :      116.51   149.65   191.36   211.62   225.47   227.16
eigval :      277.41   282.16   311.13   321.05   386.99   388.32
eigval :      391.87   408.39   418.36   426.87   432.18   468.50
eigval :      482.25   489.43   509.09   512.20   529.62   553.16
eigval :      582.86   594.29   596.36   639.76   640.01   655.99
eigval :      678.73   681.72   687.08   692.97   696.00   728.33
eigval :      765.29   769.56   775.74   790.24   822.39   862.93
eigval :      863.89   864.64   872.40   878.46   880.31   897.03
eigval :      899.86   900.29   909.87   912.03   917.51   919.81
eigval :      919.94   940.93  1013.40  1026.73  1064.82  1083.15
eigval :     1095.97  1096.81  1124.52  1127.59  1137.05  1139.94
eigval :     1160.34  1168.52  1179.72  1180.04  1197.26  1201.00
eigval :     1222.72  1236.64  1247.52  1260.57  1272.70  1274.79
eigval :     1280.97  1286.28  1323.34  1333.25  1336.06  1350.75
eigval :     1351.54  1370.45  1373.96  1439.58  1460.85  1466.37
eigval :     1482.64  1487.15  1492.92  1529.58  1560.54  1567.15
eigval :     1579.05  1582.29  1597.69  1631.54  3064.17  3064.87
eigval :     3065.13  3065.57  3066.88  3067.46  3084.33  3084.44
eigval :     3085.68  3089.21  3089.57  3090.16  3099.81  3100.13
eigval :     3100.46  3101.31  3430.70

   temp. (K)  partition function   enthalpy   heat capacity  entropy
                                   cal/mol     cal/K/mol   cal/K/mol   J/K/mol
 298.15  VIB  0.104E+09            10827.785     74.906     66.109
         ROT  0.834E+07              888.752      2.981     34.650
         INT  0.866E+15            11716.537     77.887    100.760
         TR   0.584E+28             1481.254      4.968     43.270
         TOT                       13197.7909    82.8553   144.0296   602.6196

       T/K    H(0)-H(T)+PV         H(T)/Eh          T*S/Eh         G(T)/Eh
   ------------------------------------------------------------------------
    298.15    0.210320E-01    0.350050E+00    0.684331E-01    0.281617E+00
   ------------------------------------------------------------------------

         :::::::::::::::::::::::::::::::::::::::::::::::::::::
         ::                  THERMODYNAMIC                  ::
         :::::::::::::::::::::::::::::::::::::::::::::::::::::
         :: total free energy         -64.766529915591 Eh   ::
         ::.................................................::
         :: total energy              -65.048147234592 Eh   ::
         :: zero point energy           0.329018387300 Eh   ::
         :: G(RRHO) w/o ZPVE           -0.047401068298 Eh   ::
         :: G(RRHO) contrib.            0.281617319002 Eh   ::
         :::::::::::::::::::::::::::::::::::::::::::::::::::::

           -------------------------------------------------
          | TOTAL ENERGY              -65.048147234592 Eh   |
          | TOTAL ENTHALPY            -64.698096828711 Eh   |
          | TOTAL FREE ENERGY         -64.766529915591 Eh   |
          | GRADIENT NORM               0.000041720171 Eh/α |
           -------------------------------------------------

 * finished run on 2025/09/04 at 12:53:30.005
