   * xtb version 6.7.1 (edcfbbe) compiled by 'albert@albert-system' on 2024-07-22

   ID    Z sym.   atoms
    1    6 C      1-6, 8-26
    2    7 N      7
    3    1 H      27-43

          program call               : xtb data2507/gas/FAC/FAC_gas_T1_crest.xyz --gfn 2 --spinpol --tblite --uhf 2 --ohess vtight --parallel 40 --molden --ceasefiles --namespace data2507/gas/FAC/FAC_gas_T1_finalOpt
 * total energy  :   -65.0480458 Eh     change       -0.3868621E-09 Eh
 * total energy  :   -65.0480767 Eh     change       -0.3090931E-04 Eh
 * total energy  :   -65.0480860 Eh     change       -0.9249147E-05 Eh
 * total energy  :   -65.0480896 Eh     change       -0.3623180E-05 Eh
 * total energy  :   -65.0480932 Eh     change       -0.3578867E-05 Eh
 * total energy  :   -65.0480963 Eh     change       -0.3148322E-05 Eh
 * total energy  :   -65.0480985 Eh     change       -0.2209823E-05 Eh
 * total energy  :   -65.0481000 Eh     change       -0.1526660E-05 Eh
 * total energy  :   -65.0481012 Eh     change       -0.1187686E-05 Eh
 * total energy  :   -65.0481023 Eh     change       -0.1107499E-05 Eh
 * total energy  :   -65.0481100 Eh     change       -0.2601355E-05 Eh
 * total energy  :   -65.0481129 Eh     change       -0.2949085E-05 Eh
 * total energy  :   -65.0481159 Eh     change       -0.2956933E-05 Eh
 * total energy  :   -65.0481183 Eh     change       -0.2444559E-05 Eh
 * total energy  :   -65.0481202 Eh     change       -0.1820432E-05 Eh
 * total energy  :   -65.0481216 Eh     change       -0.1399998E-05 Eh
 * total energy  :   -65.0481227 Eh     change       -0.1162119E-05 Eh
 * total energy  :   -65.0481239 Eh     change       -0.1142768E-05 Eh
 * total energy  :   -65.0481239 Eh     change       -0.8045859E-08 Eh
   *** GEOMETRY OPTIMIZATION CONVERGED AFTER 22 ITERATIONS ***

 final structure:
================
43
 xtb: 6.7.1 (edcfbbe)
C           -2.40943981552516        3.59899257907581        0.23483371537825
C           -1.02809626837056        3.65760856908728        0.33700281665938
C           -0.28560867477094        2.48988276211438        0.31587832381025
C           -0.90107860173486        1.25331812215568        0.19959351360641
C           -2.29650988180852        1.19874713436683        0.10678163257464
C           -3.04179502707919        2.37768164638687        0.12300113923700
N           -2.93362667365991       -0.01604459837290        0.00386124309265
C           -2.28510628562826       -1.22080443983735        0.14603764741099
C           -3.01939284059813       -2.40537463103849        0.20294229744573
C           -2.37557043439973       -3.61641872553567        0.35408525008234
C           -0.99353170175816       -3.65895311439543        0.45466199828469
C           -0.26197417523743       -2.48574605554799        0.39336347283190
C           -0.88910771485100       -1.25937927057664        0.23812293711788
C           -0.06517947168624       -0.00087435398199        0.10584635640051
C            1.09513948455244        0.01883679589501        1.08124672947847
C            1.06250789263470        0.03444190280662        2.43770360382898
C            2.27764059009252        0.05010989099919        3.15362864891366
C            3.51113644370557        0.04985712055112        2.46746725751750
C            3.57448022386832        0.03455114023259        1.10697616855258
C            2.35396677561451        0.01774179754640        0.35513079895292
C            2.10160183212364       -0.00174400173689       -1.00258445229418
C            2.96883416304925       -0.00981654854527       -2.14414042212801
C            2.42026149738293       -0.02964130727901       -3.38973563087186
C            1.02133489297243       -0.04285902753376       -3.58589594774131
C            0.14643411395334       -0.03513701765503       -2.48122030151434
C            0.66662175116886       -0.01512568626550       -1.22815014786331
H           -2.99446396640971        4.50642428597861        0.24424846302504
H           -0.53099879586120        4.61111457058621        0.42717542041417
H            0.79115195423120        2.53263491275568        0.38670417710162
H           -4.11905409041610        2.32232367213050        0.04802154090702
H           -3.94234484924181       -0.02140464038643       -0.03447406721155
H           -4.09726919334226       -2.36243248701540        0.12871759530838
H           -2.95218956350196       -4.52832008197486        0.39556735123543
H           -0.48743973191235       -4.60431810711049        0.57535125607062
H            0.81526076817110       -2.51618379353203        0.46339362507892
H            0.12318380029623        0.03472831446621        2.97297321211996
H            2.26502192597466        0.06219561050169        4.23168455321100
H            4.42222946646556        0.06215703464478        3.04935458082825
H            4.51898161781054        0.03437168229059        0.58485196430422
H            4.03801119202199        0.00039957621645       -1.99736839751078
H            3.06003773685805       -0.03555530283747       -4.26115110652412
H            0.62163336877341       -0.05855773817711       -4.58716442181409
H           -0.92261304812784       -0.04497186025255       -2.64303295020705

 projected vibrational frequencies (cm⁻¹)
eigval :       -0.00    -0.00     0.00     0.00     0.00     0.00
eigval :       17.64    36.86    45.03    64.49    71.08   110.15
eigval :      117.88   150.81   189.80   208.43   228.55   231.17
eigval :      275.77   281.70   310.38   322.15   386.64   389.67
eigval :      392.42   408.22   420.97   424.50   434.74   467.76
eigval :      487.99   490.10   510.89   513.27   530.48   553.37
eigval :      582.74   593.27   598.28   639.04   639.25   657.49
eigval :      679.02   682.60   687.98   691.82   696.32   728.37
eigval :      766.78   769.72   775.65   791.25   822.49   863.10
eigval :      863.99   865.20   873.09   877.99   879.84   897.42
eigval :      899.72   900.89   909.27   911.36   916.74   919.81
eigval :      919.93   941.06  1014.03  1027.13  1064.91  1082.78
eigval :     1095.69  1096.58  1123.99  1128.32  1135.44  1141.29
eigval :     1160.80  1169.08  1179.63  1179.86  1198.29  1201.08
eigval :     1223.36  1234.37  1248.65  1260.30  1271.16  1274.21
eigval :     1281.78  1287.97  1323.30  1332.71  1335.93  1350.69
eigval :     1351.64  1371.00  1373.04  1439.76  1458.68  1465.34
eigval :     1481.24  1488.17  1493.33  1528.96  1559.20  1567.05
eigval :     1577.33  1581.02  1597.14  1627.13  3064.38  3064.79
eigval :     3065.51  3066.38  3067.04  3067.86  3084.22  3084.30
eigval :     3085.81  3089.19  3089.46  3090.07  3099.49  3099.82
eigval :     3100.10  3101.14  3428.55

   temp. (K)  partition function   enthalpy   heat capacity  entropy
                                   cal/mol     cal/K/mol   cal/K/mol   J/K/mol
 298.15  VIB  0.133E+08            10793.541     74.890     63.990
         ROT  0.832E+07              888.752      2.981     34.646
         INT  0.110E+15            11682.294     77.871     98.637
         TR   0.584E+28             1481.254      4.968     43.270
         TOT                       13163.5474    82.8393   141.9065   593.7368

       T/K    H(0)-H(T)+PV         H(T)/Eh          T*S/Eh         G(T)/Eh
   ------------------------------------------------------------------------
    298.15    0.209774E-01    0.350049E+00    0.674244E-01    0.282625E+00
   ------------------------------------------------------------------------

         :::::::::::::::::::::::::::::::::::::::::::::::::::::
         ::                  THERMODYNAMIC                  ::
         :::::::::::::::::::::::::::::::::::::::::::::::::::::
         :: total free energy         -64.765498853675 Eh   ::
         ::.................................................::
         :: total energy              -65.048123880785 Eh   ::
         :: zero point energy           0.329071933945 Eh   ::
         :: G(RRHO) w/o ZPVE           -0.046446906835 Eh   ::
         :: G(RRHO) contrib.            0.282625027110 Eh   ::
         :::::::::::::::::::::::::::::::::::::::::::::::::::::

           -------------------------------------------------
          | TOTAL ENERGY              -65.048123880785 Eh   |
          | TOTAL ENTHALPY            -64.698074498722 Eh   |
          | TOTAL FREE ENERGY         -64.765498853675 Eh   |
          | GRADIENT NORM               0.000078813794 Eh/α |
           -------------------------------------------------

 * finished run on 2025/09/04 at 12:55:09.878
