   * xtb version 6.7.1 (edcfbbe) compiled by 'albert@albert-system' on 2024-07-22

   ID    Z sym.   atoms
    1    8 O      1, 9
    2    6 C      2-8, 10-15, 17-30, 32-47
    3    7 N      16, 31
    4    1 H      48-73

          program call               : xtb data2507/gas/Xp-mCP/Xp-mCP_gas_T1_crest.xyz --gfn 2 --spinpol --tblite --uhf 2 --ohess vtight --parallel 40 --molden --ceasefiles --namespace data2507/gas/Xp-mCP/Xp-mCP_gas_T1_finalOpt
 * total energy  :  -119.3243974 Eh     change       -0.3207660E-08 Eh
 * total energy  :  -119.3244624 Eh     change       -0.6499379E-04 Eh
 * total energy  :  -119.3244882 Eh     change       -0.2586374E-04 Eh
 * total energy  :  -119.3244918 Eh     change       -0.3590846E-05 Eh
 * total energy  :  -119.3244953 Eh     change       -0.3434282E-05 Eh
 * total energy  :  -119.3244985 Eh     change       -0.3265362E-05 Eh
 * total energy  :  -119.3245019 Eh     change       -0.3414705E-05 Eh
 * total energy  :  -119.3245047 Eh     change       -0.2771742E-05 Eh
 * total energy  :  -119.3245079 Eh     change       -0.3188749E-05 Eh
 * total energy  :  -119.3245110 Eh     change       -0.3044845E-05 Eh
 * total energy  :  -119.3245250 Eh     change       -0.1726757E-05 Eh
 * total energy  :  -119.3245259 Eh     change       -0.9619518E-06 Eh
 * total energy  :  -119.3245267 Eh     change       -0.7901457E-06 Eh
 * total energy  :  -119.3245274 Eh     change       -0.7043545E-06 Eh
 * total energy  :  -119.3245280 Eh     change       -0.5604832E-06 Eh
 * total energy  :  -119.3245285 Eh     change       -0.5158722E-06 Eh
 * total energy  :  -119.3245289 Eh     change       -0.3832853E-06 Eh
 * total energy  :  -119.3245292 Eh     change       -0.3422211E-06 Eh
 * total energy  :  -119.3245293 Eh     change       -0.4906879E-07 Eh
   *** GEOMETRY OPTIMIZATION CONVERGED AFTER 22 ITERATIONS ***

 final structure:
================
73
 xtb: 6.7.1 (edcfbbe)
O            6.21602154085866       -3.04990902783248       -1.58402814061786
C            5.86391235511126       -1.97439968624879       -1.03803100830051
C            6.83737776970751       -1.01214517385011       -0.53671423920127
C            8.21031603914954       -1.25955440187797       -0.65775007550357
C            9.12857320322495       -0.34696718265921       -0.18076971938848
C            8.70022652857438        0.82597626929919        0.42142352035395
C            7.34483044595784        1.08776882841889        0.54882890386602
C            6.41126789726835        0.17747890178013        0.07315169209038
O            5.09970525626699        0.50006210211371        0.22767644016339
C            4.15482497180890       -0.37330029321086       -0.23314155923773
C            2.83834057000009       -0.01375009683511       -0.06137831874338
C            1.78913297342049       -0.85367643170804       -0.48320414423937
C            0.40676342010417       -0.46795083466575       -0.29232111863602
C            0.03354230532181        0.88258198908772       -0.21797829179920
C           -1.28657601235732        1.25410446534234       -0.02007748391830
N           -1.61132832313035        2.61494555429783        0.08147232171586
C           -0.98150717228015        3.52076973077438        0.90966565833976
C            0.04165828135958        3.31636883084072        1.82595136377046
C            0.48344165592343        4.40651258178085        2.55180453334002
C           -0.08186061094999        5.66817324447098        2.38436340440559
C           -1.11992642446822        5.87188298628779        1.49312341212489
C           -1.57880368594855        4.79338989011374        0.75225073000428
C           -2.62143931839824        4.63482471009792       -0.22612738774605
C           -3.53041484749993        5.50855923187420       -0.80283205995521
C           -4.40531897721193        5.01979210306436       -1.75621252768934
C           -4.36775508830637        3.68364472473055       -2.14617354363032
C           -3.46932857987930        2.79540921301791       -1.58606162482380
C           -2.60634472428114        3.27280083057171       -0.60956701956644
C           -2.28836162142297        0.29289825434878        0.09831276311626
C           -1.93108509823918       -1.05169714347479        0.01777372732780
N           -2.91743857072144       -2.03951886963758        0.16289618428156
C           -2.86446732021607       -3.09968318521895        1.04362410861201
C           -1.89127628145032       -3.42192214135882        1.98028729880224
C           -2.09668907020399       -4.54355642321409        2.76157785441634
C           -3.24306413908936       -5.32282938629846        2.62759794354958
C           -4.22707462585806       -4.99255907390357        1.71319496807952
C           -4.04289924433617       -3.87246248234378        0.91701530460181
C           -4.83908382855972       -3.23705513931163       -0.09875473300932
C           -6.06830184378664       -3.52752759930211       -0.67059755918040
C           -6.54672292371955       -2.69817774073500       -1.66894624730798
C           -5.80708081595423       -1.60310155353229       -2.10795307239460
C           -4.57912951408186       -1.29552735746275       -1.55364111048762
C           -4.10526547640045       -2.10791958160521       -0.53301468423146
C           -0.61135933842628       -1.42671731833121       -0.17545752574075
C            2.13884633729269       -2.07147510457474       -1.09354641512800
C            3.44419768278896       -2.43295027471432       -1.27932812701720
C            4.49868753579548       -1.59444710755892       -0.85230465790615
H            8.52235212290745       -2.17822658530736       -1.12893795598299
H           10.18402232291386       -0.55250632467723       -0.27773036401531
H            9.41734408682552        1.54126653828182        0.79391429131692
H            6.98807309214382        1.99479388114873        1.01109758267538
H            2.63845955211630        0.91812257385834        0.44316428508644
H            0.77316933616190        1.65340485164646       -0.36422772853774
H            0.47015033123521        2.33737633415992        1.97671468168982
H            1.28139498860816        4.27567681481694        3.26714390488022
H            0.29202048186924        6.49563605515280        2.96825630219200
H           -1.56756807751448        6.84705791059030        1.37677478965088
H           -3.54872574318197        6.54865239617668       -0.51517590446038
H           -5.12255379136646        5.68354142607130       -2.21490641021861
H           -5.05178185733482        3.33487209316383       -2.90526484931542
H           -3.43130969853674        1.76724527615271       -1.90970822994710
H           -3.30901259570369        0.58055825753767        0.29420890226208
H           -1.00821838524142       -2.81364171348613        2.10222630256439
H           -1.35314428218133       -4.81896083720890        3.49421519946043
H           -3.36618153316153       -6.19261893790005        3.25504942431013
H           -5.12152824948986       -5.58952295769634        1.62108330843366
H           -6.63485501292944       -4.38647559101362       -0.34489768335048
H           -7.50297928289064       -2.90596124784601       -2.12479032446201
H           -6.19878706144521       -0.98404930376985       -2.90111804417104
H           -4.00056144308664       -0.45963976936084       -1.91447995673989
H           -0.37316991957950       -2.47697617039375       -0.23063253997081
H            1.36350743189900       -2.72493669492539       -1.46418726489384
H            3.70673544910745       -3.36059518802420       -1.76310261281872

 projected vibrational frequencies (cm⁻¹)
eigval :       -0.00     0.00     0.00     0.00     0.00     0.00
eigval :       13.64    17.35    19.23    22.30    24.51    28.09
eigval :       46.23    62.28    70.03    76.17    98.24   101.16
eigval :      113.28   130.25   134.99   138.59   143.69   149.94
eigval :      159.80   200.83   214.20   222.77   246.53   253.02
eigval :      257.89   262.49   270.50   271.17   275.54   301.71
eigval :      306.68   322.45   358.20   370.54   381.30   391.52
eigval :      394.10   396.39   404.22   419.90   421.19   434.18
eigval :      435.62   443.98   464.81   492.83   505.50   508.14
eigval :      515.38   516.85   517.87   534.61   537.23   537.51
eigval :      539.54   548.25   563.17   574.60   584.78   586.22
eigval :      590.52   619.40   621.66   634.94   641.49   642.40
eigval :      658.72   662.83   674.02   674.27   682.23   700.94
eigval :      709.37   709.67   748.34   753.49   760.29   765.63
eigval :      765.99   768.86   769.64   777.00   778.46   795.24
eigval :      818.80   827.28   830.24   849.44   852.93   860.44
eigval :      866.47   873.81   876.36   884.86   886.08   888.26
eigval :      895.54   896.71   899.57   900.34   902.76   904.22
eigval :      905.47   906.87   907.26   919.10   921.45   922.73
eigval :      923.17   968.99   997.53  1011.35  1012.84  1031.74
eigval :     1064.96  1068.19  1070.29  1071.92  1075.15  1080.28
eigval :     1097.47  1115.89  1119.07  1126.12  1141.59  1145.61
eigval :     1161.72  1165.28  1170.71  1174.61  1175.46  1177.80
eigval :     1179.14  1179.67  1195.93  1211.72  1218.47  1227.10
eigval :     1229.79  1232.55  1233.79  1236.61  1247.81  1250.22
eigval :     1275.99  1288.89  1290.66  1291.96  1295.57  1317.28
eigval :     1331.99  1334.94  1339.57  1345.81  1347.06  1360.04
eigval :     1361.35  1372.58  1398.51  1402.40  1412.13  1413.91
eigval :     1416.53  1428.20  1435.83  1437.14  1441.72  1458.57
eigval :     1463.12  1465.49  1467.88  1478.61  1483.22  1483.63
eigval :     1507.89  1519.79  1547.39  1552.94  1567.34  1568.06
eigval :     1576.06  1582.10  1583.59  1583.76  1584.87  1602.76
eigval :     1608.77  3082.36  3082.64  3082.70  3082.71  3083.12
eigval :     3083.41  3087.22  3087.55  3088.59  3089.04  3092.55
eigval :     3094.11  3094.51  3095.99  3097.17  3100.62  3100.79
eigval :     3101.22  3102.00  3102.36  3104.71  3105.65  3106.73
eigval :     3107.95  3108.49  3109.84

   temp. (K)  partition function   enthalpy   heat capacity  entropy
                                   cal/mol     cal/K/mol   cal/K/mol   J/K/mol
 298.15  VIB  0.285E+16            20705.972    134.825    126.089
         ROT  0.909E+08              888.752      2.981     39.397
         INT  0.259E+24            21594.725    137.806    165.486
         TR   0.143E+29             1481.254      4.968     45.052
         TOT                       23075.9788   142.7745   210.5378   880.8904

       T/K    H(0)-H(T)+PV         H(T)/Eh          T*S/Eh         G(T)/Eh
   ------------------------------------------------------------------------
    298.15    0.367739E-01    0.582912E+00    0.100033E+00    0.482878E+00
   ------------------------------------------------------------------------

         :::::::::::::::::::::::::::::::::::::::::::::::::::::
         ::                  THERMODYNAMIC                  ::
         :::::::::::::::::::::::::::::::::::::::::::::::::::::
         :: total free energy        -118.841650801675 Eh   ::
         ::.................................................::
         :: total energy             -119.324529281373 Eh   ::
         :: zero point energy           0.546137892933 Eh   ::
         :: G(RRHO) w/o ZPVE           -0.063259413235 Eh   ::
         :: G(RRHO) contrib.            0.482878479698 Eh   ::
         :::::::::::::::::::::::::::::::::::::::::::::::::::::

           -------------------------------------------------
          | TOTAL ENERGY             -119.324529281373 Eh   |
          | TOTAL ENTHALPY           -118.741617475528 Eh   |
          | TOTAL FREE ENERGY        -118.841650801675 Eh   |
          | GRADIENT NORM               0.000120136567 Eh/α |
           -------------------------------------------------

 * finished run on 2025/09/10 at 14:48:27.740
