   * xtb version 6.7.1 (edcfbbe) compiled by 'albert@albert-system' on 2024-07-22

   ID    Z sym.   atoms
    1    8 O      1, 9
    2    6 C      2-8, 10-15, 17-30, 32-47
    3    7 N      16, 31
    4    1 H      48-73

          program call               : xtb data2507/gas/Xp-mCP/Xp-mCP_gas_S0_crest.xyz --gfn 2 --ohess vtight --parallel 40 --molden --ceasefiles --namespace data2507/gas/Xp-mCP/Xp-mCP_gas_S0_finalOpt
          :  Hamiltonian                  GFN2-xTB          :
 * total energy  :  -119.4100316 Eh     change       -0.9376038E-09 Eh
 * total energy  :  -119.4100328 Eh     change       -0.1190364E-05 Eh
 * total energy  :  -119.4100346 Eh     change       -0.1828547E-05 Eh
 * total energy  :  -119.4100384 Eh     change       -0.3766076E-05 Eh
 * total energy  :  -119.4100425 Eh     change       -0.4075444E-05 Eh
 * total energy  :  -119.4100440 Eh     change       -0.1504906E-05 Eh
 * total energy  :  -119.4100436 Eh     change        0.3489897E-06 Eh
 * total energy  :  -119.4100449 Eh     change       -0.1265726E-05 Eh
 * total energy  :  -119.4100458 Eh     change       -0.9441111E-06 Eh
 * total energy  :  -119.4100470 Eh     change       -0.1159085E-05 Eh
 * total energy  :  -119.4100507 Eh     change       -0.1418433E-05 Eh
 * total energy  :  -119.4100522 Eh     change       -0.1469233E-05 Eh
 * total energy  :  -119.4100531 Eh     change       -0.9654061E-06 Eh
 * total energy  :  -119.4100537 Eh     change       -0.5398212E-06 Eh
 * total energy  :  -119.4100541 Eh     change       -0.3894820E-06 Eh
 * total energy  :  -119.4100544 Eh     change       -0.3422585E-06 Eh
 * total energy  :  -119.4100547 Eh     change       -0.2460106E-06 Eh
 * total energy  :  -119.4100548 Eh     change       -0.1332634E-06 Eh
 * total energy  :  -119.4100548 Eh     change       -0.2126541E-08 Eh
   *** GEOMETRY OPTIMIZATION CONVERGED AFTER 22 ITERATIONS ***

 final structure:
================
73
 xtb: 6.7.1 (edcfbbe)
O            6.32872084509253        2.90868779248827       -1.27247778904034
C            5.95497311676123        1.90418020350319       -0.69320759249189
C            6.87583260651618        0.95340517248483       -0.04984060620254
C            8.25520026004168        1.17535984358929       -0.08152221177260
C            9.12416366725626        0.29229715721094        0.51660831529217
C            8.62689408319939       -0.83651186337440        1.16201337562858
C            7.27113697580092       -1.07725212733469        1.20694135601130
C            6.38645051586688       -0.18402928289430        0.60138560973377
O            5.06569968990800       -0.47918970316910        0.68123626307775
C            4.16879591823212        0.35758441394721        0.10656313068021
C            2.82485496148044        0.00817913256460        0.21545292915887
C            1.84022683374064        0.81120530407723       -0.33843084421474
C            0.42333248858822        0.43724843764877       -0.22124868296992
C           -0.54458921471318        1.41104048654777        0.00136368998643
C           -1.88685497372616        1.06055109244024        0.10138148719080
N           -2.85149165547222        2.05083797154559        0.31312630124200
C           -3.84661772729472        2.02847327417695        1.27255195517046
C           -4.10651120513895        1.08610956054670        2.25675530948383
C           -5.16157830489518        1.32560910213641        3.11661305862185
C           -5.93850840959374        2.47691276090017        3.01253904543148
C           -5.66853947941761        3.43042717210120        2.05145374131545
C           -4.61344007775403        3.21187809502681        1.17568865883560
C           -4.05079832530929        3.97802447784498        0.09861861537638
C           -4.37595834964896        5.19981218939963       -0.47554781906489
C           -3.62473914176871        5.65009049628613       -1.54270751865891
C           -2.57279499121825        4.89040862214027       -2.04908249423483
C           -2.23086736197894        3.67176716131477       -1.49448871567592
C           -2.96410279144413        3.22741380908947       -0.40395123149380
C           -2.26847048527613       -0.27237369387185       -0.00393497466921
C           -1.30348888116892       -1.25022490588670       -0.21812779444810
N           -1.67835440441510       -2.59373753547716       -0.32370078231642
C           -1.09064937383259       -3.64611426365547        0.35266365412631
C           -0.08053052195543       -3.63211325723986        1.30342071454677
C            0.30682710011564       -4.83996508299205        1.85168576954753
C           -0.29866759244683       -6.03667507060098        1.47563699686158
C           -1.32329989378281       -6.05357548706038        0.55055397170523
C           -1.72944216801328       -4.85203151459443       -0.01464942443396
C           -2.74834834114280       -4.50177112782676       -0.96473512468974
C           -3.67616518488977       -5.24287936628614       -1.68444645578282
C           -4.51837266380931       -4.58135424159167       -2.55550354808209
C           -4.43255986234063       -3.20150474488170       -2.72496424979289
C           -3.51739729751131       -2.44280661006483       -2.02024859269054
C           -2.68567164136942       -3.09879021542953       -1.12459818908965
C            0.03565788160932       -0.89377739090385       -0.33470384244010
C            2.21389681257916        1.98066404364140       -1.01340172180919
C            3.53821544721398        2.32495573447443       -1.12623946297760
C            4.54006999450587        1.52492782613351       -0.56941438923001
H            8.60590309587134        2.06043414428589       -0.59058119560046
H           10.18785965942891        0.47118759384314        0.48729428862559
H            9.30674362601010       -1.53096513839766        1.63214506389003
H            6.86846498512122       -1.94673948463564        1.70231091607677
H            2.57372571380006       -0.88994798440259        0.75767423227056
H           -0.25607795309082        2.44197142269239        0.13519278346975
H           -3.49963699588059        0.19930096256546        2.36084060622690
H           -5.38591246349620        0.60473436621689        3.88887128031217
H           -6.75619141323395        2.62573169002039        3.70182604651214
H           -6.25930860502573        4.33114163644496        1.98089987803354
H           -5.20300702452752        5.77955324226973       -0.09458906825106
H           -3.85861554806058        6.59901646663527       -2.00165039727261
H           -2.01441299955313        5.25978810529544       -2.89654333336146
H           -1.42844078201239        3.08026661875362       -1.90933367663384
H           -3.30852162415303       -0.54643189403802        0.07953980953735
H            0.37954477311261       -2.70759532992758        1.61886420743513
H            1.09360303113508       -4.85565880121591        2.59149031500369
H            0.03444642739983       -6.96030461040316        1.92488924519084
H           -1.80528383452929       -6.97857761960211        0.27252810001657
H           -3.73034847750579       -6.31438287860973       -1.56509866152772
H           -5.24897147637107       -5.13816992773368       -3.12298009667638
H           -5.09347086018160       -2.71303004748183       -3.42560960522643
H           -3.44743840339603       -1.37677611366315       -2.17577023365138
H            0.76870578806714       -1.65502136777031       -0.55151420709903
H            1.45532852217838        2.60173834431609       -1.46409280787191
H            3.84634348811118        3.21888471011820       -1.64720666317764

          :  Hamiltonian                  GFN2-xTB          :
         :: gradient norm              0.000033407655 Eh/a0 ::
         :: HOMO-LUMO gap              2.023452907579 eV    ::
         :: SCC energy              -121.565429901569 Eh    ::
         :: -> dispersion             -0.102011021062 Eh    ::
         :: repulsion energy           2.155375112748 Eh    ::

    * Orbital Energies and Occupations

         #    Occupation            Energy/Eh            Energy/eV
      -------------------------------------------------------------
         1        2.0000           -0.7541160             -20.5205
       ...           ...                  ...                  ...
        98        2.0000           -0.4218428             -11.4789
        99        2.0000           -0.4215662             -11.4714
       100        2.0000           -0.4208006             -11.4506
       101        2.0000           -0.4185685             -11.3898
       102        2.0000           -0.4097278             -11.1493
       103        2.0000           -0.4082462             -11.1089
       104        2.0000           -0.4076164             -11.0918
       105        2.0000           -0.3975834             -10.8188
       106        2.0000           -0.3892907             -10.5931
       107        2.0000           -0.3817908             -10.3891
       108        2.0000           -0.3811779             -10.3724
       109        2.0000           -0.3676322             -10.0038
       110        2.0000           -0.3669232              -9.9845 (HOMO)
       111                         -0.2925627              -7.9610 (LUMO)
       112                         -0.2620780              -7.1315
       113                         -0.2523052              -6.8656
       114                         -0.2489825              -6.7752
       115                         -0.2472580              -6.7282
       116                         -0.2427819              -6.6064
       117                         -0.2307691              -6.2795
       118                         -0.2250238              -6.1232
       119                         -0.2250091              -6.1228
       120                         -0.2244059              -6.1064
       121                         -0.1987740              -5.4089
       ...                                ...                  ...
       214                          0.7435279              20.2324
      -------------------------------------------------------------
                  HL-Gap            0.0743605 Eh            2.0235 eV

     #   Z          covCN         q      C6AA      α(0)
     1   8 O        0.857    -0.396    21.595     6.230
     2   6 C        2.830     0.224    23.290     7.908
     3   6 C        2.974    -0.040    28.994     8.832
     4   6 C        2.923    -0.019    28.484     8.752
     5   6 C        2.916    -0.035    28.859     8.809
     6   6 C        2.921    -0.022    28.552     8.763
     7   6 C        2.916    -0.051    29.269     8.872
     8   6 C        2.886     0.143    24.896     8.180
     9   8 O        1.711    -0.214    17.550     5.656
    10   6 C        2.884     0.142    24.898     8.180
    11   6 C        2.922    -0.057    29.421     8.895
    12   6 C        2.978     0.020    27.567     8.612
    13   6 C        2.976     0.014    27.704     8.634
    14   6 C        2.928    -0.053    29.328     8.881
    15   6 C        2.911     0.067    26.489     8.440
    16   7 N        2.803    -0.044    22.085     6.980
    17   6 C        3.073     0.046    26.884     8.501
    18   6 C        2.910    -0.051    29.261     8.870
    19   6 C        2.924    -0.033    28.816     8.803
    20   6 C        2.920    -0.040    28.994     8.830
    21   6 C        2.913    -0.032    28.805     8.801
    22   6 C        3.068    -0.016    28.340     8.729
    23   6 C        3.067    -0.016    28.339     8.729
    24   6 C        2.913    -0.032    28.802     8.800
    25   6 C        2.920    -0.040    28.994     8.830
    26   6 C        2.924    -0.033    28.821     8.804
    27   6 C        2.910    -0.051    29.262     8.870
    28   6 C        3.074     0.046    26.887     8.502
    29   6 C        2.925    -0.060    29.492     8.906
    30   6 C        2.910     0.067    26.491     8.440
    31   7 N        2.803    -0.044    22.083     6.979
    32   6 C        3.074     0.046    26.885     8.501
    33   6 C        2.910    -0.051    29.264     8.870
    34   6 C        2.924    -0.033    28.826     8.805
    35   6 C        2.920    -0.040    29.001     8.831
    36   6 C        2.913    -0.032    28.804     8.801
    37   6 C        3.067    -0.016    28.340     8.729
    38   6 C        3.068    -0.016    28.343     8.730
    39   6 C        2.913    -0.032    28.805     8.801
    40   6 C        2.920    -0.040    28.992     8.830
    41   6 C        2.924    -0.033    28.812     8.803
    42   6 C        2.910    -0.051    29.258     8.870
    43   6 C        3.073     0.047    26.882     8.501
    44   6 C        2.928    -0.054    29.339     8.883
    45   6 C        2.921    -0.040    28.994     8.830
    46   6 C        2.921    -0.020    28.510     8.756
    47   6 C        2.974    -0.042    29.038     8.839
    48   1 H        0.926     0.069     2.095     2.263
    49   1 H        0.926     0.047     2.363     2.404
    50   1 H        0.926     0.048     2.343     2.394
    51   1 H        0.926     0.055     2.254     2.348
    52   1 H        0.926     0.056     2.250     2.345
    53   1 H        0.926     0.049     2.329     2.386
    54   1 H        0.926     0.027     2.633     2.537
    55   1 H        0.926     0.030     2.582     2.513
    56   1 H        0.926     0.029     2.594     2.518
    57   1 H        0.926     0.032     2.553     2.499
    58   1 H        0.926     0.032     2.553     2.499
    59   1 H        0.926     0.030     2.589     2.516
    60   1 H        0.926     0.031     2.577     2.511
    61   1 H        0.926     0.025     2.655     2.548
    62   1 H        0.926     0.053     2.280     2.361
    63   1 H        0.926     0.025     2.657     2.549
    64   1 H        0.926     0.030     2.591     2.517
    65   1 H        0.926     0.029     2.597     2.520
    66   1 H        0.926     0.032     2.554     2.499
    67   1 H        0.926     0.032     2.554     2.499
    68   1 H        0.926     0.030     2.592     2.518
    69   1 H        0.926     0.031     2.578     2.511
    70   1 H        0.926     0.027     2.627     2.535
    71   1 H        0.926     0.048     2.340     2.392
    72   1 H        0.926     0.047     2.358     2.401
    73   1 H        0.926     0.070     2.084     2.258

molecular dipole:
                 x           y           z       tot (Debye)
 q only:       -0.116      -0.838       0.500
   full:       -0.072      -0.963       0.579       2.861

 projected vibrational frequencies (cm⁻¹)
eigval :       -0.00    -0.00     0.00     0.00     0.00     0.00
eigval :       13.80    18.32    20.64    21.85    23.24    24.25
eigval :       45.21    63.22    69.27    73.75    97.60   102.18
eigval :      115.14   125.49   134.50   142.18   144.70   151.23
eigval :      159.98   206.60   211.13   237.30   242.36   251.15
eigval :      260.78   269.19   271.32   272.16   281.56   306.24
eigval :      311.68   324.45   358.69   374.54   393.13   396.41
eigval :      396.86   404.78   423.10   423.33   428.62   437.04
eigval :      437.71   454.79   470.25   499.97   511.74   514.73
eigval :      517.74   520.59   527.36   539.76   541.24   541.35
eigval :      544.00   559.22   586.16   588.24   606.16   609.31
eigval :      621.02   623.63   640.14   642.91   651.53   669.14
eigval :      672.24   673.80   677.33   686.67   705.77   708.21
eigval :      709.43   742.30   750.34   754.63   769.18   770.04
eigval :      771.29   776.59   780.90   781.42   790.01   830.72
eigval :      839.02   848.49   867.68   868.90   873.22   874.37
eigval :      878.94   881.86   892.39   893.13   897.80   899.08
eigval :      899.54   903.69   904.96   907.50   911.32   922.48
eigval :      922.76   922.96   923.24   924.05   925.96   927.17
eigval :      929.37   983.21  1000.85  1012.10  1013.97  1034.96
eigval :     1070.45  1070.97  1074.08  1074.47  1076.95  1096.09
eigval :     1113.03  1121.92  1124.74  1133.50  1152.46  1152.65
eigval :     1166.10  1170.19  1172.56  1179.83  1181.27  1181.43
eigval :     1182.11  1193.22  1205.01  1216.15  1230.73  1233.72
eigval :     1235.57  1236.26  1238.08  1242.57  1247.74  1274.73
eigval :     1283.41  1296.58  1302.11  1303.67  1305.25  1320.01
eigval :     1333.84  1343.65  1351.38  1357.91  1358.26  1361.62
eigval :     1362.98  1390.05  1403.53  1419.89  1424.47  1427.99
eigval :     1430.09  1434.66  1449.32  1457.39  1463.25  1474.59
eigval :     1476.88  1482.67  1488.02  1488.07  1550.60  1568.28
eigval :     1570.82  1573.36  1575.81  1577.56  1589.37  1589.56
eigval :     1590.78  1598.19  1599.68  1600.10  1614.67  1615.53
eigval :     1685.62  3076.10  3076.83  3077.68  3077.97  3081.68
eigval :     3081.92  3083.06  3083.16  3087.58  3088.36  3088.58
eigval :     3090.47  3090.52  3092.80  3095.16  3096.33  3096.55
eigval :     3098.00  3098.22  3101.98  3102.85  3103.52  3104.45
eigval :     3105.91  3107.51  3107.95

   temp. (K)  partition function   enthalpy   heat capacity  entropy
                                   cal/mol     cal/K/mol   cal/K/mol   J/K/mol
 298.15  VIB  0.240E+16            20428.841    132.775    124.621
         ROT  0.915E+08              888.752      2.981     39.411
         INT  0.220E+24            21317.593    135.756    164.032
         TR   0.143E+29             1481.254      4.968     45.052
         TOT                       22798.8471   140.7238   209.0841   874.8077

       T/K    H(0)-H(T)+PV         H(T)/Eh          T*S/Eh         G(T)/Eh
   ------------------------------------------------------------------------
    298.15    0.363323E-01    0.586780E+00    0.993426E-01    0.487438E+00
   ------------------------------------------------------------------------

         :::::::::::::::::::::::::::::::::::::::::::::::::::::
         ::                  THERMODYNAMIC                  ::
         :::::::::::::::::::::::::::::::::::::::::::::::::::::
         :: total free energy        -118.922617279711 Eh   ::
         ::.................................................::
         :: total energy             -119.410054788821 Eh   ::
         :: zero point energy           0.550447814188 Eh   ::
         :: G(RRHO) w/o ZPVE           -0.063010305077 Eh   ::
         :: G(RRHO) contrib.            0.487437509110 Eh   ::
         :::::::::::::::::::::::::::::::::::::::::::::::::::::

           -------------------------------------------------
          | TOTAL ENERGY             -119.410054788821 Eh   |
          | TOTAL ENTHALPY           -118.823274699193 Eh   |
          | TOTAL FREE ENERGY        -118.922617279711 Eh   |
          | GRADIENT NORM               0.000033406325 Eh/α |
          | HOMO-LUMO GAP               2.023452847297 eV   |
           -------------------------------------------------

 * finished run on 2025/09/10 at 14:36:01.960
