   * xtb version 6.7.1 (edcfbbe) compiled by 'albert@albert-system' on 2024-07-22

   ID    Z sym.   atoms
    1    8 O      1, 9
    2    6 C      2-8, 10-15, 17-30, 32-47
    3    7 N      16, 31
    4    1 H      48-73

          program call               : xtb data2507/gas/Xp-mCP/Xp-mCP.xyz --gfn 2 --ohess vtight --parallel 40 --molden --ceasefiles --namespace data2507/gas/Xp-mCP/Xp-mCP_gas_S0_preOpt
          :  Hamiltonian                  GFN2-xTB          :
 * total energy  :  -119.3914208 Eh     change       -0.1688690E-08 Eh
 * total energy  :  -119.4051141 Eh     change       -0.1369336E-01 Eh
 * total energy  :  -119.4082016 Eh     change       -0.3087502E-02 Eh
 * total energy  :  -119.4088315 Eh     change       -0.6298755E-03 Eh
 * total energy  :  -119.4092369 Eh     change       -0.4053974E-03 Eh
 * total energy  :  -119.4093515 Eh     change       -0.1146068E-03 Eh
 * total energy  :  -119.4094364 Eh     change       -0.8485764E-04 Eh
 * total energy  :  -119.4094884 Eh     change       -0.5198796E-04 Eh
 * total energy  :  -119.4095328 Eh     change       -0.4438896E-04 Eh
 * total energy  :  -119.4095686 Eh     change       -0.3587693E-04 Eh
 * total energy  :  -119.4099974 Eh     change       -0.4990824E-06 Eh
 * total energy  :  -119.4099978 Eh     change       -0.4201306E-06 Eh
 * total energy  :  -119.4099982 Eh     change       -0.3265031E-06 Eh
 * total energy  :  -119.4099984 Eh     change       -0.2440416E-06 Eh
 * total energy  :  -119.4099986 Eh     change       -0.2248732E-06 Eh
 * total energy  :  -119.4099989 Eh     change       -0.2747685E-06 Eh
 * total energy  :  -119.4099993 Eh     change       -0.4190075E-06 Eh
 * total energy  :  -119.4099999 Eh     change       -0.6137404E-06 Eh
 * total energy  :  -119.4099999 Eh     change       -0.2170026E-08 Eh
   *** GEOMETRY OPTIMIZATION CONVERGED AFTER 68 ITERATIONS ***

 final structure:
================
73
 xtb: 6.7.1 (edcfbbe)
O            6.35584253718193       -2.60796545820106       -2.46217014399572
C            6.03770044461475       -1.72442555188362       -1.68607438413869
C            7.01482481364638       -0.89643467334631       -0.96099820143548
C            8.38539163622751       -1.10547152040410       -1.13648924956439
C            9.30655754728633       -0.33762241419667       -0.46228533572112
C            8.87175520693007        0.66061966845485        0.40517938698038
C            7.52595298710719        0.88628135092422        0.59474410153428
C            6.58848698643553        0.10901094349142       -0.08657343087914
O            5.28078639797037        0.38080093060442        0.14572276589343
C            4.33410812059027       -0.35307079885081       -0.48672737686214
C            3.00597310830599       -0.04144365487338       -0.20516190013923
C            1.97445818972884       -0.75168774260067       -0.79867366629966
C            0.57606621486241       -0.42798722890860       -0.47922851677518
C            0.17103194047195        0.89641619342781       -0.35510460736148
C           -1.14832679778800        1.20292948059192       -0.03867311267541
N           -1.53259898899812        2.54020586010344        0.11117067771743
C           -2.62772903653345        3.14805475842773       -0.47273696197470
C           -3.55675982855420        2.63133373619412       -1.36300538692887
C           -4.55248276766049        3.47235783749872       -1.82123472804912
C           -4.62229616072099        4.80318908787955       -1.41642893435976
C           -3.68415921538041        5.33187600083104       -0.55258305457148
C           -2.67535452251571        4.50429704358354       -0.07775478977548
C           -1.55232083543651        4.71649278332518        0.79217636495968
C           -1.08520421209894        5.81877254597116        1.49570144851753
C            0.04087433000740        5.67378751923432        2.28092555849378
C            0.68824269411064        4.44477732742276        2.38376134361784
C            0.24175616051705        3.33414088686338        1.69343991347512
C           -0.87252720559328        3.48063789048879        0.88022449789566
C           -2.07259509644037        0.18254679499643        0.15690382163109
C           -1.67424866108002       -1.14334859816370        0.02321078478719
N           -2.59054144032883       -2.17829720909139        0.24127794402473
C           -2.38996324702295       -3.26732472455135        1.07001441913840
C           -1.30799609715417       -3.57454592165905        1.88214631191147
C           -1.37692619868066       -4.72823683985859        2.63980440102976
C           -2.49568820110453       -5.55712462681117        2.60383728904360
C           -3.58604783561448       -5.24279225421551        1.81778883416781
C           -3.53991917111361       -4.08857288249026        1.04723226535532
C           -4.47415848611792       -3.46059416578565        0.15513124849142
C           -5.74900077174355       -3.79522592651378       -0.28162042027098
C           -6.37894050637859       -2.96281409302944       -1.18506345482365
C           -5.74589224137222       -1.81935770273344       -1.66623462374199
C           -4.47728207231515       -1.46786440651883       -1.24679220759741
C           -3.85024577404221       -2.28375989229588       -0.31730637262684
C           -0.35560703834399       -1.44500569365401       -0.30051690008810
C            2.28217924149572       -1.78350804395562       -1.69456594965329
C            3.59058472519360       -2.08692959875811       -1.98021006239241
C            4.64023243659326       -1.38408743475923       -1.38159571042447
H            8.68707451088397       -1.88764455070825       -1.81669354858703
H           10.36299760021596       -0.50606775399529       -0.60323607509879
H            9.59264335834129        1.26447097924714        0.93543018487513
H            7.17126329201557        1.65521349171577        1.26294304013026
H            2.80537279318311        0.74897881038077        0.50116236141077
H            0.87195572308526        1.69609804034598       -0.53736228689800
H           -3.49848716826677        1.60872410339687       -1.70189937451490
H           -5.28986930781120        3.09008683891710       -2.51148218575985
H           -5.41700819587240        5.42872122894048       -1.79451883609672
H           -3.72692785044277        6.36799090868458       -0.25267095649414
H           -1.59860601141457        6.76607626548079        1.43032290679344
H            0.42265190757975        6.51907742814987        2.83373431177932
H            1.55607184423206        4.35661236224979        3.02067543926865
H            0.73710463494584        2.38062744257830        1.79894776519350
H           -3.08552681334658        0.41716228409805        0.44575388905093
H           -0.44279910624195       -2.93078850206103        1.93374398584655
H           -0.54512447043591       -4.99064390333638        3.27670064132313
H           -2.50931928352399       -6.45165263453735        3.20837107490589
H           -4.46068944830444       -5.87524669038383        1.80216084388286
H           -6.23137913640168       -4.69167121371381        0.07750404085530
H           -7.37181584488273       -3.20300143757469       -1.53480291521740
H           -6.25529974391431       -1.19590756349693       -2.38606220316510
H           -3.98685679527872       -0.59309848916498       -1.64474386191864
H           -0.05738162777099       -2.47699041396462       -0.40050418553780
H            1.48305650441599       -2.32562278977414       -2.17616583314787
H            3.84890332587512       -2.87453382365453       -2.67189111842652

          :  Hamiltonian                  GFN2-xTB          :
         :: gradient norm              0.000036169559 Eh/a0 ::
         :: HOMO-LUMO gap              1.999154353182 eV    ::
         :: SCC energy              -121.565782515228 Eh    ::
         :: -> dispersion             -0.102642731471 Eh    ::
         :: repulsion energy           2.155782585680 Eh    ::

    * Orbital Energies and Occupations

         #    Occupation            Energy/Eh            Energy/eV
      -------------------------------------------------------------
         1        2.0000           -0.7542938             -20.5254
       ...           ...                  ...                  ...
        98        2.0000           -0.4221388             -11.4870
        99        2.0000           -0.4218000             -11.4778
       100        2.0000           -0.4204517             -11.4411
       101        2.0000           -0.4179304             -11.3725
       102        2.0000           -0.4102366             -11.1631
       103        2.0000           -0.4083691             -11.1123
       104        2.0000           -0.4077341             -11.0950
       105        2.0000           -0.3977041             -10.8221
       106        2.0000           -0.3894146             -10.5965
       107        2.0000           -0.3818653             -10.3911
       108        2.0000           -0.3811347             -10.3712
       109        2.0000           -0.3686700             -10.0320
       110        2.0000           -0.3659537              -9.9581 (HOMO)
       111                         -0.2924862              -7.9590 (LUMO)
       112                         -0.2619527              -7.1281
       113                         -0.2523532              -6.8669
       114                         -0.2491083              -6.7786
       115                         -0.2472635              -6.7284
       116                         -0.2428622              -6.6086
       117                         -0.2312712              -6.2932
       118                         -0.2251685              -6.1271
       119                         -0.2250771              -6.1247
       120                         -0.2243480              -6.1048
       121                         -0.1993158              -5.4237
       ...                                ...                  ...
       214                          0.7440276              20.2460
      -------------------------------------------------------------
                  HL-Gap            0.0734676 Eh            1.9992 eV

     #   Z          covCN         q      C6AA      α(0)
     1   8 O        0.857    -0.396    21.592     6.230
     2   6 C        2.830     0.224    23.290     7.908
     3   6 C        2.974    -0.040    28.993     8.832
     4   6 C        2.923    -0.019    28.484     8.752
     5   6 C        2.916    -0.034    28.859     8.809
     6   6 C        2.921    -0.022    28.552     8.763
     7   6 C        2.916    -0.051    29.269     8.872
     8   6 C        2.886     0.143    24.896     8.180
     9   8 O        1.711    -0.214    17.550     5.656
    10   6 C        2.884     0.142    24.898     8.180
    11   6 C        2.922    -0.057    29.422     8.895
    12   6 C        2.978     0.020    27.566     8.612
    13   6 C        2.976     0.014    27.701     8.633
    14   6 C        2.928    -0.054    29.339     8.883
    15   6 C        2.910     0.068    26.489     8.439
    16   7 N        2.803    -0.044    22.083     6.979
    17   6 C        3.074     0.047    26.878     8.500
    18   6 C        2.910    -0.050    29.233     8.866
    19   6 C        2.924    -0.033    28.812     8.803
    20   6 C        2.920    -0.040    28.995     8.830
    21   6 C        2.913    -0.032    28.803     8.800
    22   6 C        3.068    -0.016    28.345     8.730
    23   6 C        3.068    -0.016    28.338     8.729
    24   6 C        2.913    -0.032    28.804     8.801
    25   6 C        2.920    -0.040    29.000     8.831
    26   6 C        2.924    -0.033    28.825     8.804
    27   6 C        2.910    -0.051    29.260     8.870
    28   6 C        3.075     0.046    26.883     8.501
    29   6 C        2.925    -0.059    29.462     8.901
    30   6 C        2.910     0.068    26.487     8.439
    31   7 N        2.803    -0.044    22.089     6.980
    32   6 C        3.074     0.046    26.885     8.501
    33   6 C        2.910    -0.051    29.265     8.871
    34   6 C        2.924    -0.033    28.818     8.803
    35   6 C        2.920    -0.040    28.993     8.830
    36   6 C        2.913    -0.032    28.805     8.801
    37   6 C        3.068    -0.016    28.338     8.729
    38   6 C        3.068    -0.016    28.343     8.730
    39   6 C        2.913    -0.032    28.803     8.800
    40   6 C        2.920    -0.040    28.996     8.830
    41   6 C        2.924    -0.033    28.815     8.803
    42   6 C        2.910    -0.050    29.236     8.866
    43   6 C        3.073     0.047    26.881     8.501
    44   6 C        2.928    -0.054    29.330     8.881
    45   6 C        2.921    -0.040    29.000     8.831
    46   6 C        2.921    -0.020    28.506     8.755
    47   6 C        2.974    -0.042    29.038     8.839
    48   1 H        0.926     0.069     2.095     2.263
    49   1 H        0.926     0.047     2.362     2.404
    50   1 H        0.926     0.048     2.343     2.394
    51   1 H        0.926     0.055     2.254     2.348
    52   1 H        0.926     0.055     2.253     2.347
    53   1 H        0.926     0.048     2.339     2.392
    54   1 H        0.926     0.025     2.661     2.551
    55   1 H        0.926     0.031     2.578     2.511
    56   1 H        0.926     0.030     2.593     2.518
    57   1 H        0.926     0.032     2.556     2.500
    58   1 H        0.926     0.032     2.554     2.499
    59   1 H        0.926     0.029     2.596     2.520
    60   1 H        0.926     0.030     2.591     2.517
    61   1 H        0.926     0.025     2.658     2.550
    62   1 H        0.926     0.053     2.288     2.365
    63   1 H        0.926     0.026     2.638     2.540
    64   1 H        0.926     0.030     2.584     2.514
    65   1 H        0.926     0.030     2.591     2.517
    66   1 H        0.926     0.032     2.552     2.498
    67   1 H        0.926     0.032     2.554     2.499
    68   1 H        0.926     0.029     2.594     2.518
    69   1 H        0.926     0.030     2.580     2.512
    70   1 H        0.926     0.024     2.666     2.553
    71   1 H        0.926     0.049     2.327     2.386
    72   1 H        0.926     0.048     2.347     2.396
    73   1 H        0.926     0.070     2.084     2.258

molecular dipole:
                 x           y           z       tot (Debye)
 q only:       -0.050       0.727       0.641
   full:       -0.001       0.837       0.732       2.827

 projected vibrational frequencies (cm⁻¹)
eigval :       -0.00    -0.00    -0.00    -0.00     0.00     0.00
eigval :       13.19    17.61    18.75    22.19    23.73    28.88
eigval :       46.09    57.75    68.89    72.71    98.20   100.35
eigval :      114.70   124.65   135.28   139.98   145.73   151.23
eigval :      166.82   200.00   213.03   225.59   248.31   255.06
eigval :      261.92   268.50   272.00   272.29   281.30   304.35
eigval :      309.01   326.37   359.02   374.97   391.84   395.32
eigval :      396.56   404.56   421.65   423.10   427.25   435.94
eigval :      438.00   453.36   464.03   500.08   512.24   514.38
eigval :      519.20   520.32   526.41   540.28   540.88   541.96
eigval :      558.54   563.60   582.14   588.13   594.35   609.22
eigval :      620.61   622.98   641.08   648.17   651.74   667.03
eigval :      672.80   673.44   677.71   685.65   705.75   707.96
eigval :      709.27   742.29   749.96   755.64   766.04   769.55
eigval :      770.87   776.51   779.02   781.02   790.04   830.75
eigval :      838.99   849.53   861.34   867.94   869.15   874.78
eigval :      878.78   881.86   892.06   895.01   895.77   898.81
eigval :      899.83   900.55   904.91   907.90   909.96   920.18
eigval :      922.49   922.74   923.52   924.34   924.86   927.20
eigval :      929.39   983.30  1001.02  1012.04  1014.22  1034.01
eigval :     1067.18  1070.89  1073.33  1074.83  1076.94  1096.74
eigval :     1113.07  1119.74  1124.84  1133.63  1148.96  1153.30
eigval :     1165.91  1169.99  1172.16  1177.71  1180.43  1181.51
eigval :     1181.91  1192.49  1205.21  1216.02  1230.38  1232.11
eigval :     1233.57  1236.70  1237.29  1242.91  1247.27  1274.48
eigval :     1283.25  1296.35  1302.17  1302.64  1305.78  1318.62
eigval :     1333.58  1343.55  1350.78  1358.25  1358.69  1361.93
eigval :     1363.04  1389.77  1403.36  1419.40  1424.70  1427.22
eigval :     1429.89  1434.63  1449.25  1456.07  1463.25  1474.73
eigval :     1476.94  1482.50  1488.17  1488.43  1550.50  1568.09
eigval :     1571.25  1573.43  1575.77  1577.63  1589.62  1589.77
eigval :     1590.96  1598.16  1599.95  1600.64  1614.95  1616.13
eigval :     1685.77  3076.44  3077.46  3078.43  3078.98  3082.11
eigval :     3082.57  3084.37  3085.09  3087.60  3088.93  3089.62
eigval :     3092.43  3092.87  3093.74  3095.18  3096.72  3097.16
eigval :     3098.71  3099.42  3101.64  3102.70  3103.53  3104.10
eigval :     3104.72  3105.05  3107.91

   temp. (K)  partition function   enthalpy   heat capacity  entropy
                                   cal/mol     cal/K/mol   cal/K/mol   J/K/mol
 298.15  VIB  0.259E+16            20446.154    132.816    124.826
         ROT  0.908E+08              888.752      2.981     39.395
         INT  0.235E+24            21334.906    135.796    164.221
         TR   0.143E+29             1481.254      4.968     45.052
         TOT                       22816.1600   140.7646   209.2730   875.5984

       T/K    H(0)-H(T)+PV         H(T)/Eh          T*S/Eh         G(T)/Eh
   ------------------------------------------------------------------------
    298.15    0.363599E-01    0.586703E+00    0.994324E-01    0.487271E+00
   ------------------------------------------------------------------------

         :::::::::::::::::::::::::::::::::::::::::::::::::::::
         ::                  THERMODYNAMIC                  ::
         :::::::::::::::::::::::::::::::::::::::::::::::::::::
         :: total free energy        -118.922729113640 Eh   ::
         ::.................................................::
         :: total energy             -119.409999929547 Eh   ::
         :: zero point energy           0.550343319385 Eh   ::
         :: G(RRHO) w/o ZPVE           -0.063072503478 Eh   ::
         :: G(RRHO) contrib.            0.487270815907 Eh   ::
         :::::::::::::::::::::::::::::::::::::::::::::::::::::

           -------------------------------------------------
          | TOTAL ENERGY             -119.409999929547 Eh   |
          | TOTAL ENTHALPY           -118.823296744746 Eh   |
          | TOTAL FREE ENERGY        -118.922729113640 Eh   |
          | GRADIENT NORM               0.000036167630 Eh/α |
          | HOMO-LUMO GAP               1.999154351775 eV   |
           -------------------------------------------------

 * finished run on 2025/09/10 at 14:29:45.121
