   * xtb version 6.7.1 (edcfbbe) compiled by 'albert@albert-system' on 2024-07-22

   ID    Z sym.   atoms
    1    8 O      1, 9
    2    6 C      2-8, 10-15, 17-30, 32-47
    3    7 N      16, 31
    4    1 H      48-73

          program call               : xtb data2507/gas/Xp-mCP/Xp-mCP_gas_S0_finalOpt.xtbopt.xyz --gfn 2 --spinpol --tblite --uhf 2 --ohess vtight --parallel 40 --molden --ceasefiles --namespace data2507/gas/Xp-mCP/Xp-mCP_gas_T1_preOpt
 * total energy  :  -119.3197841 Eh     change       -0.3175707E-07 Eh
 * total energy  :  -119.3227735 Eh     change       -0.2989375E-02 Eh
 * total energy  :  -119.3236318 Eh     change       -0.8582960E-03 Eh
 * total energy  :  -119.3237172 Eh     change       -0.8547483E-04 Eh
 * total energy  :  -119.3237887 Eh     change       -0.7149668E-04 Eh
 * total energy  :  -119.3238375 Eh     change       -0.4874625E-04 Eh
 * total energy  :  -119.3238814 Eh     change       -0.4393734E-04 Eh
 * total energy  :  -119.3239164 Eh     change       -0.3498981E-04 Eh
 * total energy  :  -119.3239366 Eh     change       -0.2022606E-04 Eh
 * total energy  :  -119.3239555 Eh     change       -0.1886673E-04 Eh
 * total energy  :  -119.3242792 Eh     change       -0.8046337E-06 Eh
 * total energy  :  -119.3242798 Eh     change       -0.6378157E-06 Eh
 * total energy  :  -119.3242803 Eh     change       -0.4112120E-06 Eh
 * total energy  :  -119.3242804 Eh     change       -0.1191698E-06 Eh
 * total energy  :  -119.3242805 Eh     change       -0.1090494E-06 Eh
 * total energy  :  -119.3242806 Eh     change       -0.1043638E-06 Eh
 * total energy  :  -119.3242807 Eh     change       -0.1487896E-06 Eh
 * total energy  :  -119.3242807 Eh     change        0.9138660E-08 Eh
 * total energy  :  -119.3242808 Eh     change       -0.2854537E-07 Eh
   *** GEOMETRY OPTIMIZATION CONVERGED AFTER 45 ITERATIONS ***

 final structure:
================
73
 xtb: 6.7.1 (edcfbbe)
O            6.31912031610480        3.09168050520332       -0.84677265262609
C            5.92987232937721        1.96368996739598       -0.45212186080878
C            6.86737597739517        0.93322800536719       -0.02376565495361
C            8.24687724689863        1.17298400145498       -0.04318187409274
C            9.13077997834650        0.19598468906747        0.36653030582375
C            8.66130360376048       -1.03467456254890        0.79884063586493
C            7.29885699160604       -1.29003216638355        0.82287725755800
C            6.39953039596414       -0.31522623611427        0.41378368114068
O            5.07894552898715       -0.63489740779187        0.45949874999300
C            4.16668630441027        0.30388955570372        0.06691443726552
C            2.83955719588806       -0.05180430456067        0.13185677571101
C            1.82156461955470        0.85258122901660       -0.22799744324242
C            0.42620082498638        0.47371541933679       -0.15195999119708
C           -0.57833252130499        1.43328294487086        0.04291911549495
C           -1.91372479943126        1.06996983051692        0.10883061254722
N           -2.89008596759782        2.05888975321131        0.30088483525368
C           -3.88725540159522        2.04196294372800        1.25270815081504
C           -4.14739775810241        1.10591241360294        2.24478300168029
C           -5.21052898602841        1.34650344645519        3.09485380463289
C           -5.99338453398205        2.49166697201545        2.97347459556382
C           -5.72355209789925        3.43999864573439        2.00328139911844
C           -4.66264552967532        3.22028649123175        1.13817936064646
C           -4.09462812698112        3.97788970570531        0.05517279309094
C           -4.41746460645816        5.19007160004651       -0.53563119002530
C           -3.65398576040285        5.63034605018897       -1.60180343500862
C           -2.59328982188814        4.87000424158716       -2.08789921576753
C           -2.25369908084673        3.65801917286138       -1.51668546529280
C           -2.99995475659646        3.22381349067091       -0.42902306882484
C           -2.29513038389743       -0.26613074347398        0.00395945415506
C           -1.30559431375470       -1.22934665050945       -0.18167524419541
N           -1.66371713984126       -2.58071209440126       -0.29768441967447
C           -1.08748234691590       -3.62179454957234        0.39973998501907
C           -0.10572608693907       -3.59113887921476        1.38142190534045
C            0.27975007945121       -4.79319736232799        1.94443350733824
C           -0.30058404209933       -5.99752827827909        1.55424818636489
C           -1.29815259737004       -6.03108081218038        0.59661540362300
C           -1.70003226048164       -4.83782800780404        0.01578946449961
C           -2.69189669341198       -4.49994432522544       -0.96978628172846
C           -3.58866527544724       -5.24843949605822       -1.71664884036696
C           -4.40852761402841       -4.59283645281795       -2.61736581318171
C           -4.32857973196401       -3.21310214809553       -2.78747930065087
C           -3.44213963284640       -2.44595262215236       -2.05505633628418
C           -2.63465010540686       -3.09508499480199       -1.13053308581303
C            0.02886416201200       -0.86673912971276       -0.26853743509419
C            2.21348534805420        2.13027515342595       -0.66599177903398
C            3.53017401916865        2.48924087133302       -0.74701252938657
C            4.55333498389259        1.58624115820405       -0.37946837287363
H            8.59129054027832        2.13721170645084       -0.38225586159430
H           10.19153059173448        0.39642856073171        0.35049929210019
H            9.35156266270478       -1.80005635400567        1.11878000637763
H            6.91050011213873       -2.24100062485247        1.15224292896973
H            2.60444594712632       -1.03519403017201        0.50665732254415
H           -0.31357472844896        2.46780314515098        0.19340857525620
H           -3.53317800646707        0.22604574374229        2.35994882396071
H           -5.43560097003889        0.63254667267703        3.87290522716229
H           -6.81638669213786        2.64305934450865        3.65552402148130
H           -6.32085522865688        4.33523094105710        1.92170498185005
H           -5.24947035874987        5.77308447431222       -0.17127703750721
H           -3.88680857588488        6.57315154274160       -2.07326675353609
H           -2.02600545940437        5.23296701914507       -2.93170380465304
H           -1.44298839692953        3.06489981399176       -1.91154407628262
H           -3.33380552836083       -0.54833654902103        0.06540494657850
H            0.33442888991900       -2.65993992192043        1.70386128118916
H            1.04488049955757       -4.79759826229290        2.70610664173106
H            0.02914891016928       -6.91610383587179        2.01569094975329
H           -1.75859236438870       -6.96357868713657        0.30790401440354
H           -3.63979654146368       -6.32004556700335       -1.59859443045082
H           -5.11522737982192       -5.15723191168244       -3.20683459111240
H           -4.96981896700525       -2.73179048633359       -3.51059795061998
H           -3.37249185139097       -1.38012031846862       -2.20942156284453
H            0.76251331042641       -1.62883496393710       -0.47716017876575
H            1.46391607948317        2.83931689752859       -0.98417483440619
H            3.82606292994936        3.46504799497611       -1.09878967011726

 projected vibrational frequencies (cm⁻¹)
eigval :       -0.00    -0.00     0.00     0.00     0.00     0.00
eigval :       14.11    18.42    20.44    22.49    23.16    24.62
eigval :       45.32    66.76    70.69    77.65    97.49   103.11
eigval :      113.37   131.20   134.39   140.43   143.43   149.95
eigval :      154.95   208.48   211.68   234.62   237.50   250.08
eigval :      257.88   260.90   269.80   270.15   275.78   303.15
eigval :      311.46   321.94   360.03   365.02   382.06   393.11
eigval :      394.20   395.28   402.85   420.96   421.59   435.15
eigval :      435.57   444.10   472.88   492.35   505.09   506.25
eigval :      513.65   516.54   516.92   533.35   537.58   537.65
eigval :      541.85   544.70   548.28   583.68   584.47   586.93
eigval :      596.02   619.51   623.83   630.44   634.89   642.10
eigval :      661.38   662.35   674.29   674.80   682.02   700.59
eigval :      709.46   709.79   748.61   752.57   759.49   766.57
eigval :      768.21   769.39   769.80   778.41   779.15   794.68
eigval :      821.23   827.14   829.64   848.93   854.18   866.49
eigval :      871.06   874.82   878.66   883.38   886.49   887.97
eigval :      896.16   896.91   898.86   902.34   903.94   905.00
eigval :      905.76   906.81   907.25   921.53   922.31   923.00
eigval :      923.30   969.21   996.96  1011.27  1012.25  1032.17
eigval :     1067.90  1068.59  1071.12  1071.82  1075.28  1080.78
eigval :     1097.24  1116.52  1120.49  1125.16  1144.79  1145.06
eigval :     1161.86  1164.89  1170.89  1174.89  1177.29  1179.08
eigval :     1179.18  1179.54  1196.12  1212.87  1217.37  1229.17
eigval :     1231.69  1232.05  1234.30  1235.49  1246.84  1248.98
eigval :     1274.30  1289.59  1290.67  1292.12  1295.36  1317.76
eigval :     1331.54  1334.53  1339.57  1345.03  1346.45  1359.74
eigval :     1360.19  1372.13  1398.11  1403.93  1410.41  1414.69
eigval :     1416.12  1426.24  1435.99  1437.07  1441.54  1456.90
eigval :     1461.32  1465.24  1467.30  1476.17  1483.16  1483.21
eigval :     1510.33  1512.71  1544.37  1550.62  1566.73  1566.98
eigval :     1574.19  1581.73  1582.49  1582.68  1583.98  1602.14
eigval :     1606.90  3080.80  3082.21  3082.22  3082.72  3082.91
eigval :     3083.08  3086.73  3086.80  3087.85  3087.92  3092.65
eigval :     3093.43  3093.50  3094.82  3094.92  3100.14  3100.20
eigval :     3100.59  3101.20  3102.63  3104.79  3105.51  3106.83
eigval :     3108.56  3109.27  3110.31

   temp. (K)  partition function   enthalpy   heat capacity  entropy
                                   cal/mol     cal/K/mol   cal/K/mol   J/K/mol
 298.15  VIB  0.267E+16            20694.290    134.808    125.903
         ROT  0.914E+08              888.752      2.981     39.410
         INT  0.244E+24            21583.043    137.789    165.313
         TR   0.143E+29             1481.254      4.968     45.052
         TOT                       23064.2967   142.7568   210.3646   880.1656

       T/K    H(0)-H(T)+PV         H(T)/Eh          T*S/Eh         G(T)/Eh
   ------------------------------------------------------------------------
    298.15    0.367553E-01    0.582884E+00    0.999510E-01    0.482933E+00
   ------------------------------------------------------------------------

         :::::::::::::::::::::::::::::::::::::::::::::::::::::
         ::                  THERMODYNAMIC                  ::
         :::::::::::::::::::::::::::::::::::::::::::::::::::::
         :: total free energy        -118.841347590961 Eh   ::
         ::.................................................::
         :: total energy             -119.324280788954 Eh   ::
         :: zero point energy           0.546128923121 Eh   ::
         :: G(RRHO) w/o ZPVE           -0.063195725128 Eh   ::
         :: G(RRHO) contrib.            0.482933197993 Eh   ::
         :::::::::::::::::::::::::::::::::::::::::::::::::::::

           -------------------------------------------------
          | TOTAL ENERGY             -119.324280788954 Eh   |
          | TOTAL ENTHALPY           -118.741396569441 Eh   |
          | TOTAL FREE ENERGY        -118.841347590961 Eh   |
          | GRADIENT NORM               0.000072064441 Eh/α |
           -------------------------------------------------

 * finished run on 2025/09/10 at 14:36:50.770
