   * xtb version 6.7.1 (edcfbbe) compiled by 'albert@albert-system' on 2024-07-22

   ID    Z sym.   atoms
    1    6 C      1-9, 11-16, 18, 20-22, 24
    2    7 N      10, 17, 19, 23
    3    1 H      25-38

          program call               : xtb data2507/gas/czpzpy/czpzpy_gas_S0_crest.xyz --gfn 2 --ohess vtight --parallel 40 --molden --ceasefiles --namespace data2507/gas/czpzpy/czpzpy_gas_S0_finalOpt
          :  Hamiltonian                  GFN2-xTB          :
 * total energy  :   -61.6869100 Eh     change       -0.3204697E-08 Eh
 * total energy  :   -61.6869125 Eh     change       -0.2470400E-05 Eh
 * total energy  :   -61.6869148 Eh     change       -0.2362887E-05 Eh
 * total energy  :   -61.6869172 Eh     change       -0.2341858E-05 Eh
 * total energy  :   -61.6869195 Eh     change       -0.2322417E-05 Eh
 * total energy  :   -61.6869218 Eh     change       -0.2280732E-05 Eh
 * total energy  :   -61.6869240 Eh     change       -0.2234722E-05 Eh
 * total energy  :   -61.6869262 Eh     change       -0.2172799E-05 Eh
 * total energy  :   -61.6869283 Eh     change       -0.2092063E-05 Eh
 * total energy  :   -61.6869303 Eh     change       -0.2001272E-05 Eh
 * total energy  :   -61.6869611 Eh     change       -0.7063247E-06 Eh
 * total energy  :   -61.6869618 Eh     change       -0.6876263E-06 Eh
 * total energy  :   -61.6869625 Eh     change       -0.6700807E-06 Eh
 * total energy  :   -61.6869631 Eh     change       -0.6515269E-06 Eh
 * total energy  :   -61.6869638 Eh     change       -0.6323981E-06 Eh
 * total energy  :   -61.6869644 Eh     change       -0.6121815E-06 Eh
 * total energy  :   -61.6869650 Eh     change       -0.5908717E-06 Eh
 * total energy  :   -61.6869656 Eh     change       -0.5683078E-06 Eh
 * total energy  :   -61.6869656 Eh     change       -0.5062617E-08 Eh
   *** GEOMETRY OPTIMIZATION CONVERGED AFTER 44 ITERATIONS ***

 final structure:
================
38
 xtb: 6.7.1 (edcfbbe)
C            3.13373371270071        2.66237691478076       -0.53487905825355
C            1.77209939692948        2.86309288244526       -0.38884241168699
C            0.94981901381157        1.77736729173889       -0.07333177646291
C           -0.49868141119211        1.90563080640948        0.08782750752136
C           -1.12841830408272        3.12567245461586        0.33122896065786
C           -2.50595635268705        3.23038235201148        0.47293132998567
C           -3.32792820755690        2.12198416248180        0.37609611261767
C           -2.74209312346676        0.88690911771459        0.14283724684192
C           -1.33511508345337        0.78457281886337        0.00891842470870
N           -1.00353977763411       -0.51797138181607       -0.21365052801758
C           -2.13870277770106       -1.28439117325350       -0.22574893467306
C           -2.28402479073664       -2.65160181958155       -0.40653367783215
C           -3.56337589579006       -3.17184740164183       -0.36724952520550
C           -4.67293468996682       -2.35574392796942       -0.15382548458397
C           -4.53410849641536       -0.99395998671046        0.02769441457349
C           -3.25825359011002       -0.44614555690477       -0.00619517882824
N            1.46193905941172        0.55106424169470        0.07530811323343
C            2.76628877542513        0.37359964983723       -0.05516006227134
N            3.22906896407174       -0.92651039740197        0.12806142611967
C            2.53159887425557       -1.98977269276533        0.60614969695251
C            3.38965946345556       -3.05682208276474        0.60953590270609
C            4.59971610396037       -2.53985329961190        0.10940714552820
N            4.48801086179237       -1.26220012231097       -0.17055671784660
C            3.66111119989685        1.39548125712484       -0.36170423335645
H            3.78146193502338        3.49013021487246       -0.78398832163405
H            1.35106725887113        3.84315582328611       -0.53937561648928
H           -0.53364151753309        4.01994395352411        0.43618257652498
H           -2.93880274886442        4.20098916797738        0.66481671649728
H           -4.39790199961009        2.21372263228639        0.48443301991043
H           -0.04589627966918       -0.81348559157728       -0.32589093558560
H           -1.42570410086635       -3.28577643910211       -0.57281177044225
H           -3.70852687988418       -4.23332791508296       -0.50448517935457
H           -5.65632209002834       -2.80145243417354       -0.13018320116079
H           -5.39667013245779       -0.36613653094623        0.19366764142653
H            1.51415752000412       -1.89243355922651        0.92367291433215
H            3.18883325127214       -4.06029953528088        0.92318421554168
H            5.52881066003583       -3.04982125312931       -0.05041025094542
H            4.71022793208874        1.17593486328677       -0.46035235724955

          :  Hamiltonian                  GFN2-xTB          :
         :: gradient norm              0.000058662402 Eh/a0 ::
         :: HOMO-LUMO gap              2.588598050058 eV    ::
         :: SCC energy               -62.772474146366 Eh    ::
         :: -> dispersion             -0.046829651174 Eh    ::
         :: repulsion energy           1.085508588148 Eh    ::

    * Orbital Energies and Occupations

         #    Occupation            Energy/Eh            Energy/eV
      -------------------------------------------------------------
         1        2.0000           -0.6974807             -18.9794
       ...           ...                  ...                  ...
        45        2.0000           -0.4444985             -12.0954
        46        2.0000           -0.4386857             -11.9372
        47        2.0000           -0.4349559             -11.8358
        48        2.0000           -0.4233534             -11.5200
        49        2.0000           -0.4194859             -11.4148
        50        2.0000           -0.4176154             -11.3639
        51        2.0000           -0.4098892             -11.1537
        52        2.0000           -0.4060412             -11.0489
        53        2.0000           -0.3983754             -10.8403
        54        2.0000           -0.3942654             -10.7285
        55        2.0000           -0.3847263             -10.4689
        56        2.0000           -0.3784854             -10.2991
        57        2.0000           -0.3647656              -9.9258 (HOMO)
        58                         -0.2696363              -7.3372 (LUMO)
        59                         -0.2633547              -7.1662
        60                         -0.2368874              -6.4460
        61                         -0.2163219              -5.8864
        62                         -0.1988996              -5.4123
        63                         -0.1914780              -5.2104
        64                         -0.1764643              -4.8018
        65                         -0.1644163              -4.4740
        66                         -0.1120396              -3.0488
        67                         -0.0793239              -2.1585
        68                         -0.0557191              -1.5162
       ...                                ...                  ...
       110                          0.7467835              20.3210
      -------------------------------------------------------------
                  HL-Gap            0.0951292 Eh            2.5886 eV

     #   Z          covCN         q      C6AA      α(0)
     1   6 C        2.928    -0.011    28.301     8.724
     2   6 C        2.917    -0.050    29.250     8.869
     3   6 C        2.950     0.097    25.837     8.337
     4   6 C        2.969    -0.021    28.519     8.760
     5   6 C        2.926    -0.037    28.928     8.820
     6   6 C        2.918    -0.043    29.056     8.839
     7   6 C        2.912    -0.030    28.756     8.793
     8   6 C        3.073    -0.016    28.330     8.727
     9   6 C        3.082     0.058    26.618     8.458
    10   7 N        2.758    -0.115    23.505     7.201
    11   6 C        3.079     0.055    26.674     8.467
    12   6 C        2.909    -0.054    29.332     8.881
    13   6 C        2.924    -0.032    28.809     8.802
    14   6 C        2.920    -0.042    29.032     8.836
    15   6 C        2.912    -0.032    28.803     8.800
    16   6 C        3.074    -0.017    28.346     8.729
    17   7 N        1.854    -0.271    27.887     7.827
    18   6 C        2.898     0.139    24.960     8.191
    19   7 N        3.060     0.089    19.695     6.591
    20   6 C        3.026    -0.011    28.264     8.720
    21   6 C        3.019    -0.067    29.637     8.930
    22   6 C        3.123     0.034    27.050     8.517
    23   7 N        2.004    -0.229    26.807     7.679
    24   6 C        2.917    -0.055    29.363     8.886
    25   1 H        0.926     0.041     2.436     2.441
    26   1 H        0.926     0.041     2.433     2.439
    27   1 H        0.926     0.032     2.554     2.499
    28   1 H        0.926     0.031     2.574     2.509
    29   1 H        0.926     0.035     2.516     2.481
    30   1 H        0.860     0.184     1.192     1.710
    31   1 H        0.926     0.026     2.642     2.542
    32   1 H        0.926     0.030     2.588     2.516
    33   1 H        0.926     0.028     2.612     2.527
    34   1 H        0.926     0.031     2.574     2.509
    35   1 H        0.927     0.049     2.336     2.390
    36   1 H        0.926     0.032     2.560     2.502
    37   1 H        0.926     0.036     2.506     2.475
    38   1 H        0.926     0.064     2.154     2.295

molecular dipole:
                 x           y           z       tot (Debye)
 q only:       -0.162       0.274      -0.049
   full:        0.072       0.274      -0.006       0.720

 projected vibrational frequencies (cm⁻¹)
eigval :       -0.00    -0.00    -0.00    -0.00     0.00     0.00
eigval :       24.63    44.96    47.73    74.51    99.81   104.84
eigval :      120.16   141.58   201.53   220.52   254.44   276.07
eigval :      287.48   292.13   309.96   373.40   399.00   412.87
eigval :      446.40   477.09   491.37   513.51   535.70   538.41
eigval :      556.54   580.68   587.90   597.01   621.59   623.61
eigval :      650.06   667.20   690.72   703.50   713.38   735.77
eigval :      772.64   787.67   796.81   798.10   822.64   847.98
eigval :      854.69   857.15   866.28   867.04   877.29   883.23
eigval :      885.77   901.25   912.36   921.22   930.83   944.82
eigval :      999.42  1026.32  1051.03  1066.93  1069.30  1099.53
eigval :     1108.86  1114.75  1132.60  1135.44  1161.93  1165.02
eigval :     1173.70  1187.25  1205.59  1228.01  1274.66  1281.68
eigval :     1298.90  1310.10  1313.12  1322.32  1347.23  1356.98
eigval :     1371.94  1396.29  1401.60  1404.27  1424.65  1435.97
eigval :     1449.23  1489.28  1494.17  1538.52  1549.33  1571.00
eigval :     1579.26  1583.81  1598.19  1617.16  3074.19  3078.79
eigval :     3079.61  3080.38  3086.11  3091.06  3094.88  3098.39
eigval :     3114.28  3130.07  3172.08  3181.21  3193.38  3429.81

   temp. (K)  partition function   enthalpy   heat capacity  entropy
                                   cal/mol     cal/K/mol   cal/K/mol   J/K/mol
 298.15  VIB  0.180E+07             9489.700     65.380     56.805
         ROT  0.960E+07              888.752      2.981     34.930
         INT  0.173E+14            10378.452     68.361     91.735
         TR   0.529E+28             1481.254      4.968     43.074
         TOT                       11859.7059    73.3295   134.8094   564.0425

       T/K    H(0)-H(T)+PV         H(T)/Eh          T*S/Eh         G(T)/Eh
   ------------------------------------------------------------------------
    298.15    0.188996E-01    0.306367E+00    0.640523E-01    0.242314E+00
   ------------------------------------------------------------------------

         :::::::::::::::::::::::::::::::::::::::::::::::::::::
         ::                  THERMODYNAMIC                  ::
         :::::::::::::::::::::::::::::::::::::::::::::::::::::
         :: total free energy         -61.444651274193 Eh   ::
         ::.................................................::
         :: total energy              -61.686965558218 Eh   ::
         :: zero point energy           0.287466929431 Eh   ::
         :: G(RRHO) w/o ZPVE           -0.045152645406 Eh   ::
         :: G(RRHO) contrib.            0.242314284025 Eh   ::
         :::::::::::::::::::::::::::::::::::::::::::::::::::::

           -------------------------------------------------
          | TOTAL ENERGY              -61.686965558218 Eh   |
          | TOTAL ENTHALPY            -61.380598984478 Eh   |
          | TOTAL FREE ENERGY         -61.444651274193 Eh   |
          | GRADIENT NORM               0.000058661994 Eh/α |
          | HOMO-LUMO GAP               2.588597901082 eV   |
           -------------------------------------------------

 * finished run on 2025/09/12 at 08:45:44.752
