   * xtb version 6.7.1 (edcfbbe) compiled by 'albert@albert-system' on 2024-07-22

   ID    Z sym.   atoms
    1    6 C      1-9, 11-16, 18, 20-22, 24
    2    7 N      10, 17, 19, 23
    3    1 H      25-38

          program call               : xtb data2507/gas/czpzpy/czpzpy_gas_T1_crest.xyz --gfn 2 --spinpol --tblite --uhf 2 --ohess vtight --parallel 40 --molden --ceasefiles --namespace data2507/gas/czpzpy/czpzpy_gas_T1_finalOpt
 * total energy  :   -61.5960304 Eh     change       -0.1493063E-09 Eh
 * total energy  :   -61.5960562 Eh     change       -0.2586460E-04 Eh
 * total energy  :   -61.5960643 Eh     change       -0.8021145E-05 Eh
 * total energy  :   -61.5960657 Eh     change       -0.1388139E-05 Eh
 * total energy  :   -61.5960665 Eh     change       -0.8032000E-06 Eh
 * total energy  :   -61.5960671 Eh     change       -0.6030580E-06 Eh
 * total energy  :   -61.5960678 Eh     change       -0.7294615E-06 Eh
 * total energy  :   -61.5960686 Eh     change       -0.7774815E-06 Eh
 * total energy  :   -61.5960692 Eh     change       -0.6012309E-06 Eh
 * total energy  :   -61.5960696 Eh     change       -0.4306933E-06 Eh
 * total energy  :   -61.5960699 Eh     change       -0.3460357E-06 Eh
 * total energy  :   -61.5960702 Eh     change       -0.2227324E-06 Eh
 * total energy  :   -61.5960703 Eh     change       -0.1224576E-06 Eh
 * total energy  :   -61.5960704 Eh     change       -0.1089707E-06 Eh
 * total energy  :   -61.5960705 Eh     change       -0.9744681E-07 Eh
   *** GEOMETRY OPTIMIZATION CONVERGED AFTER 15 ITERATIONS ***

 final structure:
================
38
 xtb: 6.7.1 (edcfbbe)
C            3.30231157780867        2.66682914158189        0.00284228799358
C            1.96374992924933        2.94575320300588        0.00161171707990
C            1.01800347070268        1.86737734021596       -0.00099560237514
C           -0.37824888469201        2.00730200099562       -0.00185173757518
C           -1.07691671466079        3.27265586988157       -0.00190587843008
C           -2.43858611250343        3.34909304081025       -0.00098772920859
C           -3.26871795104813        2.20568262947000        0.00011946770361
C           -2.64173047092316        0.95492405462397       -0.00031177422129
C           -1.23967782461969        0.86105940894440       -0.00189800300864
N           -0.87238039729922       -0.44972262971897       -0.00240171590265
C           -1.97673391620193       -1.23481430133562       -0.00076982521992
C           -2.08389569240643       -2.62240669146001       -0.00014739268997
C           -3.35064387591568       -3.16631265930942        0.00211749330507
C           -4.48943882224757       -2.35031742081045        0.00366686556027
C           -4.39474987145705       -0.97147399423314        0.00290849917250
C           -3.13228362265313       -0.39266618120798        0.00062363909814
N            1.48968137535408        0.58477100294974       -0.00265883937434
C            2.76707484127632        0.33907595262193       -0.00198907998172
N            3.07330109959659       -1.02568604202082       -0.00460917463014
C            4.28398317215302       -1.63637984774744       -0.00677753180993
C            4.05157415606337       -2.98751163150525       -0.01001533376162
C            2.65053673918339       -3.10365152206266       -0.00957500451708
N            2.07843752083772       -1.92147275119485       -0.00632501600076
C            3.75856497904904        1.33739493817324        0.00108623328276
H            4.02685329869673        3.46855397678843        0.00521159941979
H            1.61885208499748        3.96610114033332        0.00285941934444
H           -0.49710349255619        4.18096632191770       -0.00286053524611
H           -2.90926972530412        4.32223852512407       -0.00111367035196
H           -4.34164900137637        2.29925998683569        0.00102158830329
H            0.11648677730271       -0.71907007793228       -0.00340487895321
H           -1.19792378432649       -3.23825327260733       -0.00125962573213
H           -3.47446798852557       -4.23874694392107        0.00279767487053
H           -5.46380414768570       -2.81663336120976        0.00552661011687
H           -5.28232223420399       -0.35691767237778        0.00413944739342
H            5.20433015479808       -1.09038258806794       -0.00599085253772
H            4.77445009564133       -3.77698139521805       -0.01241061754568
H            2.05580866946160       -3.99568783442614       -0.01152513467928
H            4.80990742193459        1.11120217899331        0.00238150970897

 projected vibrational frequencies (cm⁻¹)
eigval :       -0.00    -0.00     0.00     0.00     0.00     0.00
eigval :       32.75    41.38    52.28    60.15    92.74    97.32
eigval :      109.65   131.36   165.08   223.17   223.34   253.54
eigval :      286.96   291.30   298.01   368.54   372.49   396.45
eigval :      434.15   439.56   477.41   486.69   515.55   526.27
eigval :      547.28   556.72   576.86   588.50   611.94   620.41
eigval :      638.03   655.73   669.54   680.89   697.15   712.02
eigval :      720.38   758.85   765.27   774.63   776.49   807.58
eigval :      819.29   834.66   842.60   852.19   858.95   861.56
eigval :      883.40   892.00   896.54   900.18   910.90   933.36
eigval :      966.48   989.52  1036.90  1052.93  1056.06  1067.64
eigval :     1068.68  1097.93  1108.65  1129.85  1142.91  1157.38
eigval :     1161.70  1174.26  1189.48  1204.92  1226.90  1241.07
eigval :     1272.82  1287.35  1303.36  1322.81  1328.55  1346.90
eigval :     1356.12  1367.06  1374.55  1391.31  1401.76  1416.63
eigval :     1424.90  1442.42  1462.72  1476.14  1486.41  1522.65
eigval :     1535.59  1554.74  1558.29  1578.17  3071.06  3072.04
eigval :     3077.80  3086.34  3092.48  3099.84  3103.99  3111.10
eigval :     3114.73  3122.50  3138.33  3167.86  3179.70  3192.21

   temp. (K)  partition function   enthalpy   heat capacity  entropy
                                   cal/mol     cal/K/mol   cal/K/mol   J/K/mol
 298.15  VIB  0.325E+07             9877.226     67.411     59.471
         ROT  0.907E+07              888.752      2.981     34.818
         INT  0.295E+14            10765.978     70.391     94.289
         TR   0.529E+28             1481.254      4.968     43.074
         TOT                       12247.2321    75.3595   137.3630   574.7269

       T/K    H(0)-H(T)+PV         H(T)/Eh          T*S/Eh         G(T)/Eh
   ------------------------------------------------------------------------
    298.15    0.195172E-01    0.301861E+00    0.652656E-01    0.236595E+00
   ------------------------------------------------------------------------

         :::::::::::::::::::::::::::::::::::::::::::::::::::::
         ::                  THERMODYNAMIC                  ::
         :::::::::::::::::::::::::::::::::::::::::::::::::::::
         :: total free energy         -61.359475114888 Eh   ::
         ::.................................................::
         :: total energy              -61.596070475811 Eh   ::
         :: zero point energy           0.282343759903 Eh   ::
         :: G(RRHO) w/o ZPVE           -0.045748398980 Eh   ::
         :: G(RRHO) contrib.            0.236595360923 Eh   ::
         :::::::::::::::::::::::::::::::::::::::::::::::::::::

           -------------------------------------------------
          | TOTAL ENERGY              -61.596070475811 Eh   |
          | TOTAL ENTHALPY            -61.294209509282 Eh   |
          | TOTAL FREE ENERGY         -61.359475114888 Eh   |
          | GRADIENT NORM               0.000135162164 Eh/α |
           -------------------------------------------------

 * finished run on 2025/09/12 at 08:47:03.982
