   * xtb version 6.7.1 (edcfbbe) compiled by 'albert@albert-system' on 2024-07-22

   ID    Z sym.   atoms
    1    6 C      1-9, 11-16, 18, 20-22, 24
    2    7 N      10, 17, 19, 23
    3    1 H      25-38

          program call               : xtb data2507/gas/czpzpy/czpzpy.xyz --gfn 2 --ohess vtight --parallel 40 --molden --ceasefiles --namespace data2507/gas/czpzpy/czpzpy_gas_S0_preOpt
          :  Hamiltonian                  GFN2-xTB          :
 * total energy  :   -61.6606598 Eh     change       -0.4824017E-09 Eh
 * total energy  :   -61.6698097 Eh     change       -0.9149904E-02 Eh
 * total energy  :   -61.6719115 Eh     change       -0.2101850E-02 Eh
 * total energy  :   -61.6722371 Eh     change       -0.3256060E-03 Eh
 * total energy  :   -61.6724953 Eh     change       -0.2581411E-03 Eh
 * total energy  :   -61.6725839 Eh     change       -0.8862843E-04 Eh
 * total energy  :   -61.6726636 Eh     change       -0.7968409E-04 Eh
 * total energy  :   -61.6727143 Eh     change       -0.5072493E-04 Eh
 * total energy  :   -61.6727767 Eh     change       -0.6237853E-04 Eh
 * total energy  :   -61.6728166 Eh     change       -0.3992288E-04 Eh
 * total energy  :   -61.6735134 Eh     change       -0.3171294E-06 Eh
 * total energy  :   -61.6735136 Eh     change       -0.2725964E-06 Eh
 * total energy  :   -61.6735139 Eh     change       -0.2821599E-06 Eh
 * total energy  :   -61.6735142 Eh     change       -0.3065238E-06 Eh
 * total energy  :   -61.6735145 Eh     change       -0.3022967E-06 Eh
 * total energy  :   -61.6735148 Eh     change       -0.2482299E-06 Eh
 * total energy  :   -61.6735150 Eh     change       -0.1723259E-06 Eh
 * total energy  :   -61.6735151 Eh     change       -0.1071090E-06 Eh
 * total energy  :   -61.6735151 Eh     change       -0.5716542E-07 Eh
   *** GEOMETRY OPTIMIZATION CONVERGED AFTER 55 ITERATIONS ***

 final structure:
================
38
 xtb: 6.7.1 (edcfbbe)
C            2.00796584533529        2.23511867484392        1.31633272488280
C            0.87222196219518        1.45327679128817        1.19583474291524
C            0.97717012198581        0.21188198885329        0.56051829894887
C           -0.16392629419676       -0.69349684581732        0.40100660608216
C            0.04345189751676       -2.06913916440053        0.47335715237931
C           -1.00351077706218       -2.97582567674901        0.38181566685671
C           -2.30446308467264       -2.54619897457212        0.19632487065177
C           -2.54255795796496       -1.18366157226856        0.08092569532895
C           -1.47337296998174       -0.26019264350495        0.17958399766776
N           -1.96846052673945        1.00629854492624       -0.00726335192984
C           -3.32097282171175        0.93896719994762       -0.23508654293806
C           -4.22670533968419        1.95855551535379       -0.48217393931193
C           -5.55174703815822        1.60966498463848       -0.66249521118634
C           -5.96677049089347        0.28112559888680       -0.59861245895097
C           -5.06693352323428       -0.73766427896231       -0.35480061429508
C           -3.72941833626526       -0.41255727039228       -0.17015830131022
N            2.14148625533448       -0.23372756983876        0.10219657410890
C            3.22314040391619        0.51150708050043        0.22351578652889
N            4.39797345994685       -0.05208296431408       -0.27325021877446
C            5.57242694531632        0.57293926008526       -0.56020227684978
C            6.43056471161248       -0.38556341732172       -1.02715871847370
C            5.68188304775452       -1.57813454898932       -0.98410346102796
N            4.47047489630384       -1.35983174382180       -0.53564725706421
C            3.21382784118835        1.77584338781433        0.81656694852747
H            1.95924314297282        3.19537949621084        1.80985004194508
H           -0.06127117454993        1.77467573587597        1.63043568399675
H            1.05541980673128       -2.41562374672242        0.61198564988770
H           -0.79348978330258       -4.03204698938096        0.45801711816787
H           -3.11962409243123       -3.25064746017024        0.12923887224005
H           -1.41196583567712        1.83873380433409       -0.09706851982534
H           -3.90742621240094        2.98928670842830       -0.53318508560413
H           -6.28120636924415        2.38199003738033       -0.85720558757770
H           -7.01145773930201        0.04944350974846       -0.74392576181723
H           -5.39286904904633       -1.76570245445621       -0.30763043780554
H            5.70946948344303        1.62760489208919       -0.43863682776596
H            7.44250732774698       -0.25775382074887       -1.35226551406037
H            5.98835782518474       -2.56736520019990       -1.26021828166673
H            4.11056644203430        2.36492413142083        0.91358293711952

          :  Hamiltonian                  GFN2-xTB          :
         :: gradient norm              0.000023737065 Eh/a0 ::
         :: HOMO-LUMO gap              2.779491664904 eV    ::
         :: SCC energy               -62.760069224072 Eh    ::
         :: -> dispersion             -0.045815098537 Eh    ::
         :: repulsion energy           1.086554106518 Eh    ::

    * Orbital Energies and Occupations

         #    Occupation            Energy/Eh            Energy/eV
      -------------------------------------------------------------
         1        2.0000           -0.6910987             -18.8058
       ...           ...                  ...                  ...
        45        2.0000           -0.4416348             -12.0175
        46        2.0000           -0.4357309             -11.8568
        47        2.0000           -0.4316411             -11.7456
        48        2.0000           -0.4193505             -11.4111
        49        2.0000           -0.4175415             -11.3619
        50        2.0000           -0.4169621             -11.3461
        51        2.0000           -0.4047075             -11.0127
        52        2.0000           -0.4035226             -10.9804
        53        2.0000           -0.3933516             -10.7036
        54        2.0000           -0.3855121             -10.4903
        55        2.0000           -0.3770869             -10.2611
        56        2.0000           -0.3722510             -10.1295
        57        2.0000           -0.3658648              -9.9557 (HOMO)
        58                         -0.2637203              -7.1762 (LUMO)
        59                         -0.2598149              -7.0699
        60                         -0.2378978              -6.4735
        61                         -0.2164643              -5.8903
        62                         -0.1976878              -5.3794
        63                         -0.1902262              -5.1763
        64                         -0.1775301              -4.8308
        65                         -0.1592129              -4.3324
        66                         -0.1109886              -3.0202
        67                         -0.0830724              -2.2605
        68                         -0.0567134              -1.5432
       ...                                ...                  ...
       110                          0.7471660              20.3314
      -------------------------------------------------------------
                  HL-Gap            0.1021444 Eh            2.7795 eV

     #   Z          covCN         q      C6AA      α(0)
     1   6 C        2.927    -0.015    28.388     8.738
     2   6 C        2.916    -0.058    29.432     8.896
     3   6 C        2.957     0.097    25.844     8.338
     4   6 C        2.972    -0.018    28.456     8.750
     5   6 C        2.929    -0.029    28.734     8.791
     6   6 C        2.918    -0.039    28.980     8.828
     7   6 C        2.912    -0.031    28.771     8.796
     8   6 C        3.073    -0.016    28.322     8.726
     9   6 C        3.065     0.052    26.772     8.484
    10   7 N        2.756    -0.123    23.674     7.226
    11   6 C        3.071     0.054    26.709     8.474
    12   6 C        2.910    -0.055    29.357     8.885
    13   6 C        2.924    -0.033    28.817     8.803
    14   6 C        2.920    -0.041    29.023     8.834
    15   6 C        2.912    -0.032    28.803     8.800
    16   6 C        3.070    -0.015    28.320     8.726
    17   7 N        1.858    -0.226    26.780     7.670
    18   6 C        2.898     0.140    24.955     8.191
    19   7 N        3.057     0.089    19.691     6.591
    20   6 C        3.029    -0.017    28.398     8.741
    21   6 C        3.017    -0.067    29.649     8.932
    22   6 C        3.125     0.031    27.118     8.527
    23   7 N        2.007    -0.201    26.140     7.583
    24   6 C        2.915    -0.063    29.555     8.915
    25   1 H        0.926     0.036     2.502     2.473
    26   1 H        0.926     0.035     2.514     2.480
    27   1 H        0.926     0.060     2.194     2.316
    28   1 H        0.926     0.035     2.514     2.479
    29   1 H        0.926     0.035     2.513     2.479
    30   1 H        0.860     0.158     1.345     1.817
    31   1 H        0.926     0.024     2.678     2.559
    32   1 H        0.926     0.030     2.589     2.516
    33   1 H        0.926     0.029     2.602     2.522
    34   1 H        0.926     0.032     2.554     2.499
    35   1 H        0.926     0.035     2.522     2.483
    36   1 H        0.926     0.030     2.582     2.513
    37   1 H        0.926     0.037     2.487     2.466
    38   1 H        0.926     0.038     2.479     2.462

molecular dipole:
                 x           y           z       tot (Debye)
 q only:       -0.270       0.770       0.229
   full:        0.206       1.627       0.325       4.249

 projected vibrational frequencies (cm⁻¹)
eigval :       -0.00    -0.00    -0.00     0.00     0.00     0.00
eigval :       20.71    30.45    44.23    64.76    92.91   107.97
eigval :      112.19   149.55   191.04   234.23   238.94   253.52
eigval :      278.58   298.05   330.41   370.14   400.66   413.72
eigval :      451.83   458.82   468.29   498.36   532.90   535.59
eigval :      544.76   569.30   585.16   592.30   623.29   629.78
eigval :      652.14   659.52   689.02   708.73   711.20   732.69
eigval :      772.62   774.35   787.25   802.62   820.41   851.47
eigval :      856.06   856.77   863.25   866.26   881.26   883.12
eigval :      895.09   900.82   917.59   921.04   932.87   945.07
eigval :      996.74  1033.80  1062.89  1067.87  1075.08  1100.81
eigval :     1121.11  1127.10  1142.28  1153.58  1163.73  1168.13
eigval :     1178.96  1180.32  1195.99  1230.66  1264.20  1277.47
eigval :     1295.78  1303.77  1312.73  1326.06  1342.89  1357.11
eigval :     1372.55  1383.32  1405.93  1406.08  1426.20  1433.43
eigval :     1451.24  1487.51  1490.02  1539.27  1556.70  1567.95
eigval :     1578.70  1586.91  1599.59  1616.23  3071.98  3072.84
eigval :     3079.28  3083.03  3087.32  3093.77  3096.23  3096.45
eigval :     3108.80  3110.75  3171.24  3176.81  3189.27  3487.01

   temp. (K)  partition function   enthalpy   heat capacity  entropy
                                   cal/mol     cal/K/mol   cal/K/mol   J/K/mol
 298.15  VIB  0.418E+07             9590.851     65.078     57.604
         ROT  0.989E+07              888.752      2.981     34.989
         INT  0.413E+14            10479.604     68.059     92.594
         TR   0.529E+28             1481.254      4.968     43.074
         TOT                       11960.8576    73.0273   135.6679   567.6343

       T/K    H(0)-H(T)+PV         H(T)/Eh          T*S/Eh         G(T)/Eh
   ------------------------------------------------------------------------
    298.15    0.190608E-01    0.306359E+00    0.644602E-01    0.241898E+00
   ------------------------------------------------------------------------

         :::::::::::::::::::::::::::::::::::::::::::::::::::::
         ::                  THERMODYNAMIC                  ::
         :::::::::::::::::::::::::::::::::::::::::::::::::::::
         :: total free energy         -61.431616632070 Eh   ::
         ::.................................................::
         :: total energy              -61.673515117554 Eh   ::
         :: zero point energy           0.287297825909 Eh   ::
         :: G(RRHO) w/o ZPVE           -0.045399340425 Eh   ::
         :: G(RRHO) contrib.            0.241898485484 Eh   ::
         :::::::::::::::::::::::::::::::::::::::::::::::::::::

           -------------------------------------------------
          | TOTAL ENERGY              -61.673515117554 Eh   |
          | TOTAL ENTHALPY            -61.367156451793 Eh   |
          | TOTAL FREE ENERGY         -61.431616632070 Eh   |
          | GRADIENT NORM               0.000023752009 Eh/α |
          | HOMO-LUMO GAP               2.779491451726 eV   |
           -------------------------------------------------

 * finished run on 2025/09/12 at 08:44:42.782
