   * xtb version 6.7.1 (edcfbbe) compiled by 'albert@albert-system' on 2024-07-22

   ID    Z sym.   atoms
    1    6 C      1-9, 11-16, 18, 20-22, 24
    2    7 N      10, 17, 19, 23
    3    1 H      25-38

          program call               : xtb data2507/gas/czpzpy/czpzpy_gas_S0_finalOpt.xtbopt.xyz --gfn 2 --spinpol --tblite --uhf 2 --ohess vtight --parallel 40 --molden --ceasefiles --namespace data2507/gas/czpzpy/czpzpy_gas_T1_preOpt
 * total energy  :   -61.5853892 Eh     change       -0.3469182E-08 Eh
 * total energy  :   -61.5918512 Eh     change       -0.6462058E-02 Eh
 * total energy  :   -61.5939779 Eh     change       -0.2126699E-02 Eh
 * total energy  :   -61.5941560 Eh     change       -0.1781023E-03 Eh
 * total energy  :   -61.5944004 Eh     change       -0.2443714E-03 Eh
 * total energy  :   -61.5944794 Eh     change       -0.7896868E-04 Eh
 * total energy  :   -61.5945574 Eh     change       -0.7800458E-04 Eh
 * total energy  :   -61.5945997 Eh     change       -0.4225949E-04 Eh
 * total energy  :   -61.5946336 Eh     change       -0.3397111E-04 Eh
 * total energy  :   -61.5946645 Eh     change       -0.3087420E-04 Eh
 * total energy  :   -61.5950210 Eh     change       -0.3592754E-06 Eh
 * total energy  :   -61.5950213 Eh     change       -0.3173917E-06 Eh
 * total energy  :   -61.5950216 Eh     change       -0.3482633E-06 Eh
 * total energy  :   -61.5950219 Eh     change       -0.2967852E-06 Eh
 * total energy  :   -61.5950223 Eh     change       -0.3178305E-06 Eh
 * total energy  :   -61.5950225 Eh     change       -0.2726747E-06 Eh
 * total energy  :   -61.5950228 Eh     change       -0.2901708E-06 Eh
 * total energy  :   -61.5950231 Eh     change       -0.2478192E-06 Eh
 * total energy  :   -61.5950231 Eh     change       -0.2429892E-07 Eh
   *** GEOMETRY OPTIMIZATION CONVERGED AFTER 94 ITERATIONS ***

 final structure:
================
38
 xtb: 6.7.1 (edcfbbe)
C            3.16019349982387        2.69232182839048       -0.22204105437327
C            1.81344292429254        2.90729413875066       -0.13548335107217
C            0.91017364373221        1.79819747418285       -0.02409132765968
C           -0.48463251261666        1.94265364470192        0.00688000078613
C           -1.18044635171066        3.21150571780987        0.08196575759460
C           -2.53995144754592        3.29119718472174        0.15562266075092
C           -3.37976713441029        2.15567586633043        0.14717855651510
C           -2.76050346738347        0.90230974987199        0.05697637527263
C           -1.36322395373364        0.81378126764970       -0.01799729126794
N           -0.99598891080455       -0.49077804534055       -0.13000530642723
C           -2.09773223388535       -1.28447092797507       -0.11360529309542
C           -2.20894214691296       -2.66814813130966       -0.19518413696518
C           -3.47568082998172       -3.21168600993595       -0.16028866170034
C           -4.61041747190009       -2.39853012048421       -0.04783076873541
C           -4.51134739082262       -1.02357770615310        0.03229123825555
C           -3.24849075052390       -0.44410662395499        0.00057122283059
N            1.42373946385764        0.51823268469167        0.02785856821943
C            2.71884087275162        0.34946266392526       -0.03698895632965
N            3.18067140934740       -0.96362618735625        0.05953491005515
C            2.48435147861458       -2.06006638580007        0.45676174969817
C            3.34784875194918       -3.12145350057358        0.40235258048968
C            4.56151856923109       -2.56621087306324       -0.04626871711184
N            4.44494057853525       -1.27361058526762       -0.24122121852915
C            3.66055708755017        1.38327434772545       -0.17462866071044
H            3.84484011591282        3.52164260584339       -0.32135840693328
H            1.41957060307760        3.90809547642462       -0.18601507632512
H           -0.60273888820769        4.12041434726762        0.09918645897697
H           -3.00217525468249        4.26605823497374        0.22184309782665
H           -4.45087045734105        2.25547734671071        0.19483892091623
H           -0.00393919864557       -0.71632346450948       -0.17814150275637
H           -1.33118333443861       -3.29101151519158       -0.28345523205852
H           -3.60008076483601       -4.28219835045094       -0.22062762172577
H           -5.58424482775009       -2.86495522223501       -0.02492280687153
H           -5.39481346762503       -0.40924231784118        0.11698655381131
H            1.46345759612591       -1.99396220784462        0.77109614060099
H            3.14880572736730       -4.14401326816573        0.64860116259222
H            5.49580781091392       -3.05951098951113       -0.22671401262937
H            4.70941172022376        1.15237222388448       -0.21687893804212

 projected vibrational frequencies (cm⁻¹)
eigval :       -0.00    -0.00    -0.00    -0.00     0.00     0.00
eigval :       28.34    41.22    46.56    67.92    96.48   107.51
eigval :      114.14   132.60   167.91   215.39   239.25   260.41
eigval :      280.04   289.93   298.32   368.49   369.11   397.72
eigval :      432.82   439.98   482.78   495.11   513.33   526.66
eigval :      545.35   556.88   576.30   596.63   613.65   626.31
eigval :      638.28   657.06   664.68   678.60   695.58   716.85
eigval :      721.95   727.87   761.70   771.47   783.42   787.20
eigval :      819.71   834.33   841.22   854.78   859.18   861.36
eigval :      882.10   893.13   895.64   900.17   912.04   933.55
eigval :      962.68   990.72  1035.85  1055.17  1056.55  1064.40
eigval :     1067.44  1096.68  1102.60  1128.82  1134.57  1152.26
eigval :     1160.12  1176.02  1192.56  1210.79  1229.77  1245.11
eigval :     1274.38  1297.46  1308.12  1327.99  1330.36  1349.50
eigval :     1357.32  1367.49  1376.07  1395.26  1401.31  1411.31
eigval :     1424.82  1437.48  1465.97  1476.94  1486.97  1508.38
eigval :     1538.08  1553.84  1558.01  1579.97  3072.77  3078.56
eigval :     3078.84  3081.47  3091.67  3099.13  3108.48  3114.37
eigval :     3120.21  3142.33  3171.91  3179.89  3191.75  3239.75

   temp. (K)  partition function   enthalpy   heat capacity  entropy
                                   cal/mol     cal/K/mol   cal/K/mol   J/K/mol
 298.15  VIB  0.313E+07             9850.740     67.377     59.023
         ROT  0.957E+07              888.752      2.981     34.925
         INT  0.300E+14            10739.493     70.358     93.948
         TR   0.529E+28             1481.254      4.968     43.074
         TOT                       12220.7467    75.3262   137.0221   573.3006

       T/K    H(0)-H(T)+PV         H(T)/Eh          T*S/Eh         G(T)/Eh
   ------------------------------------------------------------------------
    298.15    0.194750E-01    0.302149E+00    0.651036E-01    0.237045E+00
   ------------------------------------------------------------------------

         :::::::::::::::::::::::::::::::::::::::::::::::::::::
         ::                  THERMODYNAMIC                  ::
         :::::::::::::::::::::::::::::::::::::::::::::::::::::
         :: total free energy         -61.357978192318 Eh   ::
         ::.................................................::
         :: total energy              -61.595023086444 Eh   ::
         :: zero point energy           0.282673535184 Eh   ::
         :: G(RRHO) w/o ZPVE           -0.045628641058 Eh   ::
         :: G(RRHO) contrib.            0.237044894126 Eh   ::
         :::::::::::::::::::::::::::::::::::::::::::::::::::::

           -------------------------------------------------
          | TOTAL ENERGY              -61.595023086444 Eh   |
          | TOTAL ENTHALPY            -61.292874551699 Eh   |
          | TOTAL FREE ENERGY         -61.357978192318 Eh   |
          | GRADIENT NORM               0.000055410660 Eh/α |
           -------------------------------------------------

 * finished run on 2025/09/12 at 08:45:48.663
