   * xtb version 6.7.1 (edcfbbe) compiled by 'albert@albert-system' on 2024-07-22

   ID    Z sym.   atoms
    1    7 N      1, 7, 25
    2    6 C      2-6, 8-24, 26-45
    3    1 H      46-68

          program call               : xtb data2507/gas/PPINCN/PPINCN_gas_S0_finalOpt.xtbopt.xyz --gfn 2 --spinpol --tblite --uhf 2 --ohess vtight --parallel 40 --molden --ceasefiles --namespace data2507/gas/PPINCN/PPINCN_gas_T1_preOpt
 * total energy  :  -110.4214394 Eh     change       -0.1702330E-07 Eh
 * total energy  :  -110.4268466 Eh     change       -0.5407250E-02 Eh
 * total energy  :  -110.4285947 Eh     change       -0.1748042E-02 Eh
 * total energy  :  -110.4287510 Eh     change       -0.1563841E-03 Eh
 * total energy  :  -110.4290098 Eh     change       -0.2587692E-03 Eh
 * total energy  :  -110.4291830 Eh     change       -0.1732125E-03 Eh
 * total energy  :  -110.4294038 Eh     change       -0.2208009E-03 Eh
 * total energy  :  -110.4294972 Eh     change       -0.9336042E-04 Eh
 * total energy  :  -110.4295848 Eh     change       -0.8764230E-04 Eh
 * total energy  :  -110.4296591 Eh     change       -0.7421601E-04 Eh
 * total energy  :  -110.4309186 Eh     change       -0.8046687E-06 Eh
 * total energy  :  -110.4309194 Eh     change       -0.7876701E-06 Eh
 * total energy  :  -110.4309203 Eh     change       -0.8724999E-06 Eh
 * total energy  :  -110.4309214 Eh     change       -0.1055726E-05 Eh
 * total energy  :  -110.4309224 Eh     change       -0.9990125E-06 Eh
 * total energy  :  -110.4309232 Eh     change       -0.8309613E-06 Eh
 * total energy  :  -110.4309238 Eh     change       -0.5865974E-06 Eh
 * total energy  :  -110.4309237 Eh     change        0.2228653E-07 Eh
 * total energy  :  -110.4309238 Eh     change       -0.2847302E-07 Eh
   *** GEOMETRY OPTIMIZATION CONVERGED AFTER 69 ITERATIONS ***

 final structure:
================
68
 xtb: 6.7.1 (edcfbbe)
N            4.27392835932817        3.66134212447678       -1.21359906655648
C            3.29921047300846        3.07056190651489       -1.07332298873710
C            2.11947932287797        2.32180406562195       -0.89731395078790
C            1.90771172766128        1.19746083738981       -1.67397995073051
C            0.79292528112163        0.39795212413472       -1.45264199898060
C           -0.11651742239418        0.70841021519032       -0.46030563532704
N           -1.11072648529952       -0.23128779895744       -0.15283294505173
C           -0.83651316352508       -1.57534337915693        0.13618069244258
C            0.45087768240467       -2.15705483080158        0.20651291945421
C            0.59013623984753       -3.49268639381827       -0.24978802080252
C            1.80209506844848       -3.98208321846173       -0.61975537172548
C            2.98555612061623       -3.17580314640386       -0.53268140115255
C            4.21966992207208       -3.59877044025530       -1.02471436764991
C            5.34820866936081       -2.80848014346063       -0.89808661084289
C            5.30019352463534       -1.58294315023178       -0.21343442386424
C            6.44030712623682       -0.76406372322519       -0.04004148102571
C            6.35721900912342        0.42496812993170        0.66124196450035
C            5.16782109457432        0.82955295667062        1.23203860441349
C            3.99783878033917        0.04496757201351        1.08970080348756
C            2.78235245098575        0.38385361465181        1.70177122933414
C            1.63885606412108       -0.35885679411996        1.47088250863771
C            1.65004779200107       -1.44487955359434        0.59491769894393
C            2.89662073903626       -1.92051076659254        0.12235938685516
C            4.06353628875007       -1.15247295729937        0.33269682988936
N           -1.96173486745956       -2.27270887694117        0.27016157059459
C           -2.96866661764495       -1.40448865349888        0.10787766341183
C           -4.36561685180064       -1.65365416539121        0.23287768684377
C           -4.83968219772398       -2.91841031997221        0.59336306047847
C           -6.18733533535324       -3.13472864997754        0.75153387587084
C           -7.07482526106656       -2.08025500693613        0.55564878882932
C           -6.61825405517769       -0.83228309479323        0.19308886869655
C           -5.25252920843798       -0.57573541102414        0.00981708191659
C           -4.74244578525824        0.71758574960424       -0.41806300868940
C           -5.59963404181848        1.77423116202486       -0.74496424778241
C           -5.12730448077770        2.98470334387484       -1.20094456026722
C           -3.76103298497586        3.18058420656879       -1.37766778350700
C           -2.88400508176008        2.17433397947045       -1.05940397985622
C           -3.34208335193838        0.94654861495544       -0.55164489826963
C           -2.47652407708062       -0.11806926346542       -0.19523903198825
C            0.04248973567384        1.88368078773306        0.32826989966368
C           -0.84427845671258        2.23107621134132        1.36780146795338
C           -0.63762758753229        3.35757049613312        2.11819690000098
C            0.46165984321799        4.18603270141208        1.86519170670270
C            1.35392512891422        3.86370706507086        0.87723222775478
C            1.17367501002984        2.70766392659324        0.09501045883938
H            2.62350598751562        0.92651314560473       -2.43531104398614
H            0.64607874045119       -0.49227557307298       -2.04642998543262
H           -0.31358828859365       -4.06642800292431       -0.38676520777284
H            1.89150211662657       -4.97667825507794       -1.03054811042852
H            4.28803360785874       -4.55894276177307       -1.51602665062199
H            6.28934361906367       -3.13981597494025       -1.31219300493198
H            7.38052864095121       -1.08388327361132       -0.46412840972275
H            7.23776278359169        1.04047361833140        0.77243598242968
H            5.11212384835981        1.75081546767393        1.79189343690480
H            2.74182079333602        1.24435136322427        2.35394791340936
H            0.71982165455992       -0.09187365143066        1.97188727042978
H           -4.11553710283059       -3.70295856595877        0.74804403454104
H           -6.55806329253142       -4.10939807428804        1.03128451085915
H           -8.13490539094578       -2.24067992151650        0.68845329861536
H           -7.34393083359493       -0.04665166436452        0.05531171671112
H           -6.66618736309571        1.64833212768004       -0.65229138226703
H           -5.82110726369668        3.77675026076070       -1.44015345610727
H           -3.39161884810760        4.11703580586101       -1.76778973872433
H           -1.82883021185892        2.31863782915533       -1.22590356556493
H           -1.69266563889242        1.59653440096346        1.57622228517364
H           -1.32500906292810        3.60955359376475        2.91174891048610
H            0.60776245213818        5.07551297812208        2.45933527695260
H            2.21320484005274        4.48928674440164        0.68344301291768

 projected vibrational frequencies (cm⁻¹)
eigval :       -0.00    -0.00    -0.00     0.00     0.00     0.00
eigval :       16.01    20.47    23.25    29.20    36.91    46.68
eigval :       72.12    81.66    87.58    98.09   109.27   121.36
eigval :      128.98   134.43   137.79   151.53   181.96   187.93
eigval :      192.81   204.61   215.00   232.14   253.29   258.25
eigval :      272.82   289.75   306.79   337.54   347.56   379.51
eigval :      389.70   391.78   398.90   401.28   408.32   417.52
eigval :      429.69   432.55   435.54   440.55   444.99   452.93
eigval :      461.70   468.50   483.74   493.31   503.95   507.76
eigval :      519.83   522.15   532.18   556.15   572.17   578.06
eigval :      584.62   587.69   595.75   609.99   622.06   636.78
eigval :      647.51   660.86   664.91   668.96   674.84   678.37
eigval :      681.23   696.87   706.57   725.36   733.32   734.09
eigval :      737.24   750.41   762.95   767.62   777.30   778.69
eigval :      780.65   781.49   801.16   814.55   823.34   827.91
eigval :      833.61   848.44   861.32   873.62   877.36   887.23
eigval :      898.25   906.24   906.69   908.82   913.27   915.45
eigval :      916.75   918.52   922.58   926.59   929.06   932.39
eigval :      982.10   999.03  1010.38  1027.93  1076.79  1085.07
eigval :     1087.57  1097.18  1106.57  1115.39  1121.83  1137.22
eigval :     1143.21  1147.97  1162.37  1164.05  1174.01  1180.44
eigval :     1181.62  1184.72  1190.63  1193.84  1195.10  1208.18
eigval :     1211.33  1225.64  1232.17  1235.30  1248.44  1255.37
eigval :     1257.78  1259.55  1282.76  1287.05  1307.59  1316.74
eigval :     1326.36  1329.25  1336.57  1337.40  1347.16  1354.82
eigval :     1361.73  1370.04  1381.86  1384.03  1389.54  1397.84
eigval :     1403.23  1407.55  1415.07  1428.88  1435.07  1444.93
eigval :     1450.84  1462.37  1489.60  1495.85  1498.86  1500.41
eigval :     1513.93  1517.08  1528.57  1530.33  1537.76  1543.27
eigval :     1552.15  1552.76  1561.16  1582.49  1594.10  1594.71
eigval :     2346.98  3071.23  3072.66  3076.18  3077.41  3080.53
eigval :     3081.35  3081.66  3083.47  3084.51  3085.12  3085.39
eigval :     3086.65  3087.98  3090.61  3092.78  3094.61  3097.84
eigval :     3098.96  3099.26  3099.81  3106.67  3111.86  3116.26

   temp. (K)  partition function   enthalpy   heat capacity  entropy
                                   cal/mol     cal/K/mol   cal/K/mol   J/K/mol
 298.15  VIB  0.250E+14            19085.297    126.728    114.885
         ROT  0.443E+08              888.752      2.981     37.970
         INT  0.111E+22            19974.050    129.709    152.855
         TR   0.132E+29             1481.254      4.968     44.884
         TOT                       21455.3037   134.6772   197.7390   827.3402

       T/K    H(0)-H(T)+PV         H(T)/Eh          T*S/Eh         G(T)/Eh
   ------------------------------------------------------------------------
    298.15    0.341912E-01    0.538915E+00    0.939522E-01    0.444963E+00
   ------------------------------------------------------------------------

         :::::::::::::::::::::::::::::::::::::::::::::::::::::
         ::                  THERMODYNAMIC                  ::
         :::::::::::::::::::::::::::::::::::::::::::::::::::::
         :: total free energy        -109.985961093763 Eh   ::
         ::.................................................::
         :: total energy             -110.430923716755 Eh   ::
         :: zero point energy           0.504723621568 Eh   ::
         :: G(RRHO) w/o ZPVE           -0.059760998576 Eh   ::
         :: G(RRHO) contrib.            0.444962622992 Eh   ::
         :::::::::::::::::::::::::::::::::::::::::::::::::::::

           -------------------------------------------------
          | TOTAL ENERGY             -110.430923716755 Eh   |
          | TOTAL ENTHALPY           -109.892008892440 Eh   |
          | TOTAL FREE ENERGY        -109.985961093763 Eh   |
          | GRADIENT NORM               0.000082633987 Eh/α |
           -------------------------------------------------

 * finished run on 2025/09/12 at 16:27:31.708
