   * xtb version 6.7.1 (edcfbbe) compiled by 'albert@albert-system' on 2024-07-22

   ID    Z sym.   atoms
    1    7 N      1, 7, 25
    2    6 C      2-6, 8-24, 26-45
    3    1 H      46-68

          program call               : xtb data2507/gas/PPINCN/PPINCN_gas_S0_crest.xyz --gfn 2 --ohess vtight --parallel 40 --molden --ceasefiles --namespace data2507/gas/PPINCN/PPINCN_gas_S0_finalOpt
          :  Hamiltonian                  GFN2-xTB          :
 * total energy  :  -110.4958443 Eh     change       -0.2251795E-08 Eh
 * total energy  :  -110.4958444 Eh     change       -0.1260809E-06 Eh
 * total energy  :  -110.4958449 Eh     change       -0.4698557E-06 Eh
 * total energy  :  -110.4958467 Eh     change       -0.1786475E-05 Eh
 * total energy  :  -110.4958477 Eh     change       -0.1034860E-05 Eh
 * total energy  :  -110.4958490 Eh     change       -0.1300984E-05 Eh
 * total energy  :  -110.4958500 Eh     change       -0.1010339E-05 Eh
 * total energy  :  -110.4958507 Eh     change       -0.6614672E-06 Eh
 * total energy  :  -110.4958513 Eh     change       -0.6409977E-06 Eh
 * total energy  :  -110.4958521 Eh     change       -0.7513493E-06 Eh
 * total energy  :  -110.4958533 Eh     change       -0.2938557E-06 Eh
 * total energy  :  -110.4958537 Eh     change       -0.4201380E-06 Eh
 * total energy  :  -110.4958542 Eh     change       -0.4577162E-06 Eh
 * total energy  :  -110.4958544 Eh     change       -0.2194001E-06 Eh
 * total energy  :  -110.4958545 Eh     change       -0.1183365E-06 Eh
 * total energy  :  -110.4958546 Eh     change       -0.1366817E-06 Eh
 * total energy  :  -110.4958548 Eh     change       -0.1789247E-06 Eh
 * total energy  :  -110.4958550 Eh     change       -0.1547454E-06 Eh
 * total energy  :  -110.4958551 Eh     change       -0.8053259E-07 Eh
   *** GEOMETRY OPTIMIZATION CONVERGED AFTER 21 ITERATIONS ***

 final structure:
================
68
 xtb: 6.7.1 (edcfbbe)
N            4.19394610107610        3.64784059525901       -1.59921169469436
C            3.24371842742951        3.03458168687996       -1.40676233462415
C            2.08276036973490        2.26464641621575       -1.17938224524081
C            1.80639161091066        1.19640161682271       -2.00598799274048
C            0.69645169584532        0.39016025935444       -1.75968806415459
C           -0.13305990266561        0.64089769347343       -0.68949298749804
N           -1.12858304671509       -0.29921732565757       -0.37891244319951
C           -0.85088874468748       -1.62071367108189       -0.06048386998411
C            0.50162980806648       -2.15476487665829       -0.16729398215305
C            0.72014287024569       -3.24538889825130       -1.00564848029513
C            1.99998028399070       -3.64649232782963       -1.32662932814485
C            3.10884567082763       -2.93590804414620       -0.85947907499716
C            4.43947250895976       -3.24136307629942       -1.26818212958128
C            5.49289437684842       -2.51228471677754       -0.83117613277087
C            5.31622277600642       -1.42177634009660        0.07084606829624
C            6.38397710945805       -0.64018526591911        0.51544671499751
C            6.17522998778207        0.40801228565465        1.39297625049122
C            4.90559846553560        0.69271369227222        1.86115644316053
C            3.80850981363020       -0.06171401931257        1.44396780085487
C            2.49148259889023        0.16945785062680        1.93618721452281
C            1.43386843088167       -0.52950699880266        1.46342648320700
C            1.59271763767158       -1.51482482872428        0.44547953627851
C            2.90418415504615       -1.86519386326185        0.04530160695731
C            4.00866973869274       -1.12059841240836        0.52452195412275
N           -1.92823910906063       -2.29133531421945        0.23484694005443
C           -2.96377093786845       -1.41316841201472        0.12018119499699
C           -4.34414959085867       -1.64749060959302        0.37049637727065
C           -4.80003017500033       -2.89655634070394        0.80522632486588
C           -6.13167005834595       -3.09322599081859        1.07199016130031
C           -7.02570215560209       -2.03644203913583        0.91009527531407
C           -6.58951589742093       -0.80609984810972        0.47738139998270
C           -5.23802141514302       -0.56713952525854        0.18450485374623
C           -4.75384066299698        0.70988635073823       -0.31069128098552
C           -5.62192807656533        1.77791107936597       -0.57920606525836
C           -5.17151615904422        2.97205232718544       -1.09030646935886
C           -3.82141596039328        3.14686885909328       -1.37912868098597
C           -2.93640580463579        2.12945161802666       -1.12337699288703
C           -3.37203629007604        0.91685684940483       -0.57089289968747
C           -2.49499010036750       -0.16357638563020       -0.27697249417373
C            0.09638624021270        1.75957007180039        0.16113202178849
C           -0.72698463738478        2.05912574432890        1.26686965236232
C           -0.45357365881064        3.12949811083877        2.07201917485442
C            0.65385651236450        3.94911414704292        1.81326219698987
C            1.47703744501304        3.68029704018860        0.75492442250866
C            1.22228912907250        2.58402360974928       -0.09233609823365
H            2.46099608281865        0.97091190266794       -2.83434215390981
H            0.50062071941580       -0.45845435648279       -2.39789487101234
H           -0.13596920407820       -3.75246623129047       -1.42489872764455
H            2.15236209349001       -4.49038766665445       -1.98374966979228
H            4.58447171401998       -4.06779217171704       -1.94950007447746
H            6.49689172044714       -2.74352700842580       -1.15765842471246
H            7.38086605674222       -0.86039147233404        0.16169188519388
H            7.01258201075324        1.00639247897882        1.72053964019713
H            4.75157874970075        1.50562776268562        2.55611410717208
H            2.35567325427157        0.91858866324957        2.70365444883822
H            0.44714751698986       -0.37271121729039        1.87444071232233
H           -4.07296882623425       -3.68445279329001        0.92649709964266
H           -6.48817503273063       -4.05524136306520        1.40907976873852
H           -8.07391885721150       -2.18469598346819        1.12606390498514
H           -7.31738240811555       -0.01778829666011        0.36864798505019
H           -6.67817294199384        1.67049526878818       -0.39260790400386
H           -5.87058858778678        3.77235070657401       -1.28315123041582
H           -3.47200718846841        4.07515778447266       -1.80599310328911
H           -1.89305315059534        2.25673776961662       -1.36812106088964
H           -1.58130503831357        1.43356741754114        1.47751269795688
H           -1.09192995973112        3.34711523554676        2.91505429049456
H            0.85492042925479        4.79161456373052        2.45770393884570
H            2.33644155260407        4.30214901511544        0.55032103483358

          :  Hamiltonian                  GFN2-xTB          :
         :: gradient norm              0.000060556073 Eh/a0 ::
         :: HOMO-LUMO gap              1.771930867927 eV    ::
         :: SCC energy              -112.635762029961 Eh    ::
         :: -> dispersion             -0.113511246434 Eh    ::
         :: repulsion energy           2.139906972872 Eh    ::

    * Orbital Energies and Occupations

         #    Occupation            Energy/Eh            Energy/eV
      -------------------------------------------------------------
         1        2.0000           -0.6938605             -18.8809
       ...           ...                  ...                  ...
        91        2.0000           -0.4214315             -11.4677
        92        2.0000           -0.4187799             -11.3956
        93        2.0000           -0.4165176             -11.3340
        94        2.0000           -0.4145550             -11.2806
        95        2.0000           -0.4130096             -11.2386
        96        2.0000           -0.4110962             -11.1865
        97        2.0000           -0.4056400             -11.0380
        98        2.0000           -0.4015312             -10.9262
        99        2.0000           -0.3975095             -10.8168
       100        2.0000           -0.3847615             -10.4699
       101        2.0000           -0.3824238             -10.4063
       102        2.0000           -0.3771797             -10.2636
       103        2.0000           -0.3650008              -9.9322 (HOMO)
       104                         -0.2998835              -8.1602 (LUMO)
       105                         -0.2877457              -7.8300
       106                         -0.2565685              -6.9816
       107                         -0.2545588              -6.9269
       108                         -0.2518071              -6.8520
       109                         -0.2482998              -6.7566
       110                         -0.2370974              -6.4517
       111                         -0.2285093              -6.2181
       112                         -0.2264994              -6.1634
       113                         -0.2112070              -5.7472
       114                         -0.2094703              -5.7000
       ...                                ...                  ...
       203                          1.1648044              31.6959
      -------------------------------------------------------------
                  HL-Gap            0.0651173 Eh            1.7719 eV

     #   Z          covCN         q      C6AA      α(0)
     1   7 N        0.911    -0.235    26.153     7.396
     2   6 C        1.913     0.114    28.281     8.588
     3   6 C        2.971     0.009    27.812     8.650
     4   6 C        2.926    -0.019    28.491     8.754
     5   6 C        2.920    -0.041    29.010     8.833
     6   6 C        2.908     0.068    26.486     8.439
     7   7 N        2.841    -0.046    22.134     6.987
     8   6 C        3.191     0.132    24.657     8.099
     9   6 C        2.974    -0.008    28.203     8.711
    10   6 C        2.921    -0.030    28.737     8.791
    11   6 C        2.918    -0.037    28.917     8.818
    12   6 C        2.982     0.012    27.743     8.640
    13   6 C        2.913    -0.036    28.888     8.814
    14   6 C        2.913    -0.034    28.853     8.808
    15   6 C        2.982     0.013    27.724     8.637
    16   6 C        2.920    -0.034    28.846     8.808
    17   6 C        2.914    -0.027    28.683     8.782
    18   6 C        2.920    -0.034    28.848     8.808
    19   6 C        2.982     0.010    27.783     8.646
    20   6 C        2.914    -0.036    28.887     8.813
    21   6 C        2.913    -0.037    28.908     8.817
    22   6 C        2.985     0.005    27.904     8.665
    23   6 C        2.997     0.002    27.963     8.674
    24   6 C        2.999     0.003    27.952     8.673
    25   7 N        1.891    -0.285    28.233     7.877
    26   6 C        3.208     0.056    26.140     8.325
    27   6 C        2.986     0.003    27.953     8.673
    28   6 C        2.921    -0.031    28.768     8.796
    29   6 C        2.917    -0.029    28.736     8.791
    30   6 C        2.917    -0.032    28.799     8.800
    31   6 C        2.921    -0.034    28.858     8.809
    32   6 C        2.979    -0.001    28.057     8.689
    33   6 C        2.980     0.002    27.974     8.676
    34   6 C        2.922    -0.033    28.829     8.805
    35   6 C        2.917    -0.032    28.808     8.801
    36   6 C        2.917    -0.031    28.776     8.797
    37   6 C        2.919    -0.038    28.939     8.822
    38   6 C        2.979    -0.002    28.076     8.692
    39   6 C        3.070     0.021    27.473     8.594
    40   6 C        2.985     0.008    27.829     8.653
    41   6 C        2.917    -0.027    28.672     8.781
    42   6 C        2.916    -0.025    28.623     8.773
    43   6 C        2.916    -0.023    28.588     8.768
    44   6 C        2.918    -0.030    28.749     8.792
    45   6 C        2.992     0.018    27.595     8.617
    46   1 H        0.926     0.046     2.364     2.405
    47   1 H        0.926     0.044     2.402     2.424
    48   1 H        0.926     0.045     2.378     2.411
    49   1 H        0.926     0.038     2.479     2.462
    50   1 H        0.926     0.034     2.524     2.485
    51   1 H        0.926     0.035     2.515     2.480
    52   1 H        0.926     0.036     2.507     2.476
    53   1 H        0.926     0.036     2.502     2.474
    54   1 H        0.926     0.033     2.548     2.496
    55   1 H        0.926     0.028     2.609     2.526
    56   1 H        0.926     0.027     2.623     2.533
    57   1 H        0.926     0.052     2.301     2.372
    58   1 H        0.926     0.031     2.565     2.505
    59   1 H        0.926     0.029     2.597     2.520
    60   1 H        0.926     0.031     2.567     2.506
    61   1 H        0.926     0.036     2.508     2.477
    62   1 H        0.926     0.030     2.582     2.513
    63   1 H        0.926     0.028     2.616     2.529
    64   1 H        0.926     0.022     2.707     2.573
    65   1 H        0.926     0.041     2.437     2.441
    66   1 H        0.926     0.041     2.440     2.443
    67   1 H        0.926     0.042     2.423     2.434
    68   1 H        0.926     0.045     2.377     2.411

molecular dipole:
                 x           y           z       tot (Debye)
 q only:       -0.131      -0.020       0.243
   full:       -0.427       0.132       0.174       1.218

 projected vibrational frequencies (cm⁻¹)
eigval :       -0.00    -0.00    -0.00    -0.00     0.00     0.00
eigval :       12.13    13.97    23.02    31.55    32.49    44.76
eigval :       71.11    82.84    93.24    96.58   106.05   114.70
eigval :      123.37   132.28   138.85   156.14   181.45   188.23
eigval :      199.92   215.00   223.68   233.12   252.05   263.71
eigval :      269.32   292.18   309.05   338.50   348.79   385.88
eigval :      391.96   396.45   402.36   403.39   412.57   422.18
eigval :      429.39   434.44   441.57   448.28   458.72   467.55
eigval :      472.85   477.26   487.56   498.83   503.75   515.53
eigval :      523.35   530.04   535.85   566.61   579.90   586.00
eigval :      587.69   590.45   603.19   614.04   642.17   648.31
eigval :      656.00   662.51   671.82   678.80   680.32   686.08
eigval :      694.77   698.18   710.13   730.66   734.48   738.38
eigval :      755.49   765.96   768.90   774.03   779.59   781.47
eigval :      783.10   802.09   819.50   832.63   839.19   843.70
eigval :      851.79   864.41   875.96   881.90   887.46   908.16
eigval :      908.55   912.71   915.07   915.88   920.34   922.09
eigval :      924.94   925.06   928.01   932.82   939.53   940.71
eigval :      994.59  1004.97  1020.06  1026.98  1076.87  1085.75
eigval :     1086.07  1102.56  1106.88  1108.52  1127.64  1148.88
eigval :     1156.36  1159.17  1168.80  1175.49  1180.12  1180.56
eigval :     1182.95  1185.44  1194.52  1197.39  1204.16  1209.15
eigval :     1223.32  1234.61  1235.55  1252.81  1255.72  1257.38
eigval :     1259.06  1282.96  1285.80  1307.96  1316.17  1323.34
eigval :     1331.10  1340.53  1343.47  1353.08  1356.07  1381.66
eigval :     1389.04  1389.67  1394.10  1407.45  1408.28  1413.97
eigval :     1418.02  1421.11  1431.46  1436.69  1450.17  1452.79
eigval :     1485.75  1492.14  1503.35  1514.94  1517.81  1539.28
eigval :     1553.45  1556.03  1561.49  1563.87  1569.41  1573.79
eigval :     1578.90  1595.07  1603.08  1604.46  1605.61  1605.98
eigval :     2365.72  3068.15  3068.30  3073.94  3074.32  3077.66
eigval :     3077.88  3079.04  3082.54  3083.30  3084.12  3085.28
eigval :     3086.91  3087.48  3090.84  3091.61  3095.04  3095.18
eigval :     3097.89  3100.84  3101.29  3101.86  3105.26  3111.29

   temp. (K)  partition function   enthalpy   heat capacity  entropy
                                   cal/mol     cal/K/mol   cal/K/mol   J/K/mol
 298.15  VIB  0.431E+14            18902.815    125.147    114.443
         ROT  0.435E+08              888.752      2.981     37.935
         INT  0.187E+22            19791.567    128.128    152.378
         TR   0.132E+29             1481.254      4.968     44.884
         TOT                       21272.8209   133.0958   197.2618   825.3432

       T/K    H(0)-H(T)+PV         H(T)/Eh          T*S/Eh         G(T)/Eh
   ------------------------------------------------------------------------
    298.15    0.339004E-01    0.542243E+00    0.937254E-01    0.448518E+00
   ------------------------------------------------------------------------

         :::::::::::::::::::::::::::::::::::::::::::::::::::::
         ::                  THERMODYNAMIC                  ::
         :::::::::::::::::::::::::::::::::::::::::::::::::::::
         :: total free energy        -110.047337223659 Eh   ::
         ::.................................................::
         :: total energy             -110.495855057087 Eh   ::
         :: zero point energy           0.508342860782 Eh   ::
         :: G(RRHO) w/o ZPVE           -0.059825027354 Eh   ::
         :: G(RRHO) contrib.            0.448517833428 Eh   ::
         :::::::::::::::::::::::::::::::::::::::::::::::::::::

           -------------------------------------------------
          | TOTAL ENERGY             -110.495855057087 Eh   |
          | TOTAL ENTHALPY           -109.953611798358 Eh   |
          | TOTAL FREE ENERGY        -110.047337223659 Eh   |
          | GRADIENT NORM               0.000060422373 Eh/α |
          | HOMO-LUMO GAP               1.771932245875 eV   |
           -------------------------------------------------

 * finished run on 2025/09/12 at 16:27:20.732
