   * xtb version 6.7.1 (edcfbbe) compiled by 'albert@albert-system' on 2024-07-22

   ID    Z sym.   atoms
    1    7 N      1, 7, 25
    2    6 C      2-6, 8-24, 26-45
    3    1 H      46-68

          program call               : xtb data2507/gas/PPINCN/PPINCN.xyz --gfn 2 --ohess vtight --parallel 40 --molden --ceasefiles --namespace data2507/gas/PPINCN/PPINCN_gas_S0_preOpt
          :  Hamiltonian                  GFN2-xTB          :
 * total energy  :  -110.4733846 Eh     change       -0.1794945E-08 Eh
 * total energy  :  -110.4877453 Eh     change       -0.1436067E-01 Eh
 * total energy  :  -110.4916524 Eh     change       -0.3907143E-02 Eh
 * total energy  :  -110.4921904 Eh     change       -0.5379554E-03 Eh
 * total energy  :  -110.4926690 Eh     change       -0.4786055E-03 Eh
 * total energy  :  -110.4931259 Eh     change       -0.4569710E-03 Eh
 * total energy  :  -110.4933677 Eh     change       -0.2417540E-03 Eh
 * total energy  :  -110.4935817 Eh     change       -0.2139897E-03 Eh
 * total energy  :  -110.4937562 Eh     change       -0.1745025E-03 Eh
 * total energy  :  -110.4938685 Eh     change       -0.1123200E-03 Eh
 * total energy  :  -110.4951954 Eh     change       -0.9049114E-06 Eh
 * total energy  :  -110.4951964 Eh     change       -0.9601056E-06 Eh
 * total energy  :  -110.4951974 Eh     change       -0.1019655E-05 Eh
 * total energy  :  -110.4951985 Eh     change       -0.1105623E-05 Eh
 * total energy  :  -110.4951997 Eh     change       -0.1176985E-05 Eh
 * total energy  :  -110.4952009 Eh     change       -0.1256183E-05 Eh
 * total energy  :  -110.4952022 Eh     change       -0.1295843E-05 Eh
 * total energy  :  -110.4952036 Eh     change       -0.1314531E-05 Eh
 * total energy  :  -110.4952036 Eh     change       -0.3521265E-08 Eh
   *** GEOMETRY OPTIMIZATION CONVERGED AFTER 94 ITERATIONS ***

 final structure:
================
68
 xtb: 6.7.1 (edcfbbe)
N            0.77498775601942        6.77375835777935       -0.99597589546360
C            0.41191377114803        5.69601803669452       -0.84534658550644
C           -0.05241560148651        4.37348705494503       -0.67665875934725
C           -1.13614462702912        3.93976378672450       -1.41367980591737
C           -1.57801782715300        2.62283642698416       -1.30273987434705
C           -0.96542335001856        1.75092569911142       -0.42827039641771
N           -1.33629431897247        0.39856671563748       -0.42000299354090
C           -0.47962130693545       -0.63521273782787       -0.76177597357628
C            0.92671328974316       -0.39311419743404       -1.06486796772382
C            1.26559084253598        0.59753267515387       -1.98395636064695
C            2.58107514235058        0.92384350176619       -2.23100280130874
C            3.61508279561908        0.27264074963919       -1.55677435666230
C            4.98364929018742        0.60724361132290       -1.76922087236256
C            5.97424595535231       -0.04114600825839       -1.11439938290954
C            5.68518599105630       -1.08340221526228       -0.18547636210646
C            6.69157342371851       -1.76427069326165        0.50158098618200
C            6.37948645558332       -2.77044266717290        1.39743153313672
C            5.06220870458997       -3.12016536180707        1.63054419713158
C            4.02317648339180       -2.46610472689883        0.96634574908941
C            2.65429222340967       -2.79961730397102        1.17953213699970
C            1.66037890462267       -2.15169154614968        0.52880031435452
C            1.94088848643893       -1.10890753278010       -0.40214793880983
C            3.29327668594425       -0.75879094907436       -0.64045496526427
C            4.33192644493826       -1.43536591657001        0.04534416895654
N           -1.08926229466828       -1.78791069626978       -0.77949570471437
C           -2.38743281464152       -1.53665193437454       -0.45310784879366
C           -3.46358406902358       -2.46331816009027       -0.38010185062845
C           -3.27318861494798       -3.81969343368346       -0.66443587709058
C           -4.33417654709777       -4.68933594061997       -0.62969090117395
C           -5.60328193866107       -4.20854045728914       -0.31282770903933
C           -5.80004238779321       -2.87843106985262       -0.02388158601718
C           -4.73967670389303       -1.95932353570924       -0.03801214592165
C           -4.90710908644329       -0.55666825571196        0.30070446411797
C           -6.13941945202253       -0.04405450113783        0.73063513476109
C           -6.29278819931590        1.27060984930085        1.10207517689910
C           -5.20322938070567        2.13572972793115        1.07975018168065
C           -3.98099323333329        1.67669873987057        0.65545667845708
C           -3.81217056968386        0.34845794252956        0.23937450653047
C           -2.57046391381352       -0.17744608488768       -0.21400534261218
C            0.10799521243033        2.18178875253431        0.39797241197270
C            0.70891312069239        1.34313655394592        1.35997429796390
C            1.79014386764739        1.77070441593297        2.07801892575778
C            2.30731871381480        3.05946495473000        1.88334282844879
C            1.71217662135731        3.91622741611183        0.99938437606372
C            0.59695638294104        3.50414077365738        0.24311513658989
H           -1.62453876444327        4.61392499007548       -2.10145022969032
H           -2.39639519950974        2.27535845334969       -1.91641525427146
H            0.48294767466399        1.11006749789081       -2.52498437801481
H            2.81951812897478        1.69474512509590       -2.94943434737397
H            5.20936817552662        1.39632255719148       -2.47246621506981
H            7.00997361683606        0.21780152356453       -1.28297744269586
H            7.72341848500216       -1.49606770567856        0.32517010545917
H            7.17173170020502       -3.28762122594807        1.91912652167155
H            4.82563792363658       -3.90777756817282        2.33157747498324
H            2.42677763720270       -3.59117177532398        1.87949809269231
H            0.62948740127479       -2.42883037696615        0.68600633548397
H           -2.27689426155722       -4.14781073215914       -0.91756210584883
H           -4.19333013088059       -5.73682393279534       -0.85134673002599
H           -6.44316084036162       -4.88795339141019       -0.29374792152674
H           -6.80037468841345       -2.55215437769645        0.21247565490364
H           -6.99909823510421       -0.69190560417738        0.78701610829479
H           -7.25810038326887        1.62908467795018        1.42758085493982
H           -5.31619332872745        3.16113614388167        1.39898397001532
H           -3.13246805957125        2.34339359110322        0.66122696951780
H            0.30196907300107        0.35859515722270        1.53333416365454
H            2.24972613610522        1.11559305231063        2.80249599957915
H            3.16927814393381        3.37735688729643        2.45001655723607
H            2.08629746760442        4.92076421719016        0.86480186890074

          :  Hamiltonian                  GFN2-xTB          :
         :: gradient norm              0.000068524822 Eh/a0 ::
         :: HOMO-LUMO gap              1.767193852010 eV    ::
         :: SCC energy              -112.634716600797 Eh    ::
         :: -> dispersion             -0.108732599273 Eh    ::
         :: repulsion energy           2.139513039841 Eh    ::

    * Orbital Energies and Occupations

         #    Occupation            Energy/Eh            Energy/eV
      -------------------------------------------------------------
         1        2.0000           -0.6949362             -18.9102
       ...           ...                  ...                  ...
        91        2.0000           -0.4214741             -11.4689
        92        2.0000           -0.4196196             -11.4184
        93        2.0000           -0.4159084             -11.3174
        94        2.0000           -0.4139236             -11.2634
        95        2.0000           -0.4117318             -11.2038
        96        2.0000           -0.4107994             -11.1784
        97        2.0000           -0.4065019             -11.0615
        98        2.0000           -0.3991885             -10.8625
        99        2.0000           -0.3979563             -10.8289
       100        2.0000           -0.3850075             -10.4766
       101        2.0000           -0.3833172             -10.4306
       102        2.0000           -0.3767992             -10.2532
       103        2.0000           -0.3651783              -9.9370 (HOMO)
       104                         -0.3002351              -8.1698 (LUMO)
       105                         -0.2863863              -7.7930
       106                         -0.2570961              -6.9959
       107                         -0.2551623              -6.9433
       108                         -0.2519937              -6.8571
       109                         -0.2485494              -6.7634
       110                         -0.2369294              -6.4472
       111                         -0.2275397              -6.1917
       112                         -0.2254221              -6.1340
       113                         -0.2116264              -5.7586
       114                         -0.2086483              -5.6776
       ...                                ...                  ...
       203                          1.1640726              31.6760
      -------------------------------------------------------------
                  HL-Gap            0.0649432 Eh            1.7672 eV

     #   Z          covCN         q      C6AA      α(0)
     1   7 N        0.911    -0.235    26.153     7.396
     2   6 C        1.913     0.114    28.294     8.590
     3   6 C        2.971     0.009    27.817     8.651
     4   6 C        2.926    -0.021    28.531     8.760
     5   6 C        2.918    -0.040    28.986     8.829
     6   6 C        2.909     0.068    26.470     8.436
     7   7 N        2.843    -0.045    22.116     6.985
     8   6 C        3.185     0.134    24.668     8.105
     9   6 C        2.972    -0.007    28.202     8.711
    10   6 C        2.920    -0.035    28.860     8.810
    11   6 C        2.919    -0.038    28.950     8.823
    12   6 C        2.983     0.012    27.744     8.640
    13   6 C        2.913    -0.036    28.885     8.813
    14   6 C        2.914    -0.034    28.854     8.808
    15   6 C        2.982     0.012    27.732     8.638
    16   6 C        2.920    -0.036    28.889     8.814
    17   6 C        2.913    -0.029    28.735     8.790
    18   6 C        2.920    -0.036    28.884     8.813
    19   6 C        2.982     0.013    27.726     8.637
    20   6 C        2.914    -0.034    28.855     8.808
    21   6 C        2.912    -0.035    28.873     8.811
    22   6 C        2.984     0.014    27.701     8.633
    23   6 C        2.996     0.004    27.933     8.670
    24   6 C        2.998     0.004    27.927     8.669
    25   7 N        1.893    -0.287    28.289     7.885
    26   6 C        3.207     0.057    26.138     8.325
    27   6 C        2.986     0.003    27.956     8.673
    28   6 C        2.921    -0.031    28.769     8.796
    29   6 C        2.917    -0.029    28.737     8.791
    30   6 C        2.917    -0.032    28.796     8.800
    31   6 C        2.922    -0.034    28.855     8.809
    32   6 C        2.979    -0.001    28.048     8.687
    33   6 C        2.980     0.002    27.965     8.674
    34   6 C        2.922    -0.033    28.824     8.804
    35   6 C        2.917    -0.032    28.806     8.801
    36   6 C        2.917    -0.031    28.773     8.796
    37   6 C        2.919    -0.039    28.970     8.826
    38   6 C        2.979    -0.002    28.076     8.692
    39   6 C        3.068     0.019    27.507     8.600
    40   6 C        2.986     0.004    27.929     8.669
    41   6 C        2.918    -0.028    28.708     8.786
    42   6 C        2.916    -0.024    28.607     8.771
    43   6 C        2.917    -0.023    28.570     8.765
    44   6 C        2.918    -0.031    28.772     8.796
    45   6 C        2.992     0.019    27.584     8.615
    46   1 H        0.926     0.048     2.346     2.395
    47   1 H        0.926     0.047     2.353     2.399
    48   1 H        0.926     0.024     2.674     2.557
    49   1 H        0.926     0.033     2.537     2.491
    50   1 H        0.926     0.034     2.537     2.491
    51   1 H        0.926     0.034     2.527     2.486
    52   1 H        0.926     0.033     2.545     2.495
    53   1 H        0.926     0.032     2.554     2.499
    54   1 H        0.926     0.033     2.537     2.491
    55   1 H        0.926     0.035     2.515     2.480
    56   1 H        0.926     0.050     2.324     2.384
    57   1 H        0.926     0.051     2.309     2.376
    58   1 H        0.926     0.031     2.566     2.505
    59   1 H        0.926     0.029     2.595     2.519
    60   1 H        0.926     0.032     2.563     2.504
    61   1 H        0.926     0.036     2.508     2.477
    62   1 H        0.926     0.030     2.580     2.512
    63   1 H        0.926     0.029     2.606     2.524
    64   1 H        0.926     0.022     2.696     2.568
    65   1 H        0.926     0.040     2.454     2.450
    66   1 H        0.926     0.040     2.449     2.447
    67   1 H        0.926     0.043     2.415     2.430
    68   1 H        0.926     0.047     2.363     2.404

molecular dipole:
                 x           y           z       tot (Debye)
 q only:        0.354      -0.630       0.532
   full:        0.051      -0.635       0.605       2.234

 projected vibrational frequencies (cm⁻¹)
eigval :       -0.00    -0.00    -0.00     0.00     0.00     0.00
eigval :        9.89    17.05    23.20    27.68    33.78    35.49
eigval :       68.62    76.46    83.98   102.33   110.87   113.62
eigval :      122.04   128.10   146.89   162.91   174.38   183.07
eigval :      196.69   203.83   213.11   235.69   246.00   259.68
eigval :      272.57   290.19   309.59   340.03   345.52   381.95
eigval :      391.39   398.61   402.12   404.10   414.11   422.66
eigval :      428.44   437.75   441.44   450.94   456.39   469.39
eigval :      472.57   477.68   487.77   497.44   504.84   510.42
eigval :      520.37   535.09   544.08   560.62   577.29   585.09
eigval :      588.38   595.85   609.26   612.65   639.83   647.56
eigval :      656.89   661.88   672.36   679.87   681.09   685.27
eigval :      693.63   700.96   704.42   729.95   734.62   740.28
eigval :      757.04   765.35   768.58   774.26   780.03   781.06
eigval :      783.12   802.14   819.64   830.01   837.35   844.28
eigval :      851.37   864.17   875.98   883.06   887.40   908.06
eigval :      913.24   915.41   915.94   918.51   920.74   922.39
eigval :      922.94   925.30   927.23   928.11   932.34   941.87
eigval :      996.24  1002.48  1021.03  1026.72  1076.07  1084.37
eigval :     1086.17  1103.51  1107.75  1112.27  1127.84  1150.47
eigval :     1157.60  1162.71  1171.87  1176.66  1179.33  1183.00
eigval :     1185.01  1186.95  1194.68  1198.59  1210.62  1213.23
eigval :     1225.06  1235.56  1237.79  1253.48  1254.18  1257.44
eigval :     1263.18  1283.20  1285.38  1306.54  1316.36  1326.29
eigval :     1328.62  1339.55  1344.90  1353.83  1360.49  1382.03
eigval :     1388.24  1389.37  1393.19  1407.99  1409.00  1413.48
eigval :     1418.58  1420.73  1430.78  1436.28  1450.43  1454.36
eigval :     1487.54  1493.62  1503.16  1515.16  1517.15  1538.97
eigval :     1552.52  1555.47  1562.66  1563.51  1567.45  1573.58
eigval :     1578.81  1594.94  1602.98  1605.00  1606.29  1607.61
eigval :     2365.52  3067.55  3070.64  3072.82  3073.37  3074.02
eigval :     3077.43  3077.83  3081.21  3084.39  3085.25  3085.49
eigval :     3086.73  3087.57  3088.27  3088.36  3096.51  3097.57
eigval :     3098.20  3102.75  3103.03  3103.27  3104.11  3111.68

   temp. (K)  partition function   enthalpy   heat capacity  entropy
                                   cal/mol     cal/K/mol   cal/K/mol   J/K/mol
 298.15  VIB  0.701E+14            18956.493    124.880    114.934
         ROT  0.516E+08              888.752      2.981     38.273
         INT  0.362E+22            19845.246    127.861    153.206
         TR   0.132E+29             1481.254      4.968     44.884
         TOT                       21326.4995   132.8291   198.0903   828.8097

       T/K    H(0)-H(T)+PV         H(T)/Eh          T*S/Eh         G(T)/Eh
   ------------------------------------------------------------------------
    298.15    0.339859E-01    0.542311E+00    0.941191E-01    0.448192E+00
   ------------------------------------------------------------------------

         :::::::::::::::::::::::::::::::::::::::::::::::::::::
         ::                  THERMODYNAMIC                  ::
         :::::::::::::::::::::::::::::::::::::::::::::::::::::
         :: total free energy        -110.047011545817 Eh   ::
         ::.................................................::
         :: total energy             -110.495203560953 Eh   ::
         :: zero point energy           0.508325155840 Eh   ::
         :: G(RRHO) w/o ZPVE           -0.060133140704 Eh   ::
         :: G(RRHO) contrib.            0.448192015136 Eh   ::
         :::::::::::::::::::::::::::::::::::::::::::::::::::::

           -------------------------------------------------
          | TOTAL ENERGY             -110.495203560953 Eh   |
          | TOTAL ENTHALPY           -109.952892464900 Eh   |
          | TOTAL FREE ENERGY        -110.047011545817 Eh   |
          | GRADIENT NORM               0.000068534604 Eh/α |
          | HOMO-LUMO GAP               1.767193961861 eV   |
           -------------------------------------------------

 * finished run on 2025/09/12 at 16:23:56.686
