   * xtb version 6.7.1 (edcfbbe) compiled by 'albert@albert-system' on 2024-07-22

   ID    Z sym.   atoms
    1    7 N      1, 7, 25
    2    6 C      2-6, 8-24, 26-45
    3    1 H      46-68

          program call               : xtb data2507/gas/PPINCN/PPINCN_gas_T1_crest.xyz --gfn 2 --spinpol --tblite --uhf 2 --ohess vtight --parallel 40 --molden --ceasefiles --namespace data2507/gas/PPINCN/PPINCN_gas_T1_finalOpt
 * total energy  :  -110.4308474 Eh     change       -0.1489275E-07 Eh
 * total energy  :  -110.4308862 Eh     change       -0.3876525E-04 Eh
 * total energy  :  -110.4309091 Eh     change       -0.2289849E-04 Eh
 * total energy  :  -110.4309129 Eh     change       -0.3784762E-05 Eh
 * total energy  :  -110.4309162 Eh     change       -0.3288798E-05 Eh
 * total energy  :  -110.4309191 Eh     change       -0.2899108E-05 Eh
 * total energy  :  -110.4309219 Eh     change       -0.2805126E-05 Eh
 * total energy  :  -110.4309256 Eh     change       -0.3780490E-05 Eh
 * total energy  :  -110.4309277 Eh     change       -0.2052167E-05 Eh
 * total energy  :  -110.4309292 Eh     change       -0.1527715E-05 Eh
 * total energy  :  -110.4309303 Eh     change       -0.1102224E-05 Eh
 * total energy  :  -110.4309309 Eh     change       -0.6162297E-06 Eh
 * total energy  :  -110.4309314 Eh     change       -0.5068961E-06 Eh
 * total energy  :  -110.4309318 Eh     change       -0.3690649E-06 Eh
 * total energy  :  -110.4309320 Eh     change       -0.1428788E-06 Eh
 * total energy  :  -110.4309320 Eh     change       -0.7398228E-08 Eh
   *** GEOMETRY OPTIMIZATION CONVERGED AFTER 16 ITERATIONS ***

 final structure:
================
68
 xtb: 6.7.1 (edcfbbe)
N            4.21512338624787        3.70917917212570       -1.28560901330543
C            3.25016640412265        3.10536121635723       -1.13401299208953
C            2.08299300361144        2.34085058495199       -0.94276255198250
C            1.88895909845454        1.19880301998982       -1.69793431024437
C            0.78738656488976        0.38570400105469       -1.46066617547419
C           -0.12661799912259        0.70073340467292       -0.47391345804540
N           -1.10836246755912       -0.24604372663881       -0.14939376110460
C           -0.82054797427070       -1.58062352875280        0.16923119890432
C            0.47019748059595       -2.15249917054708        0.24721109124715
C            0.61044824733276       -3.50160176542635       -0.16919499256594
C            1.81953465229799       -3.99657479995063       -0.54006724591676
C            2.99961662927923       -3.18194272139975       -0.49495128568697
C            4.22850286456009       -3.61299146887054       -0.99308418782035
C            5.35408606051516       -2.81331118733725       -0.90776393972945
C            5.30949010609477       -1.56820234967337       -0.25883430297887
C            6.44710646447569       -0.73830449242502       -0.12810568455636
C            6.36790943145020        0.47057553013292        0.53885873962119
C            5.18535990040158        0.88510327368246        1.11686707830167
C            4.01822311929630        0.09017777199496        1.01665770750519
C            2.81031450184996        0.43990549954985        1.63814372399578
C            1.66763333556207       -0.31475374625185        1.44589419075899
C            1.67114955242829       -1.42471241167914        0.60028677174351
C            2.91326728709268       -1.90821206508751        0.12378390134216
C            4.07901591505721       -1.12846549669866        0.29388968119502
N           -1.93974893480157       -2.28534004902482        0.32026551563169
C           -2.95482173149727       -1.43131221850487        0.13825926775900
C           -4.34949666186969       -1.69148139955007        0.26712056746089
C           -4.81149210792772       -2.95169346088475        0.65776261951850
C           -6.15726072585390       -3.17777801572711        0.81858278122056
C           -7.05489165148960       -2.13743290954568        0.59544154661686
C           -6.61018565709981       -0.89422619622161        0.20296541325157
C           -5.24680078891042       -0.62861803815387        0.01542396749973
C           -4.74904168097211        0.65847465227985       -0.44464701799445
C           -5.61646683392711        1.69611021311140       -0.80366090829564
C           -5.15565200760563        2.89925161048615       -1.28988818104196
C           -3.79081176224492        3.10605486598012       -1.46503556421350
C           -2.90408423032793        2.11859545026405       -1.11631188358510
C           -3.35068669263007        0.89916076530271       -0.57897544655560
C           -2.47520745901931       -0.14731220142786       -0.19438992715066
C            0.01386818311415        1.89305930919210        0.29238296028079
C           -0.87832763613362        2.24609831467584        1.32533588657608
C           -0.69025322116837        3.39043413858252        2.05329685373290
C            0.39518532192469        4.23173763384130        1.78359907260858
C            1.29276952603503        3.90452995981033        0.80203999860891
C            1.13148794946799        2.73056623238386        0.04274898688220
H            2.60878003565075        0.92519756898206       -2.45449441899491
H            0.65409264640540       -0.51758174821519       -2.03763813315124
H           -0.29224424736131       -4.08319156820991       -0.27633304363816
H            1.90858765450940       -5.00317309689261       -0.92057815735611
H            4.29463239416171       -4.58703006632449       -1.45663707532479
H            6.29060960778347       -3.15154999760554       -1.32672389803475
H            7.38238726033068       -1.06529846862634       -0.55766386689589
H            7.24622736190724        1.09425248485986        0.61730247258142
H            5.13311837246552        1.82244453635678        1.64967912797637
H            2.77546348737924        1.31785026887392        2.26696278831564
H            0.75484185921340       -0.03838140595258        1.95319213024549
H           -4.07980321045242       -3.72479844216117        0.83319528041887
H           -6.51869688076473       -4.14897545823741        1.12159772637193
H           -8.11354347869154       -2.30514442705048        0.73061647587572
H           -7.34339282283488       -0.11945959684692        0.04495984085478
H           -6.68198097414708        1.56039724065159       -0.71293121436454
H           -5.85718428730707        3.67647479321095       -1.55386044421159
H           -3.42999155367174        4.03597297344642       -1.87815871587931
H           -1.84989112130192        2.27061971121651       -1.28196205559773
H           -1.71601512408099        1.60182380416466        1.54678717859794
H           -1.38170312233172        3.64663859253679        2.84194050520765
H            0.52624084864907        5.13542288076458        2.35951529610784
H            2.14137352126393        4.54052692731598        0.59548064856980

 projected vibrational frequencies (cm⁻¹)
eigval :       -0.00    -0.00     0.00     0.00     0.00     0.00
eigval :       16.76    20.90    23.50    29.41    37.30    46.51
eigval :       72.40    81.56    87.58    98.06   109.24   121.53
eigval :      129.20   134.74   137.77   151.29   182.11   188.12
eigval :      192.83   204.64   215.24   232.60   253.48   258.10
eigval :      272.99   289.81   306.98   337.70   347.52   379.64
eigval :      389.68   391.75   398.92   401.27   408.24   417.46
eigval :      429.85   432.65   435.74   440.86   445.10   452.99
eigval :      461.71   468.63   483.74   493.34   504.11   507.81
eigval :      519.97   522.13   532.15   556.11   572.21   578.03
eigval :      584.61   587.69   595.64   609.82   622.18   636.64
eigval :      647.53   660.92   664.82   669.07   674.74   678.35
eigval :      681.18   696.89   706.50   725.44   733.36   734.26
eigval :      737.41   750.61   762.97   767.58   777.33   778.68
eigval :      780.73   781.89   801.18   814.84   823.46   827.94
eigval :      833.77   848.92   861.34   873.72   877.38   887.61
eigval :      898.13   906.33   906.73   909.02   913.59   915.58
eigval :      916.81   918.98   922.64   926.72   929.14   932.37
eigval :      982.20   998.99  1010.32  1027.89  1076.89  1085.18
eigval :     1087.69  1097.26  1106.70  1115.51  1121.89  1137.36
eigval :     1143.14  1148.13  1162.60  1164.18  1174.17  1180.62
eigval :     1181.81  1184.97  1190.78  1193.98  1195.19  1208.31
eigval :     1211.47  1225.63  1232.35  1235.47  1248.62  1255.50
eigval :     1257.85  1259.50  1282.86  1287.18  1307.81  1316.81
eigval :     1326.89  1329.07  1336.60  1337.39  1347.18  1354.98
eigval :     1361.73  1369.84  1381.91  1384.13  1389.66  1397.80
eigval :     1403.38  1407.53  1415.31  1428.96  1435.11  1445.07
eigval :     1450.93  1462.43  1489.73  1496.05  1498.76  1500.60
eigval :     1514.20  1517.20  1528.72  1530.56  1538.43  1543.33
eigval :     1552.25  1552.79  1561.13  1582.41  1594.06  1594.76
eigval :     2347.39  3071.26  3072.79  3076.26  3077.45  3080.64
eigval :     3081.45  3081.60  3083.46  3084.55  3085.15  3085.68
eigval :     3086.77  3088.06  3090.71  3092.83  3094.83  3098.04
eigval :     3099.01  3099.45  3100.23  3106.69  3111.93  3116.74

   temp. (K)  partition function   enthalpy   heat capacity  entropy
                                   cal/mol     cal/K/mol   cal/K/mol   J/K/mol
 298.15  VIB  0.227E+14            19079.102    126.728    114.788
         ROT  0.444E+08              888.752      2.981     37.976
         INT  0.101E+22            19967.854    129.709    152.764
         TR   0.132E+29             1481.254      4.968     44.884
         TOT                       21449.1079   134.6770   197.6473   826.9564

       T/K    H(0)-H(T)+PV         H(T)/Eh          T*S/Eh         G(T)/Eh
   ------------------------------------------------------------------------
    298.15    0.341813E-01    0.538950E+00    0.939086E-01    0.445041E+00
   ------------------------------------------------------------------------

         :::::::::::::::::::::::::::::::::::::::::::::::::::::
         ::                  THERMODYNAMIC                  ::
         :::::::::::::::::::::::::::::::::::::::::::::::::::::
         :: total free energy        -109.985890928239 Eh   ::
         ::.................................................::
         :: total energy             -110.430931929962 Eh   ::
         :: zero point energy           0.504768298076 Eh   ::
         :: G(RRHO) w/o ZPVE           -0.059727296353 Eh   ::
         :: G(RRHO) contrib.            0.445041001723 Eh   ::
         :::::::::::::::::::::::::::::::::::::::::::::::::::::

           -------------------------------------------------
          | TOTAL ENERGY             -110.430931929962 Eh   |
          | TOTAL ENTHALPY           -109.891982302698 Eh   |
          | TOTAL FREE ENERGY        -109.985890928239 Eh   |
          | GRADIENT NORM               0.000144833390 Eh/α |
           -------------------------------------------------

 * finished run on 2025/09/12 at 16:31:31.139
