   * xtb version 6.7.1 (edcfbbe) compiled by 'albert@albert-system' on 2024-07-22

   ID    Z sym.   atoms
    1    8 O      1
    2    6 C      2-12, 14-17, 19-35, 37-53
    3    7 N      13, 18, 36
    4    1 H      54-84

          program call               : xtb data2507/toluene/CCDC/CCDC_toluene_T1_crest.xyz --gfn 2 --uhf 2 --gbsa toluene --ohess vtight --parallel 40 --molden --ceasefiles --namespace data2507/toluene/CCDC/CCDC_toluene_T1_finalOpt
      * Solvation model:               GBSA
        Solvent                        toluene
        Solvent mass                       9.2140E+01 g/mol
          :  Hamiltonian                  GFN2-xTB          :
 * total energy  :  -133.6428631 Eh     change        0.4169465E-10 Eh
 * total energy  :  -133.6430547 Eh     change       -0.1916003E-03 Eh
 * total energy  :  -133.6431196 Eh     change       -0.6496550E-04 Eh
 * total energy  :  -133.6431278 Eh     change       -0.8197147E-05 Eh
 * total energy  :  -133.6431339 Eh     change       -0.6105275E-05 Eh
 * total energy  :  -133.6431377 Eh     change       -0.3799116E-05 Eh
 * total energy  :  -133.6431429 Eh     change       -0.5172857E-05 Eh
 * total energy  :  -133.6431442 Eh     change       -0.1303952E-05 Eh
 * total energy  :  -133.6431456 Eh     change       -0.1438493E-05 Eh
 * total energy  :  -133.6431471 Eh     change       -0.1434066E-05 Eh
 * total energy  :  -133.6431496 Eh     change       -0.1202278E-05 Eh
 * total energy  :  -133.6431501 Eh     change       -0.5528066E-06 Eh
 * total energy  :  -133.6431508 Eh     change       -0.6975596E-06 Eh
 * total energy  :  -133.6431512 Eh     change       -0.4301121E-06 Eh
 * total energy  :  -133.6431516 Eh     change       -0.4030691E-06 Eh
 * total energy  :  -133.6431521 Eh     change       -0.4887084E-06 Eh
 * total energy  :  -133.6431527 Eh     change       -0.5614085E-06 Eh
 * total energy  :  -133.6431533 Eh     change       -0.5786896E-06 Eh
 * total energy  :  -133.6431533 Eh     change       -0.1447796E-07 Eh
   *** GEOMETRY OPTIMIZATION CONVERGED AFTER 22 ITERATIONS ***

 final structure:
================
84
 xtb: 6.7.1 (edcfbbe)
O            6.91427780026604        3.62004802453601        0.78800410028849
C            6.66942060133715        2.49919037963099        0.24360793565998
C            7.76915766435873        1.73917895215609       -0.36542637347653
C            7.82662695025379        0.34088292429667       -0.32262421272445
C            8.89818990658826       -0.33176335302514       -0.87417253689369
C            9.93822946756424        0.36693962799836       -1.47099007153483
C            9.90832796503857        1.75428060596389       -1.48846569699165
C            8.84448931255911        2.43383504606999       -0.93347393046231
C            5.32671497112481        1.98189302182555        0.19878572165981
C            4.34788119652769        2.55513928595663        1.04890494564959
C            3.05081900839941        2.12299556682435        1.03776134465469
C            2.64981723676729        1.10652061130235        0.15547119951209
N            1.32502362529077        0.65969574109204        0.13716062013940
C            0.91790311855619       -0.65398733399840        0.15610908473080
C            1.67250736393416       -1.81843962729044        0.23685463119943
C            1.00939972222945       -3.02767216216897        0.25568046758462
C           -0.39293737261869       -3.09237080797852        0.19798881948183
N           -1.02867088992131       -4.33569560798691        0.19904141933987
C           -0.76908782432624       -5.38285581554187        1.06302642751030
C            0.09425719332332       -5.44073441586981        2.14918655168356
C            0.13628666875775       -6.61535349962880        2.87822674322219
C           -0.66628867337213       -7.70454860744317        2.54853666030730
C           -1.55082148130333       -7.64178103087146        1.48638748649869
C           -1.60953599941141       -6.47413355871044        0.74052582667504
C           -2.40994259816892       -6.05652725073128       -0.38096376834341
C           -3.38428497266929       -6.68388203831975       -1.14290283763289
C           -3.95487371251276       -5.98561042781772       -2.19242041460127
C           -3.54905885323795       -4.68841126347988       -2.49502142726489
C           -2.57684037673830       -4.04445355329926       -1.75143013466862
C           -2.02252764362353       -4.72899714349133       -0.67784240593537
C           -1.15647222939607       -1.92834164713952        0.14661917282459
C           -0.50298434078808       -0.70832430863769        0.13454186628208
C           -0.95814414267081        0.65188009288472        0.10566535380686
C           -2.21373495046181        1.23357788433389        0.07297264814904
C           -2.30205994295860        2.62278262076251        0.01590821590403
N           -3.55535575539610        3.23683102746545       -0.01283095751803
C           -3.95227653874124        4.30297112827621        0.77276279433596
C           -3.26455213853287        4.96138939684924        1.78362112615552
C           -3.91607125364183        5.98557391328752        2.44656631296514
C           -5.22293030905977        6.34343317094275        2.12551508016798
C           -5.92343056392429        5.67160795619677        1.13924599310817
C           -5.28952190326604        4.64191146794060        0.46030889507684
C           -5.71034197944174        3.73328337111792       -0.57431612798826
C           -6.88777104654350        3.58728264963812       -1.29229151537963
C           -6.95412111066401        2.60108727091825       -2.26069053481053
C           -5.85865705108371        1.78405096855921       -2.52752702383752
C           -4.67323730049987        1.91430476703767       -1.82682600054188
C           -4.61109460349142        2.88114935745853       -0.83185765767420
C           -1.14119488160380        3.41415459789548       -0.02512435317343
C            0.11493681239070        2.84690865427321        0.01195542168389
C            0.20994050992946        1.46278816534681        0.09974784975670
C            3.59384395286002        0.56391185215551       -0.73066191517604
C            4.89291284142788        0.99741654235346       -0.71993145517132
H            7.04325384015871       -0.21117481024080        0.17623944639549
H            8.93003153860534       -1.41154344803455       -0.83007964368459
H           10.77185370734096       -0.16479630551551       -1.90565968775439
H           10.72154464318190        2.30794828594907       -1.93666117861707
H            8.81345347051779        3.51453923269185       -0.93557197645331
H            4.67179701143471        3.32967661431229        1.72913554455344
H            2.33453248371830        2.53440811293735        1.73411411987722
H            2.74942004687279       -1.78219211183676        0.27966183397401
H            1.57351907592184       -3.94653397094196        0.28661554879828
H            0.70463351610440       -4.59565964814715        2.42793691164185
H            0.80283311530756       -6.68690076320805        3.72490778932669
H           -0.60293662164268       -8.60581720454183        3.13996558678472
H           -2.18723254035859       -8.47954248910849        1.24535406847790
H           -3.68561303663648       -7.69662763328221       -0.92270727257332
H           -4.71820957972249       -6.45467123615436       -2.79516708193691
H           -3.99960846601441       -4.17535926754157       -3.33161643517573
H           -2.25287664703700       -3.04830783030590       -2.01023996298577
H           -2.23366861031526       -1.98173693517791        0.15336527802744
H           -3.10657096311789        0.63059574107096        0.12126627372316
H           -2.25907863152775        4.67961195457675        2.05533975058953
H           -3.40042929257872        6.51577157462318        3.23349532017755
H           -5.69703126968243        7.15055588264608        2.66382627497080
H           -6.94334299875910        5.93696717811536        0.90623105758479
H           -7.73039927638203        4.23416719629207       -1.10163814073134
H           -7.86314102526384        2.46893836959580       -2.82831667377860
H           -5.93366715291180        1.03641614420180       -3.30311379968633
H           -3.82217640468664        1.29372157692916       -2.06100080137554
H           -1.24259736218410        4.48365304096135       -0.12272426453673
H            0.99879012914455        3.46191258900593       -0.05301773036170
H            3.27462137877545       -0.16767837964448       -1.45898319966875
H            5.58725887452060        0.61121127505715       -1.45054000279733

          :  Hamiltonian                  GFN2-xTB          :
         :: gradient norm              0.000095922977 Eh/a0 ::
         :: HOMO-LUMO gap              0.291158199683 eV    ::
         :: SCC energy              -136.101642885998 Eh    ::
         :: -> dispersion             -0.118118954943 Eh    ::
         :: -> Gsolv                  -0.070337363857 Eh    ::
         :: repulsion energy           2.458489600140 Eh    ::

    * Orbital Energies and Occupations

         #    Occupation            Energy/Eh            Energy/eV
      -------------------------------------------------------------
         1        2.0000           -0.6959306             -18.9372
       ...           ...                  ...                  ...
       113        2.0000           -0.4152204             -11.2987
       114        2.0000           -0.4062533             -11.0547
       115        2.0000           -0.4049296             -11.0187
       116        2.0000           -0.4010502             -10.9131
       117        2.0000           -0.3975109             -10.8168
       118        2.0000           -0.3938014             -10.7159
       119        2.0000           -0.3893294             -10.5942
       120        2.0000           -0.3890581             -10.5868
       121        2.0000           -0.3851119             -10.4794
       122        1.9998           -0.3738068             -10.1718
       123        1.8233           -0.3672827              -9.9943
       124        1.1770           -0.3643608              -9.9148
       125        0.9964           -0.2761952              -7.5157 (HOMO)
       126        0.0036           -0.2654956              -7.2245 (LUMO)
       127        0.0000           -0.2564355              -6.9780
       128                         -0.2548222              -6.9341
       129                         -0.2465081              -6.7078
       130                         -0.2329753              -6.3396
       131                         -0.2326958              -6.3320
       132                         -0.2319388              -6.3114
       133                         -0.2199380              -5.9848
       134                         -0.2176719              -5.9232
       135                         -0.2148551              -5.8465
       136                         -0.2125858              -5.7848
       ...                                ...                  ...
       243                          0.7338164              19.9682
      -------------------------------------------------------------
                  HL-Gap            0.0106996 Eh            0.2912 eV

     #   Z          covCN         q      C6AA      α(0)
     1   8 O        0.857    -0.514    24.103     6.582
     2   6 C        2.833     0.167    24.398     8.094
     3   6 C        2.970    -0.013    28.330     8.731
     4   6 C        2.920    -0.040    28.989     8.829
     5   6 C        2.917    -0.033    28.832     8.805
     6   6 C        2.919    -0.040    28.992     8.830
     7   6 C        2.917    -0.033    28.830     8.805
     8   6 C        2.924    -0.029    28.735     8.791
     9   6 C        2.966    -0.023    28.565     8.767
    10   6 C        2.922    -0.032    28.806     8.802
    11   6 C        2.914    -0.045    29.108     8.847
    12   6 C        2.912     0.032    27.281     8.565
    13   7 N        2.799     0.005    21.169     6.833
    14   6 C        3.078     0.042    26.974     8.515
    15   6 C        2.908    -0.038    28.955     8.823
    16   6 C        2.924    -0.047    29.171     8.857
    17   6 C        2.913     0.058    26.694     8.472
    18   7 N        2.802    -0.017    21.569     6.898
    19   6 C        3.070     0.046    26.900     8.504
    20   6 C        2.909    -0.045    29.124     8.849
    21   6 C        2.923    -0.031    28.783     8.798
    22   6 C        2.920    -0.035    28.875     8.812
    23   6 C        2.912    -0.030    28.757     8.793
    24   6 C        3.065    -0.012    28.255     8.716
    25   6 C        3.065    -0.012    28.250     8.716
    26   6 C        2.912    -0.030    28.753     8.793
    27   6 C        2.920    -0.035    28.876     8.812
    28   6 C        2.923    -0.031    28.785     8.798
    29   6 C        2.909    -0.045    29.129     8.850
    30   6 C        3.071     0.046    26.904     8.505
    31   6 C        2.914    -0.042    29.048     8.838
    32   6 C        3.063    -0.011    28.226     8.712
    33   6 C        3.063    -0.011    28.227     8.712
    34   6 C        2.913    -0.042    29.051     8.838
    35   6 C        2.913     0.058    26.690     8.472
    36   7 N        2.802    -0.016    21.552     6.895
    37   6 C        3.070     0.046    26.901     8.504
    38   6 C        2.909    -0.045    29.115     8.848
    39   6 C        2.923    -0.031    28.779     8.797
    40   6 C        2.920    -0.035    28.868     8.811
    41   6 C        2.912    -0.030    28.753     8.793
    42   6 C        3.065    -0.012    28.249     8.716
    43   6 C        3.065    -0.012    28.243     8.715
    44   6 C        2.912    -0.030    28.749     8.792
    45   6 C        2.920    -0.035    28.869     8.811
    46   6 C        2.923    -0.031    28.782     8.798
    47   6 C        2.909    -0.045    29.124     8.849
    48   6 C        3.070     0.046    26.907     8.505
    49   6 C        2.924    -0.047    29.162     8.856
    50   6 C        2.908    -0.038    28.945     8.822
    51   6 C        3.079     0.042    26.965     8.513
    52   6 C        2.915    -0.045    29.106     8.847
    53   6 C        2.916    -0.044    29.084     8.843
    54   1 H        0.926     0.029     2.604     2.523
    55   1 H        0.926     0.030     2.582     2.513
    56   1 H        0.926     0.029     2.603     2.523
    57   1 H        0.926     0.027     2.633     2.538
    58   1 H        0.926     0.023     2.684     2.562
    59   1 H        0.926     0.031     2.578     2.511
    60   1 H        0.926     0.037     2.485     2.465
    61   1 H        0.926     0.051     2.307     2.375
    62   1 H        0.926     0.052     2.292     2.367
    63   1 H        0.926     0.040     2.444     2.445
    64   1 H        0.926     0.038     2.474     2.460
    65   1 H        0.926     0.037     2.489     2.467
    66   1 H        0.926     0.040     2.450     2.448
    67   1 H        0.926     0.040     2.455     2.450
    68   1 H        0.926     0.037     2.484     2.465
    69   1 H        0.926     0.040     2.454     2.450
    70   1 H        0.926     0.041     2.431     2.438
    71   1 H        0.926     0.057     2.231     2.336
    72   1 H        0.926     0.058     2.223     2.332
    73   1 H        0.926     0.040     2.445     2.445
    74   1 H        0.926     0.038     2.471     2.458
    75   1 H        0.926     0.037     2.483     2.464
    76   1 H        0.926     0.040     2.443     2.444
    77   1 H        0.926     0.040     2.449     2.447
    78   1 H        0.926     0.038     2.477     2.461
    79   1 H        0.926     0.040     2.447     2.446
    80   1 H        0.926     0.042     2.424     2.435
    81   1 H        0.926     0.052     2.297     2.370
    82   1 H        0.926     0.050     2.315     2.379
    83   1 H        0.926     0.038     2.473     2.459
    84   1 H        0.926     0.033     2.550     2.497

molecular dipole:
                 x           y           z       tot (Debye)
 q only:       -7.032      -3.182      -0.587
   full:       -6.765      -3.109      -0.593      18.982

 projected vibrational frequencies (cm⁻¹)
eigval :       -0.00    -0.00     0.00     0.00     0.00     0.00
eigval :        8.14    14.23    16.03    17.15    21.26    24.04
eigval :       38.69    44.63    46.51    61.01    66.57    85.34
eigval :       97.01   102.31   111.29   115.26   117.20   128.31
eigval :      130.79   142.61   149.64   165.70   174.72   202.80
eigval :      208.90   221.14   224.91   254.99   264.67   269.07
eigval :      271.92   276.05   284.08   309.89   318.19   331.07
eigval :      351.39   368.56   373.31   378.34   387.14   392.55
eigval :      395.52   399.50   401.49   418.24   419.66   426.94
eigval :      432.34   435.90   438.64   461.50   465.91   490.84
eigval :      514.83   515.29   530.47   532.25   535.89   537.00
eigval :      537.63   545.48   558.83   560.72   569.61   583.17
eigval :      585.00   586.93   594.87   606.68   608.36   617.31
eigval :      628.46   643.44   650.39   659.06   666.31   673.33
eigval :      674.48   681.31   700.29   705.52   706.43   710.31
eigval :      713.10   741.99   752.94   753.60   755.10   765.79
eigval :      766.94   775.63   776.59   802.99   812.32   825.42
eigval :      829.69   846.18   861.13   861.76   868.08   869.84
eigval :      872.01   878.76   880.29   883.32   887.16   891.94
eigval :      896.45   897.23   899.88   901.90   903.36   905.70
eigval :      907.05   910.15   916.43   920.21   920.76   921.68
eigval :      921.93   923.90   925.32   929.83   937.49   955.38
eigval :      980.30   990.82  1000.15  1010.46  1011.56  1026.26
eigval :     1067.45  1068.18  1071.18  1071.47  1077.45  1101.18
eigval :     1109.46  1116.94  1125.60  1133.85  1138.65  1143.94
eigval :     1145.89  1165.65  1167.65  1167.94  1171.38  1175.88
eigval :     1176.47  1177.81  1179.61  1182.20  1185.63  1208.23
eigval :     1216.21  1221.78  1226.84  1228.53  1232.13  1237.34
eigval :     1248.40  1257.15  1258.07  1271.73  1278.24  1285.03
eigval :     1285.87  1290.60  1291.03  1323.54  1324.77  1328.25
eigval :     1339.16  1342.31  1345.51  1348.09  1353.20  1356.41
eigval :     1358.36  1376.85  1387.78  1406.49  1413.27  1414.15
eigval :     1415.45  1420.91  1424.64  1429.76  1432.08  1447.45
eigval :     1448.62  1454.17  1458.76  1460.94  1464.79  1480.00
eigval :     1480.26  1480.63  1532.06  1537.80  1545.97  1549.59
eigval :     1554.26  1562.26  1568.55  1568.92  1581.09  1581.57
eigval :     1581.99  1582.25  1586.82  1600.28  1602.99  3061.27
eigval :     3062.09  3071.05  3073.10  3073.66  3076.16  3078.42
eigval :     3079.55  3079.95  3079.96  3083.72  3084.58  3084.77
eigval :     3085.31  3085.93  3086.24  3090.02  3092.89  3093.22
eigval :     3093.87  3094.22  3096.95  3098.39  3098.70  3098.81
eigval :     3099.62  3100.38  3102.83  3105.51  3107.72  3109.79

   temp. (K)  partition function   enthalpy   heat capacity  entropy
                                   cal/mol     cal/K/mol   cal/K/mol   J/K/mol
 298.15  VIB  0.340E+19            23837.324    153.633    147.018
         ROT  0.160E+09              888.752      2.981     40.515
         INT  0.542E+27            24726.076    156.614    187.533
         TR   0.171E+29             1481.254      4.968     45.402
         TOT                       26207.3302   161.5820   232.9348   974.5991

       T/K    H(0)-H(T)+PV         H(T)/Eh          T*S/Eh         G(T)/Eh
   ------------------------------------------------------------------------
    298.15    0.417640E-01    0.678058E+00    0.110675E+00    0.567383E+00
   ------------------------------------------------------------------------

         :::::::::::::::::::::::::::::::::::::::::::::::::::::
         ::                  THERMODYNAMIC                  ::
         :::::::::::::::::::::::::::::::::::::::::::::::::::::
         :: total free energy        -133.075770242047 Eh   ::
         ::.................................................::
         :: total energy             -133.643153291138 Eh   ::
         :: zero point energy           0.636293835325 Eh   ::
         :: G(RRHO) w/o ZPVE           -0.068910786234 Eh   ::
         :: G(RRHO) contrib.            0.567383049091 Eh   ::
         :::::::::::::::::::::::::::::::::::::::::::::::::::::

           -------------------------------------------------
          | TOTAL ENERGY             -133.643153291138 Eh   |
          | TOTAL ENTHALPY           -132.965095416809 Eh   |
          | TOTAL FREE ENERGY        -133.075770242047 Eh   |
          | GRADIENT NORM               0.000092656055 Eh/α |
          | HOMO-LUMO GAP               0.291150653208 eV   |
           -------------------------------------------------

 * finished run on 2025/09/14 at 06:00:47.185
