   * xtb version 6.7.1 (edcfbbe) compiled by 'albert@albert-system' on 2024-07-22

   ID    Z sym.   atoms
    1    8 O      1
    2    6 C      2-12, 14-17, 19-35, 37-53
    3    7 N      13, 18, 36
    4    1 H      54-84

          program call               : xtb data2507/toluene/CCDC/CCDC.xyz --gfn 2 --gbsa toluene --ohess vtight --parallel 40 --molden --ceasefiles --namespace data2507/toluene/CCDC/CCDC_toluene_S0_preOpt
      * Solvation model:               GBSA
        Solvent                        toluene
        Solvent mass                       9.2140E+01 g/mol
          :  Hamiltonian                  GFN2-xTB          :
 * total energy  :  -133.7014211 Eh     change       -0.4885607E-08 Eh
 * total energy  :  -133.7176518 Eh     change       -0.1623066E-01 Eh
 * total energy  :  -133.7212914 Eh     change       -0.3639621E-02 Eh
 * total energy  :  -133.7220946 Eh     change       -0.8031242E-03 Eh
 * total energy  :  -133.7227702 Eh     change       -0.6756495E-03 Eh
 * total energy  :  -133.7229862 Eh     change       -0.2159569E-03 Eh
 * total energy  :  -133.7231487 Eh     change       -0.1625512E-03 Eh
 * total energy  :  -133.7232996 Eh     change       -0.1508489E-03 Eh
 * total energy  :  -133.7233981 Eh     change       -0.9852663E-04 Eh
 * total energy  :  -133.7235149 Eh     change       -0.1167949E-03 Eh
 * total energy  :  -133.7242872 Eh     change       -0.4364580E-06 Eh
 * total energy  :  -133.7242872 Eh     change        0.6326783E-07 Eh
 * total energy  :  -133.7242875 Eh     change       -0.2897217E-06 Eh
 * total energy  :  -133.7242874 Eh     change        0.2870033E-07 Eh
 * total energy  :  -133.7242876 Eh     change       -0.1528591E-06 Eh
 * total energy  :  -133.7242876 Eh     change        0.2909294E-07 Eh
 * total energy  :  -133.7242877 Eh     change       -0.1574338E-06 Eh
 * total energy  :  -133.7242878 Eh     change       -0.1118470E-06 Eh
 * total energy  :  -133.7242879 Eh     change       -0.9370342E-07 Eh
   *** GEOMETRY OPTIMIZATION CONVERGED AFTER 57 ITERATIONS ***

 final structure:
================
84
 xtb: 6.7.1 (edcfbbe)
O            7.39475450837960       -1.37234273332882       -2.45805744291883
C            6.99290457002198       -1.03789199871610       -1.35306649727045
C            7.92887030610745       -0.81331623237463       -0.22550213879337
C            7.59000908636465       -1.14711121707134        1.08541521932023
C            8.50512843086213       -0.95948212723798        2.10516330841054
C            9.75702809240190       -0.43056524813934        1.83169606061987
C           10.10399797059797       -0.10592679879876        0.52928317030630
C            9.19976144017526       -0.30749247842809       -0.49613336262500
C            5.54844027361549       -0.83991472373877       -1.08693690234349
C            5.08963083867987        0.10639023713671       -0.17040681689478
C            3.73570150685629        0.29152338534905        0.02260215350404
C            2.81283006771864       -0.46879697961534       -0.69492644417152
N            1.44051782285346       -0.28304241909766       -0.49536703482581
C            0.51191969533862       -1.28234909182399       -0.27618611831984
C            0.69659974737873       -2.65152643999550       -0.13685160182362
C           -0.41107766756562       -3.43418464306249        0.11673274971554
C           -1.69130497389467       -2.87639479609886        0.22592613824978
N           -2.79055964474486       -3.71770902714909        0.47160114241090
C           -3.71295913748869       -3.56785276551157        1.48683118718808
C           -3.77115854964261       -2.61663742533129        2.49629923454780
C           -4.80253810401025       -2.70811757429473        3.41121332731553
C           -5.75446017955330       -3.72350795995707        3.33615457557937
C           -5.69068372559122       -4.68432797916354        2.34663479428927
C           -4.66294088074690       -4.61373877696352        1.41448904093898
C           -4.28859179207496       -5.42696857512837        0.29158744515933
C           -4.82987146283352       -6.56821358229300       -0.28693049721789
C           -4.21607719002862       -7.09942436661200       -1.40390488281612
C           -3.08401278305889       -6.49953753686031       -1.95305685227344
C           -2.52677645939690       -5.36463223089771       -1.39573347561290
C           -3.12652322902110       -4.83811453095030       -0.25982103063540
C           -1.87828466820522       -1.50688848037784        0.10976882392652
C           -0.77092820874733       -0.70590376384202       -0.12874013781677
C           -0.60008850683858        0.71268386804066       -0.27557204441359
C           -1.48443053553018        1.78122320637268       -0.24383901191303
C           -0.98755855771548        3.05725718156793       -0.46403879600193
N           -1.85600717251396        4.16279784451109       -0.44921876168567
C           -3.01430363933353        4.28895536026651       -1.18812341367055
C           -3.57431621821179        3.41522380337367       -2.11008978792303
C           -4.74421129639141        3.80026254635763       -2.73633868360593
C           -5.34669191828519        5.02701679878689       -2.46250147730334
C           -4.78389097113472        5.90908358734711       -1.56159957380082
C           -3.60698083550272        5.54511258883103       -0.91919146146632
C           -2.75626956144191        6.20079515158217        0.03422992714660
C           -2.81061003485716        7.42948543717465        0.68041959555434
C           -1.81062372515526        7.75144060582289        1.57647524790376
C           -0.77164030084712        6.86086958603928        1.84138208454587
C           -0.69525651337510        5.63355135636164        1.21141710012896
C           -1.68628154123089        5.31249895610514        0.29381249624778
C            0.37451652914059        3.25894020226222       -0.72077805862525
C            1.26804201967648        2.20778190674816       -0.73818325456650
C            0.77937948213995        0.93036278506639       -0.49810135414068
C            3.26658290458184       -1.40892618346284       -1.61978793605108
C            4.61993231281768       -1.58226745723948       -1.81753397083918
H            6.62182886972010       -1.57563998726556        1.29824133632619
H            8.24133837096244       -1.22686508946571        3.11775292034000
H           10.46537333807514       -0.27861249747401        2.63260735139110
H           11.08151470812316        0.29892851614098        0.31315240719036
H            9.45530060985116       -0.06789355049969       -1.51841398489936
H            5.79584906867175        0.70897618494943        0.38040988731079
H            3.38487686283085        1.01473845517433        0.74280182544543
H            1.67699036770555       -3.09665294129845       -0.20314497311099
H           -0.29615426328265       -4.49960877991191        0.24719342711020
H           -3.03095445336869       -1.83424024880018        2.57161962455779
H           -4.87144547484623       -1.97775533446491        4.20452987782829
H           -6.54749676639941       -3.75915828791925        4.06892350609145
H           -6.42066952081274       -5.47868306217417        2.29689472187387
H           -5.71555454589131       -7.02512982201142        0.12926030407262
H           -4.62015629901625       -7.98781321057388       -1.86717821741463
H           -2.63468344403357       -6.93012946144765       -2.83637490030957
H           -1.65849847636684       -4.89822589901591       -1.83663684392962
H           -2.86465915849171       -1.07874071423986        0.19789806259861
H           -2.53475910681804        1.62746438668034       -0.05088473848128
H           -3.10723935000172        2.46929667306463       -2.34006953267547
H           -5.20116573640767        3.13704576085046       -3.45664439488718
H           -6.26265511056610        5.29044401518453       -2.97113945814516
H           -5.24405715650266        6.86525904169040       -1.36053616302023
H           -3.62229146023452        8.11474444208205        0.48550440525130
H           -1.83369055952302        8.70295594053789        2.08747677574034
H           -0.01076529590456        7.13594073371985        2.55749529612921
H            0.10600157187289        4.94461260582867        1.43273067713797
H            0.72142072229698        4.26106556869678       -0.92265853154827
H            2.31044740071686        2.37997616742893       -0.95592167580896
H            2.55429079740582       -1.97978577704055       -2.19566208810052
H            4.98302386950040       -2.29666707996911       -2.54184190470846

          :  Hamiltonian                  GFN2-xTB          :
         :: gradient norm              0.000052399893 Eh/a0 ::
         :: HOMO-LUMO gap              1.681618159061 eV    ::
         :: SCC energy              -136.198414160097 Eh    ::
         :: -> dispersion             -0.117906758048 Eh    ::
         :: -> Gsolv                  -0.058746197956 Eh    ::
         :: repulsion energy           2.474126243274 Eh    ::

    * Orbital Energies and Occupations

         #    Occupation            Energy/Eh            Energy/eV
      -------------------------------------------------------------
         1        2.0000           -0.7124266             -19.3861
       ...           ...                  ...                  ...
       112        2.0000           -0.4173705             -11.3572
       113        2.0000           -0.4171135             -11.3502
       114        2.0000           -0.4164552             -11.3323
       115        2.0000           -0.4153286             -11.3017
       116        2.0000           -0.4040892             -10.9958
       117        2.0000           -0.4040109             -10.9937
       118        2.0000           -0.3972758             -10.8104
       119        2.0000           -0.3927519             -10.6873
       120        2.0000           -0.3815946             -10.3837
       121        2.0000           -0.3773276             -10.2676
       122        2.0000           -0.3773009             -10.2669
       123        2.0000           -0.3614530              -9.8356
       124        2.0000           -0.3566965              -9.7062 (HOMO)
       125                         -0.2948981              -8.0246 (LUMO)
       126                         -0.2589539              -7.0465
       127                         -0.2459039              -6.6914
       128                         -0.2453440              -6.6761
       129                         -0.2440556              -6.6411
       130                         -0.2431819              -6.6173
       131                         -0.2363413              -6.4312
       132                         -0.2352138              -6.4005
       133                         -0.2207818              -6.0078
       134                         -0.2207421              -6.0067
       135                         -0.2151334              -5.8541
       ...                                ...                  ...
       243                          0.7457757              20.2936
      -------------------------------------------------------------
                  HL-Gap            0.0617983 Eh            1.6816 eV

     #   Z          covCN         q      C6AA      α(0)
     1   8 O        0.858    -0.420    22.086     6.301
     2   6 C        2.829     0.227    23.228     7.897
     3   6 C        2.972    -0.013    28.343     8.733
     4   6 C        2.921    -0.026    28.651     8.778
     5   6 C        2.918    -0.026    28.650     8.777
     6   6 C        2.920    -0.021    28.537     8.760
     7   6 C        2.917    -0.026    28.643     8.776
     8   6 C        2.924    -0.017    28.436     8.745
     9   6 C        2.971    -0.016    28.395     8.741
    10   6 C        2.920    -0.024    28.595     8.769
    11   6 C        2.920    -0.041    29.011     8.833
    12   6 C        2.913     0.070    26.435     8.431
    13   7 N        2.801    -0.028    21.792     6.933
    14   6 C        3.074     0.043    26.958     8.513
    15   6 C        2.909    -0.048    29.196     8.860
    16   6 C        2.926    -0.044    29.101     8.847
    17   6 C        2.912     0.055    26.771     8.484
    18   7 N        2.803    -0.046    22.130     6.987
    19   6 C        3.076     0.047    26.864     8.498
    20   6 C        2.909    -0.052    29.301     8.876
    21   6 C        2.924    -0.035    28.882     8.813
    22   6 C        2.919    -0.043    29.075     8.842
    23   6 C        2.912    -0.035    28.877     8.812
    24   6 C        3.068    -0.019    28.421     8.742
    25   6 C        3.067    -0.019    28.421     8.742
    26   6 C        2.912    -0.035    28.876     8.812
    27   6 C        2.919    -0.043    29.077     8.843
    28   6 C        2.924    -0.036    28.885     8.814
    29   6 C        2.909    -0.052    29.302     8.876
    30   6 C        3.077     0.047    26.865     8.498
    31   6 C        2.915    -0.045    29.128     8.850
    32   6 C        3.067    -0.013    28.278     8.720
    33   6 C        3.067    -0.013    28.277     8.720
    34   6 C        2.915    -0.045    29.126     8.850
    35   6 C        2.912     0.055    26.771     8.484
    36   7 N        2.803    -0.046    22.132     6.987
    37   6 C        3.077     0.047    26.863     8.498
    38   6 C        2.909    -0.052    29.300     8.876
    39   6 C        2.924    -0.035    28.881     8.813
    40   6 C        2.919    -0.043    29.076     8.842
    41   6 C        2.912    -0.035    28.877     8.812
    42   6 C        3.068    -0.019    28.422     8.742
    43   6 C        3.067    -0.019    28.421     8.742
    44   6 C        2.912    -0.035    28.876     8.812
    45   6 C        2.919    -0.043    29.078     8.843
    46   6 C        2.924    -0.036    28.886     8.814
    47   6 C        2.909    -0.052    29.303     8.876
    48   6 C        3.077     0.047    26.864     8.498
    49   6 C        2.926    -0.044    29.099     8.846
    50   6 C        2.909    -0.048    29.198     8.860
    51   6 C        3.074     0.043    26.957     8.513
    52   6 C        2.919    -0.040    28.992     8.830
    53   6 C        2.924    -0.015    28.393     8.738
    54   1 H        0.926     0.044     2.392     2.418
    55   1 H        0.926     0.047     2.356     2.400
    56   1 H        0.926     0.047     2.355     2.400
    57   1 H        0.926     0.045     2.384     2.414
    58   1 H        0.926     0.044     2.398     2.422
    59   1 H        0.926     0.054     2.275     2.359
    60   1 H        0.926     0.057     2.230     2.335
    61   1 H        0.926     0.044     2.397     2.421
    62   1 H        0.926     0.045     2.379     2.412
    63   1 H        0.926     0.030     2.593     2.518
    64   1 H        0.926     0.029     2.602     2.522
    65   1 H        0.926     0.026     2.638     2.540
    66   1 H        0.926     0.029     2.605     2.524
    67   1 H        0.926     0.029     2.606     2.524
    68   1 H        0.926     0.026     2.639     2.540
    69   1 H        0.926     0.029     2.602     2.523
    70   1 H        0.926     0.029     2.595     2.519
    71   1 H        0.926     0.045     2.379     2.412
    72   1 H        0.926     0.045     2.379     2.412
    73   1 H        0.926     0.029     2.598     2.521
    74   1 H        0.926     0.029     2.605     2.524
    75   1 H        0.926     0.026     2.639     2.541
    76   1 H        0.926     0.029     2.604     2.524
    77   1 H        0.926     0.029     2.607     2.525
    78   1 H        0.926     0.026     2.638     2.540
    79   1 H        0.926     0.029     2.598     2.521
    80   1 H        0.926     0.030     2.590     2.517
    81   1 H        0.926     0.045     2.380     2.412
    82   1 H        0.926     0.044     2.394     2.420
    83   1 H        0.926     0.055     2.257     2.349
    84   1 H        0.926     0.054     2.276     2.359

molecular dipole:
                 x           y           z       tot (Debye)
 q only:        1.032       0.250       1.308
   full:        1.110       0.247       1.318       4.426

 projected vibrational frequencies (cm⁻¹)
eigval :       -0.00    -0.00     0.00     0.00     0.00     0.00
eigval :        8.77    14.40    16.31    17.84    20.92    24.50
eigval :       34.77    39.04    42.36    51.25    69.61    86.17
eigval :       92.20   102.31   104.90   114.27   116.91   125.56
eigval :      131.23   143.58   145.68   156.88   172.21   187.68
eigval :      206.77   213.40   230.37   248.38   266.79   271.10
eigval :      271.45   275.21   279.23   297.39   338.14   343.78
eigval :      350.58   367.15   370.89   374.95   382.50   392.95
eigval :      395.98   401.32   407.22   422.73   423.49   427.29
eigval :      434.28   436.89   445.40   468.55   480.00   491.52
eigval :      517.63   518.06   528.75   530.67   538.76   540.71
eigval :      541.19   549.52   561.82   564.26   585.52   586.30
eigval :      589.47   593.26   602.37   616.23   622.07   636.18
eigval :      644.57   647.96   663.43   673.30   673.62   675.70
eigval :      682.26   702.61   704.69   707.31   708.29   711.85
eigval :      719.93   752.61   754.72   756.22   765.61   767.92
eigval :      773.90   777.70   778.72   814.62   822.00   826.26
eigval :      833.81   863.51   866.06   870.58   872.85   876.10
eigval :      879.10   882.79   884.69   889.96   896.65   897.39
eigval :      898.44   900.79   901.09   902.61   903.28   910.84
eigval :      913.49   915.99   917.95   921.00   921.61   923.53
eigval :      928.37   931.88   935.59   937.30   947.44   959.19
eigval :      993.17   996.47  1011.06  1011.66  1023.22  1032.22
eigval :     1068.53  1068.77  1071.51  1072.31  1078.95  1104.34
eigval :     1111.20  1118.08  1129.00  1134.02  1149.60  1150.70
eigval :     1152.30  1167.47  1172.90  1173.94  1176.27  1178.84
eigval :     1179.78  1179.87  1181.27  1183.13  1189.69  1203.21
eigval :     1219.02  1228.05  1234.00  1235.81  1238.15  1243.61
eigval :     1258.43  1261.04  1269.49  1275.81  1286.25  1299.06
eigval :     1300.13  1303.83  1304.58  1318.90  1321.34  1337.72
eigval :     1345.41  1345.77  1355.64  1356.16  1362.01  1362.67
eigval :     1372.26  1382.22  1402.65  1414.97  1423.52  1426.71
eigval :     1427.14  1427.33  1434.27  1441.38  1458.72  1471.14
eigval :     1473.27  1477.17  1482.03  1487.02  1487.31  1490.79
eigval :     1553.60  1563.42  1570.03  1572.44  1575.01  1576.79
eigval :     1581.14  1587.04  1587.29  1587.49  1594.96  1596.95
eigval :     1597.22  1611.24  1612.88  1613.59  1651.00  3068.43
eigval :     3069.39  3069.95  3070.37  3074.26  3074.99  3075.29
eigval :     3076.06  3076.78  3078.44  3082.49  3082.76  3083.36
eigval :     3083.37  3083.85  3086.29  3088.70  3089.05  3089.44
eigval :     3089.79  3090.40  3091.40  3091.54  3092.27  3095.87
eigval :     3097.99  3099.59  3100.14  3101.12  3101.61  3102.91

   temp. (K)  partition function   enthalpy   heat capacity  entropy
                                   cal/mol     cal/K/mol   cal/K/mol   J/K/mol
 298.15  VIB  0.503E+19            23767.633    152.016    146.841
         ROT  0.160E+09              888.752      2.981     40.518
         INT  0.804E+27            24656.386    154.997    187.360
         TR   0.171E+29             1481.254      4.968     45.402
         TOT                       26137.6398   159.9655   232.7614   973.8739

       T/K    H(0)-H(T)+PV         H(T)/Eh          T*S/Eh         G(T)/Eh
   ------------------------------------------------------------------------
    298.15    0.416530E-01    0.681234E+00    0.110592E+00    0.570642E+00
   ------------------------------------------------------------------------

         :::::::::::::::::::::::::::::::::::::::::::::::::::::
         ::                  THERMODYNAMIC                  ::
         :::::::::::::::::::::::::::::::::::::::::::::::::::::
         :: total free energy        -133.153646082187 Eh   ::
         ::.................................................::
         :: total energy             -133.724287911737 Eh   ::
         :: zero point energy           0.639581322937 Eh   ::
         :: G(RRHO) w/o ZPVE           -0.068939493387 Eh   ::
         :: G(RRHO) contrib.            0.570641829550 Eh   ::
         :::::::::::::::::::::::::::::::::::::::::::::::::::::

           -------------------------------------------------
          | TOTAL ENERGY             -133.724287911737 Eh   |
          | TOTAL ENTHALPY           -133.043053608532 Eh   |
          | TOTAL FREE ENERGY        -133.153646082187 Eh   |
          | GRADIENT NORM               0.000052420070 Eh/α |
          | HOMO-LUMO GAP               1.681618486084 eV   |
           -------------------------------------------------

 * finished run on 2025/09/14 at 05:47:47.457
