   * xtb version 6.7.1 (edcfbbe) compiled by 'albert@albert-system' on 2024-07-22

   ID    Z sym.   atoms
    1    8 O      1
    2    6 C      2-12, 14-17, 19-35, 37-53
    3    7 N      13, 18, 36
    4    1 H      54-84

          program call               : xtb data2507/toluene/CCDC/CCDC_toluene_S0_crest.xyz --gfn 2 --gbsa toluene --ohess vtight --parallel 40 --molden --ceasefiles --namespace data2507/toluene/CCDC/CCDC_toluene_S0_finalOpt
      * Solvation model:               GBSA
        Solvent                        toluene
        Solvent mass                       9.2140E+01 g/mol
          :  Hamiltonian                  GFN2-xTB          :
 * total energy  :  -133.7244397 Eh     change       -0.4819867E-08 Eh
 * total energy  :  -133.7245162 Eh     change       -0.7654151E-04 Eh
 * total energy  :  -133.7245380 Eh     change       -0.2172467E-04 Eh
 * total energy  :  -133.7245439 Eh     change       -0.5941739E-05 Eh
 * total energy  :  -133.7245487 Eh     change       -0.4798110E-05 Eh
 * total energy  :  -133.7245524 Eh     change       -0.3738122E-05 Eh
 * total energy  :  -133.7245555 Eh     change       -0.3060740E-05 Eh
 * total energy  :  -133.7245593 Eh     change       -0.3753567E-05 Eh
 * total energy  :  -133.7245632 Eh     change       -0.3951522E-05 Eh
 * total energy  :  -133.7245660 Eh     change       -0.2768008E-05 Eh
 * total energy  :  -133.7246049 Eh     change       -0.9032874E-06 Eh
 * total energy  :  -133.7246057 Eh     change       -0.8059272E-06 Eh
 * total energy  :  -133.7246068 Eh     change       -0.1039504E-05 Eh
 * total energy  :  -133.7246083 Eh     change       -0.1497296E-05 Eh
 * total energy  :  -133.7246099 Eh     change       -0.1636753E-05 Eh
 * total energy  :  -133.7246108 Eh     change       -0.9078162E-06 Eh
 * total energy  :  -133.7246113 Eh     change       -0.4413983E-06 Eh
 * total energy  :  -133.7246116 Eh     change       -0.3764580E-06 Eh
 * total energy  :  -133.7246116 Eh     change       -0.2639780E-08 Eh
   *** GEOMETRY OPTIMIZATION CONVERGED AFTER 44 ITERATIONS ***

 final structure:
================
84
 xtb: 6.7.1 (edcfbbe)
O            6.68252841985234        4.17898922208549        0.27209068194867
C            6.51240610759708        3.00350842257825       -0.01876549282446
C            7.64929917733626        2.12528738924006       -0.38396289837190
C            7.66569814397412        0.76980634792567       -0.05598812671819
C            8.76189406428879       -0.00772626272864       -0.38220099876256
C            9.84478662038955        0.55298867778828       -1.04152743579533
C            9.84067051264994        1.90245713815985       -1.35961491001544
C            8.75399804214923        2.68706297718829       -1.02343765244388
C            5.15980355402375        2.39959921098145       -0.01551699403563
C            4.20401686126662        2.89566379192080        0.87194219210645
C            2.93042045199956        2.36914132801637        0.90373628217923
C            2.57647957838781        1.34872738006251        0.02094150569821
N            1.28583963762346        0.81045803888268        0.04643079607605
C            0.97195792571201       -0.53529957571182        0.07238915102073
C            1.80743187485644       -1.64293436890359        0.12696846497168
C            1.22706692850082       -2.89448217100812        0.16362204908863
C           -0.16406757712002       -3.05543768992356        0.17186834314530
N           -0.71094318335046       -4.35030774700810        0.19915496560545
C           -0.39906665508636       -5.34443055821763        1.10326739705716
C            0.45400289345753       -5.30862205034659        2.19788113607275
C            0.56942664865509       -6.45243766599881        2.96435773128338
C           -0.14778436002929       -7.60817630313577        2.66005109818825
C           -1.01399960826081       -7.64357644202391        1.58538781884225
C           -1.14892029110728       -6.50529926453298        0.80040131292465
C           -1.95003285435668       -6.18442713713541       -0.34749212240398
C           -2.86665765280899       -6.90161788558304       -1.10618159347053
C           -3.46323073039147       -6.28048230866537       -2.18539021415306
C           -3.14643449034713       -4.96508637672683       -2.52034836453238
C           -2.23846411625496       -4.23111121767059       -1.78144784669806
C           -1.65053771963501       -4.84320155307628       -0.68291086907078
C           -1.00333437689747       -1.95111947051706        0.15509319628906
C           -0.43364232696307       -0.68763709757229        0.10212597022477
C           -0.98830423413295        0.63702407016075        0.08624953369594
C           -2.28946171252408        1.11785992010988        0.08756920399499
C           -2.48746459790610        2.48944346138264        0.03136136164815
N           -3.79334307965554        3.01009491326939        0.02335557242176
C           -4.28149004647134        3.97840839171598        0.87581797082226
C           -3.65404420777808        4.62169729550593        1.93386937741592
C           -4.38551148597522        5.54926731024808        2.65050493804556
C           -5.71324940562986        5.83115168039667        2.33345451795087
C           -6.34954043612598        5.17884364832805        1.29603882188714
C           -5.63536914309156        4.24116712968274        0.56063863955397
C           -5.97007603860488        3.38369529879901       -0.54176419163506
C           -7.12520428049475        3.19225382929953       -1.28956517395746
C           -7.10174294101021        2.27536558954480       -2.32166915006854
C           -5.94189506467836        1.56257625883460       -2.62082993906768
C           -4.78093007677274        1.73471360088083       -1.89171587075812
C           -4.80426775537958        2.63946554122897       -0.83915110699860
C           -1.39725708497448        3.36616640451261       -0.03554389967016
C           -0.09764869174972        2.90252082071524       -0.02239178871039
C            0.10668721005878        1.53118444013779        0.05532409047209
C            3.51807447446764        0.87154554298556       -0.89089726098919
C            4.79803346757542        1.38669825079067       -0.90422283622445
H            6.83326431575296        0.33512791007811        0.47709289538890
H            8.77278430184748       -1.05533076095881       -0.12000557098532
H           10.69551095201028       -0.05977255428050       -1.30063567676246
H           10.68680377546524        2.34327872988919       -1.86548127744656
H            8.73575895803311        3.74189986792880       -1.25723317554805
H            4.48926581544244        3.68749771574330        1.54904437570393
H            2.20886606277099        2.73243054296515        1.61930745536781
H            2.88080146246447       -1.53815985105357        0.14137388179200
H            1.85170504815080       -3.77475235177800        0.17910697378803
H            1.00250523676528       -4.41379987443610        2.45066251400441
H            1.22788541436053       -6.45036080446278        3.82107650787975
H           -0.02772647134915       -8.48330058380288        3.28197533001211
H           -1.58024096146073       -8.53487659130741        1.35877053219573
H           -3.10293725998337       -7.92512418245379       -0.85528889673966
H           -4.18055944924405       -6.82011807564955       -2.78648298827611
H           -3.62028882463648       -4.51058217355459       -3.37848474622374
H           -1.98934301685695       -3.21722786312178       -2.05683814935415
H           -2.07424902327313       -2.07655567295149        0.19485778951700
H           -3.13091972557838        0.44420176449471        0.13439973413269
H           -2.63033929381836        4.39943069347869        2.19530745703155
H           -3.91910191347575        6.06609991758791        3.47682660779278
H           -6.25043517235887        6.56543300283765        2.91596596373487
H           -7.38245246545895        5.38798087807110        1.05998039191453
H           -8.02032980429304        3.75404679018325       -1.06708257905258
H           -7.99037130535257        2.11010498475777       -2.91333092472345
H           -5.95064193195221        0.86156496494782       -3.44299941379192
H           -3.88308409814919        1.18891318029892       -2.14042276058479
H           -1.58743740791758        4.42607180361756       -0.11223437813461
H            0.72896418472932        3.59204339844743       -0.09301761982764
H            3.23340900937518        0.10912892842047       -1.59986256841255
H            5.51238433403018        1.02580495999637       -1.62856780554931

          :  Hamiltonian                  GFN2-xTB          :
         :: gradient norm              0.000041547004 Eh/a0 ::
         :: HOMO-LUMO gap              1.677406115615 eV    ::
         :: SCC energy              -136.198896249915 Eh    ::
         :: -> dispersion             -0.118146780804 Eh    ::
         :: -> Gsolv                  -0.058785541289 Eh    ::
         :: repulsion energy           2.474284605844 Eh    ::

    * Orbital Energies and Occupations

         #    Occupation            Energy/Eh            Energy/eV
      -------------------------------------------------------------
         1        2.0000           -0.7118631             -19.3708
       ...           ...                  ...                  ...
       112        2.0000           -0.4173574             -11.3569
       113        2.0000           -0.4170035             -11.3472
       114        2.0000           -0.4166519             -11.3377
       115        2.0000           -0.4153300             -11.3017
       116        2.0000           -0.4041738             -10.9981
       117        2.0000           -0.4039726             -10.9927
       118        2.0000           -0.3970601             -10.8046
       119        2.0000           -0.3929493             -10.6927
       120        2.0000           -0.3813244             -10.3764
       121        2.0000           -0.3774394             -10.2706
       122        2.0000           -0.3772460             -10.2654
       123        2.0000           -0.3620166              -9.8510
       124        2.0000           -0.3565284              -9.7016 (HOMO)
       125                         -0.2948848              -8.0242 (LUMO)
       126                         -0.2589992              -7.0477
       127                         -0.2460054              -6.6941
       128                         -0.2453689              -6.6768
       129                         -0.2439394              -6.6379
       130                         -0.2431297              -6.6159
       131                         -0.2364523              -6.4342
       132                         -0.2352345              -6.4011
       133                         -0.2208863              -6.0106
       134                         -0.2206855              -6.0052
       135                         -0.2149530              -5.8492
       ...                                ...                  ...
       243                          0.7459270              20.2977
      -------------------------------------------------------------
                  HL-Gap            0.0616435 Eh            1.6774 eV

     #   Z          covCN         q      C6AA      α(0)
     1   8 O        0.858    -0.422    22.115     6.305
     2   6 C        2.829     0.227    23.238     7.899
     3   6 C        2.972    -0.014    28.348     8.733
     4   6 C        2.921    -0.026    28.651     8.778
     5   6 C        2.918    -0.026    28.652     8.778
     6   6 C        2.920    -0.021    28.533     8.759
     7   6 C        2.917    -0.026    28.643     8.776
     8   6 C        2.924    -0.017    28.431     8.744
     9   6 C        2.971    -0.016    28.396     8.741
    10   6 C        2.924    -0.015    28.395     8.739
    11   6 C        2.919    -0.040    29.003     8.831
    12   6 C        2.913     0.070    26.438     8.431
    13   7 N        2.801    -0.028    21.787     6.932
    14   6 C        3.073     0.043    26.962     8.514
    15   6 C        2.909    -0.048    29.201     8.861
    16   6 C        2.926    -0.045    29.109     8.848
    17   6 C        2.912     0.055    26.770     8.484
    18   7 N        2.803    -0.046    22.129     6.987
    19   6 C        3.076     0.047    26.865     8.498
    20   6 C        2.909    -0.053    29.304     8.876
    21   6 C        2.924    -0.036    28.884     8.814
    22   6 C        2.919    -0.043    29.077     8.843
    23   6 C        2.912    -0.035    28.876     8.812
    24   6 C        3.068    -0.019    28.420     8.742
    25   6 C        3.067    -0.019    28.421     8.742
    26   6 C        2.912    -0.035    28.876     8.812
    27   6 C        2.919    -0.043    29.076     8.842
    28   6 C        2.924    -0.035    28.881     8.813
    29   6 C        2.909    -0.052    29.297     8.875
    30   6 C        3.077     0.047    26.863     8.497
    31   6 C        2.915    -0.045    29.118     8.849
    32   6 C        3.067    -0.013    28.273     8.719
    33   6 C        3.067    -0.013    28.276     8.719
    34   6 C        2.915    -0.045    29.126     8.850
    35   6 C        2.913     0.055    26.768     8.484
    36   7 N        2.803    -0.046    22.133     6.987
    37   6 C        3.077     0.047    26.863     8.498
    38   6 C        2.909    -0.052    29.301     8.876
    39   6 C        2.924    -0.036    28.884     8.813
    40   6 C        2.919    -0.043    29.077     8.843
    41   6 C        2.912    -0.035    28.876     8.812
    42   6 C        3.067    -0.019    28.422     8.742
    43   6 C        3.068    -0.019    28.421     8.742
    44   6 C        2.912    -0.035    28.876     8.812
    45   6 C        2.919    -0.043    29.077     8.843
    46   6 C        2.924    -0.035    28.881     8.813
    47   6 C        2.909    -0.052    29.299     8.876
    48   6 C        3.077     0.047    26.863     8.498
    49   6 C        2.926    -0.044    29.096     8.846
    50   6 C        2.909    -0.048    29.192     8.859
    51   6 C        3.073     0.043    26.957     8.513
    52   6 C        2.920    -0.041    29.015     8.833
    53   6 C        2.920    -0.024    28.596     8.769
    54   1 H        0.926     0.044     2.390     2.417
    55   1 H        0.926     0.047     2.354     2.400
    56   1 H        0.926     0.047     2.354     2.399
    57   1 H        0.926     0.045     2.384     2.415
    58   1 H        0.926     0.044     2.393     2.419
    59   1 H        0.926     0.053     2.282     2.362
    60   1 H        0.926     0.055     2.257     2.349
    61   1 H        0.926     0.045     2.379     2.412
    62   1 H        0.926     0.046     2.369     2.407
    63   1 H        0.926     0.030     2.591     2.517
    64   1 H        0.926     0.029     2.601     2.522
    65   1 H        0.926     0.026     2.639     2.540
    66   1 H        0.926     0.029     2.606     2.525
    67   1 H        0.926     0.029     2.606     2.524
    68   1 H        0.926     0.026     2.640     2.541
    69   1 H        0.926     0.029     2.603     2.523
    70   1 H        0.926     0.029     2.597     2.520
    71   1 H        0.926     0.045     2.382     2.414
    72   1 H        0.926     0.045     2.377     2.411
    73   1 H        0.926     0.029     2.596     2.520
    74   1 H        0.926     0.029     2.602     2.522
    75   1 H        0.926     0.026     2.638     2.540
    76   1 H        0.926     0.029     2.605     2.524
    77   1 H        0.926     0.029     2.605     2.524
    78   1 H        0.926     0.026     2.638     2.540
    79   1 H        0.926     0.029     2.601     2.522
    80   1 H        0.926     0.029     2.598     2.520
    81   1 H        0.926     0.045     2.383     2.414
    82   1 H        0.926     0.044     2.397     2.421
    83   1 H        0.926     0.057     2.230     2.335
    84   1 H        0.926     0.054     2.276     2.359

molecular dipole:
                 x           y           z       tot (Debye)
 q only:        1.245      -1.020      -0.421
   full:        1.322      -1.009      -0.431       4.366

 projected vibrational frequencies (cm⁻¹)
eigval :       -0.00    -0.00    -0.00     0.00     0.00     0.00
eigval :       11.44    13.85    14.80    17.20    20.69    21.04
eigval :       33.79    42.47    49.91    57.67    61.03    86.59
eigval :       91.39   103.28   106.32   110.83   115.79   127.46
eigval :      130.62   142.50   145.41   161.19   167.18   192.42
eigval :      208.40   213.07   222.26   250.34   260.08   270.72
eigval :      271.46   274.79   282.15   306.48   327.55   336.40
eigval :      359.13   367.97   375.79   383.12   387.90   391.65
eigval :      396.66   399.45   403.27   422.87   423.42   430.60
eigval :      434.51   436.24   441.79   466.66   479.99   491.27
eigval :      517.58   517.63   527.64   529.27   539.36   541.57
eigval :      544.19   549.05   553.97   562.51   585.46   586.27
eigval :      588.30   598.20   608.62   612.72   621.45   628.96
eigval :      644.96   649.87   663.88   672.86   673.81   676.15
eigval :      682.49   702.76   705.66   707.35   707.82   711.85
eigval :      719.16   752.31   754.61   756.05   767.32   768.77
eigval :      772.78   778.49   780.54   814.46   821.80   826.08
eigval :      834.08   866.08   866.76   870.21   871.52   874.76
eigval :      877.95   884.25   885.49   890.15   896.81   897.28
eigval :      899.29   900.85   902.82   902.93   903.47   909.55
eigval :      913.38   915.24   921.16   921.54   923.85   926.66
eigval :      927.60   930.15   932.72   937.21   948.00   959.21
eigval :      993.05   996.34  1010.86  1011.67  1023.06  1032.12
eigval :     1068.08  1068.75  1071.54  1072.45  1078.47  1104.21
eigval :     1111.20  1116.46  1129.17  1133.28  1149.43  1150.89
eigval :     1152.46  1167.89  1173.48  1174.09  1175.92  1176.97
eigval :     1180.10  1180.57  1182.39  1183.51  1188.72  1202.51
eigval :     1218.52  1227.54  1233.72  1235.59  1237.98  1243.59
eigval :     1259.06  1260.47  1269.72  1274.90  1285.46  1299.11
eigval :     1300.12  1303.54  1304.58  1318.82  1321.25  1337.27
eigval :     1345.29  1345.83  1355.81  1356.30  1362.00  1362.69
eigval :     1372.45  1381.62  1403.12  1414.91  1423.10  1426.17
eigval :     1427.02  1427.26  1433.90  1441.13  1458.47  1471.07
eigval :     1473.23  1477.28  1481.96  1487.13  1487.22  1490.88
eigval :     1552.60  1563.40  1569.96  1572.46  1574.56  1576.51
eigval :     1579.72  1587.16  1587.17  1587.43  1595.29  1597.07
eigval :     1597.28  1611.53  1612.94  1613.76  1649.08  3069.88
eigval :     3070.22  3070.30  3070.67  3075.24  3075.70  3075.93
eigval :     3076.12  3076.39  3078.05  3083.05  3083.39  3083.40
eigval :     3084.01  3084.35  3086.58  3088.53  3089.35  3089.81
eigval :     3090.31  3091.07  3091.64  3092.23  3092.76  3095.46
eigval :     3097.34  3099.18  3099.72  3100.77  3102.14  3103.31

   temp. (K)  partition function   enthalpy   heat capacity  entropy
                                   cal/mol     cal/K/mol   cal/K/mol   J/K/mol
 298.15  VIB  0.448E+19            23763.869    152.209    146.944
         ROT  0.158E+09              888.752      2.981     40.500
         INT  0.709E+27            24652.622    155.190    187.444
         TR   0.171E+29             1481.254      4.968     45.402
         TOT                       26133.8757   160.1581   232.8460   974.2275

       T/K    H(0)-H(T)+PV         H(T)/Eh          T*S/Eh         G(T)/Eh
   ------------------------------------------------------------------------
    298.15    0.416470E-01    0.681238E+00    0.110633E+00    0.570606E+00
   ------------------------------------------------------------------------

         :::::::::::::::::::::::::::::::::::::::::::::::::::::
         ::                  THERMODYNAMIC                  ::
         :::::::::::::::::::::::::::::::::::::::::::::::::::::
         :: total free energy        -133.154006118206 Eh   ::
         ::.................................................::
         :: total energy             -133.724611640473 Eh   ::
         :: zero point energy           0.639591168260 Eh   ::
         :: G(RRHO) w/o ZPVE           -0.068985645993 Eh   ::
         :: G(RRHO) contrib.            0.570605522267 Eh   ::
         :::::::::::::::::::::::::::::::::::::::::::::::::::::

           -------------------------------------------------
          | TOTAL ENERGY             -133.724611640473 Eh   |
          | TOTAL ENTHALPY           -133.043373490319 Eh   |
          | TOTAL FREE ENERGY        -133.154006118206 Eh   |
          | GRADIENT NORM               0.000041543421 Eh/α |
          | HOMO-LUMO GAP               1.677406266376 eV   |
           -------------------------------------------------

 * finished run on 2025/09/14 at 05:52:37.683
