   * xtb version 6.7.1 (edcfbbe) compiled by 'albert@albert-system' on 2024-07-22

   ID    Z sym.   atoms
    1    8 O      1
    2    6 C      2-12, 14-17, 19-35, 37-53
    3    7 N      13, 18, 36
    4    1 H      54-84

          program call               : xtb data2507/toluene/CCDC/CCDC_toluene_S0_finalOpt.xtbopt.xyz --gfn 2 --uhf 2 --gbsa toluene --ohess vtight --parallel 40 --molden --ceasefiles --namespace data2507/toluene/CCDC/CCDC_toluene_T1_preOpt
      * Solvation model:               GBSA
        Solvent                        toluene
        Solvent mass                       9.2140E+01 g/mol
          :  Hamiltonian                  GFN2-xTB          :
 * total energy  :  -133.6378970 Eh     change       -0.1969482E-08 Eh
 * total energy  :  -133.6409304 Eh     change       -0.3033422E-02 Eh
 * total energy  :  -133.6419335 Eh     change       -0.1003072E-02 Eh
 * total energy  :  -133.6421409 Eh     change       -0.2073615E-03 Eh
 * total energy  :  -133.6423167 Eh     change       -0.1758461E-03 Eh
 * total energy  :  -133.6424461 Eh     change       -0.1293569E-03 Eh
 * total energy  :  -133.6425686 Eh     change       -0.1225052E-03 Eh
 * total energy  :  -133.6426397 Eh     change       -0.7112278E-04 Eh
 * total energy  :  -133.6426866 Eh     change       -0.4688543E-04 Eh
 * total energy  :  -133.6427336 Eh     change       -0.4705878E-04 Eh
 * total energy  :  -133.6431253 Eh     change       -0.4912531E-05 Eh
 * total energy  :  -133.6431305 Eh     change       -0.5141484E-05 Eh
 * total energy  :  -133.6431353 Eh     change       -0.4847601E-05 Eh
 * total energy  :  -133.6431389 Eh     change       -0.3614536E-05 Eh
 * total energy  :  -133.6431410 Eh     change       -0.2072838E-05 Eh
 * total energy  :  -133.6431420 Eh     change       -0.9639546E-06 Eh
 * total energy  :  -133.6431425 Eh     change       -0.4932488E-06 Eh
 * total energy  :  -133.6431429 Eh     change       -0.4010342E-06 Eh
 * total energy  :  -133.6431429 Eh     change       -0.1902350E-08 Eh
   *** GEOMETRY OPTIMIZATION CONVERGED AFTER 44 ITERATIONS ***

 final structure:
================
84
 xtb: 6.7.1 (edcfbbe)
O            6.66975710569405        4.03512208207974        0.80878927876366
C            6.50240967095129        2.89430158408264        0.27678960185466
C            7.65736257895020        2.18965473338235       -0.29466152230276
C            7.79031640202583        0.79717143243968       -0.23224957190971
C            8.91334106439881        0.17857985695556       -0.74307466803954
C            9.93107624312943        0.92689020087074       -1.31785282501790
C            9.82492561060833        2.31011589758212       -1.35545243423089
C            8.70910372925688        2.93607795881667       -0.84111822004649
C            5.19314682189522        2.29823116487946        0.21438396040353
C            4.16872869468919        2.81796141775212        1.04460910191698
C            2.90116008790837        2.30646411851005        1.01933636936918
C            2.57585659506949        1.26020967155789        0.14039333626292
N            1.28202044340148        0.73142933576818        0.11209862956582
C            0.95566047349909       -0.60481320178138        0.13766640967336
C            1.77891017138110       -1.72141171015847        0.22282955023545
C            1.19001708535284       -2.96852228209782        0.24593137636254
C           -0.20571682458899       -3.11830174410238        0.18842550451891
N           -0.76525810747539       -4.39774355045593        0.19369942919781
C           -0.44408933517761       -5.42409400600478        1.06203592650685
C            0.42346611037578       -5.42745871214109        2.14635557403984
C            0.53461415791558       -6.59452652941276        2.88027409902718
C           -0.20382790388846       -7.72992920074389        2.55678125390443
C           -1.09277765831018       -7.72287431828808        1.49650934451688
C           -1.22055032394199       -6.56365684489792        0.74613215647905
C           -2.04548881983135       -6.19839744846366       -0.37580864406083
C           -2.98266707166474       -6.88494090834148       -1.13330376419277
C           -3.59270597449007       -6.22669031081710       -2.18646773821176
C           -3.26208917511356       -4.91008983894853       -2.49677521610238
C           -2.32868406301656       -4.20690112295258       -1.75705318505187
C           -1.73552947554950       -4.85232652756025       -0.67999186965616
C           -1.03808420234299       -2.00262356447318        0.13368418454035
C           -0.45940798621007       -0.74544303540071        0.11796275771590
C           -0.99668549684821        0.58426571034916        0.08561653577919
C           -2.28560762811926        1.08820386977107        0.06180961021031
C           -2.45907521341130        2.46924636127241       -0.00043252323097
N           -3.74718106208848        3.00621087619923       -0.01403781596315
C           -4.19447722296987        4.05598875062059        0.76712896567814
C           -3.52929524207053        4.77207977581407        1.75368938176361
C           -4.23020035115216        5.76378459548414        2.41570594199870
C           -5.56340470960958        6.03379601521771        2.11819505087023
C           -6.24067244172546        5.30276217868861        1.15822252192219
C           -5.55705126848619        4.30472268067607        0.48024574263100
C           -5.94156178709885        3.35616102661180       -0.53247211624833
C           -7.12358541600765        3.12378423989494       -1.21949783536732
C           -7.14818954007752        2.12192610882049       -2.17368565900447
C           -6.00757348445384        1.37580014630543       -2.45832815768168
C           -4.81718460643506        1.59253444798266       -1.78817409459673
C           -4.79552787008600        2.57331546142134       -0.80516544045022
C           -1.34853297433036        3.32905553058597       -0.05954748558234
C           -0.05998808522423        2.83973239062375       -0.02715218517825
C            0.11989212369084        1.46468102237005        0.07091510604392
C            3.56357887198228        0.77117557239342       -0.72912671244714
C            4.83379866939339        1.28280475273893       -0.70267752538330
H            7.02392778434145        0.20824846602417        0.25059562190591
H            9.00318807254832       -0.89721749546576       -0.68338937757931
H           10.80626920441315        0.43752849951635       -1.71948144101915
H           10.61973240026119        2.90268436126576       -1.78666017290761
H            8.61859222299303        4.01332104170010       -0.85857767687993
H            4.43462406153273        3.61612569156428        1.72265396677493
H            2.15138907472167        2.67768134952614        1.70288504793550
H            2.85163646502860       -1.62069699051646        0.26558732386437
H            1.80864951880573       -3.85145726330810        0.27994868878419
H            0.98495552395248       -4.54765447205177        2.42021948699996
H            1.20620020216337       -6.62367194927040        3.72550479898714
H           -0.08680435784985       -8.62366456950589        3.15142809933213
H           -1.67970449647709       -8.59732509369115        1.26015561681794
H           -3.22524629738987       -7.91202763947815       -0.90711974116363
H           -4.32733099116150       -6.74274916326117       -2.78648090956076
H           -3.74088985616571       -4.42891173788340       -3.33663731151186
H           -2.06252701748664       -3.19528353963280       -2.02169032441828
H           -2.11013001160656       -2.12075126788257        0.14034925100929
H           -3.13917823224508        0.43197945742625        0.12322626740575
H           -2.50276309271422        4.55914968767770        2.00856362038701
H           -3.73259041739253        6.33788922590352        3.18316968730163
H           -6.07604979692135        6.81844782781945        2.65437568737666
H           -7.28009345771757        5.49927693627875        0.94394431611927
H           -8.00218183704378        3.71651801140185       -1.01552235508144
H           -8.06011333293251        1.92209396887986       -2.71631236495783
H           -6.05100721712590        0.61483125487128       -3.22326192394922
H           -3.93311554004430        1.02614742914795       -2.03663298413576
H           -1.51546558408260        4.38941392895452       -0.16588471017151
H            0.78407018392145        3.50712253810384       -0.10328384277908
H            3.29982874572247        0.01740606986810       -1.45696288330603
H            5.56167163752408        0.93456671016815       -1.41966862683847

          :  Hamiltonian                  GFN2-xTB          :
         :: gradient norm              0.000060332229 Eh/a0 ::
         :: HOMO-LUMO gap              0.291692960780 eV    ::
         :: SCC energy              -136.101546158822 Eh    ::
         :: -> dispersion             -0.118138083168 Eh    ::
         :: -> Gsolv                  -0.070358400251 Eh    ::
         :: repulsion energy           2.458403278010 Eh    ::

    * Orbital Energies and Occupations

         #    Occupation            Energy/Eh            Energy/eV
      -------------------------------------------------------------
         1        2.0000           -0.6959018             -18.9365
       ...           ...                  ...                  ...
       113        2.0000           -0.4151875             -11.2978
       114        2.0000           -0.4062964             -11.0559
       115        2.0000           -0.4050163             -11.0211
       116        2.0000           -0.4009932             -10.9116
       117        2.0000           -0.3974576             -10.8154
       118        2.0000           -0.3937332             -10.7140
       119        2.0000           -0.3893889             -10.5958
       120        2.0000           -0.3890171             -10.5857
       121        2.0000           -0.3851412             -10.4802
       122        1.9998           -0.3737955             -10.1715
       123        1.8246           -0.3672242              -9.9927
       124        1.1756           -0.3642843              -9.9127
       125        0.9965           -0.2761648              -7.5148 (HOMO)
       126        0.0035           -0.2654451              -7.2231 (LUMO)
       127        0.0000           -0.2564794              -6.9792
       128                         -0.2548301              -6.9343
       129                         -0.2464936              -6.7074
       130                         -0.2330502              -6.3416
       131                         -0.2326617              -6.3310
       132                         -0.2320752              -6.3151
       133                         -0.2200200              -5.9870
       134                         -0.2176496              -5.9225
       135                         -0.2147665              -5.8441
       136                         -0.2125967              -5.7851
       ...                                ...                  ...
       243                          0.7338625              19.9694
      -------------------------------------------------------------
                  HL-Gap            0.0107197 Eh            0.2917 eV

     #   Z          covCN         q      C6AA      α(0)
     1   8 O        0.857    -0.515    24.110     6.583
     2   6 C        2.833     0.167    24.396     8.094
     3   6 C        2.970    -0.013    28.336     8.732
     4   6 C        2.920    -0.040    28.990     8.830
     5   6 C        2.917    -0.033    28.832     8.805
     6   6 C        2.919    -0.040    28.992     8.830
     7   6 C        2.917    -0.033    28.830     8.805
     8   6 C        2.924    -0.029    28.736     8.791
     9   6 C        2.967    -0.022    28.562     8.766
    10   6 C        2.922    -0.032    28.804     8.801
    11   6 C        2.914    -0.045    29.108     8.847
    12   6 C        2.912     0.032    27.278     8.564
    13   7 N        2.799     0.005    21.165     6.833
    14   6 C        3.078     0.042    26.977     8.515
    15   6 C        2.908    -0.038    28.956     8.823
    16   6 C        2.924    -0.047    29.174     8.858
    17   6 C        2.912     0.058    26.693     8.472
    18   7 N        2.802    -0.017    21.570     6.898
    19   6 C        3.070     0.046    26.900     8.504
    20   6 C        2.909    -0.045    29.125     8.849
    21   6 C        2.923    -0.031    28.784     8.798
    22   6 C        2.920    -0.035    28.875     8.812
    23   6 C        2.912    -0.030    28.757     8.793
    24   6 C        3.065    -0.012    28.255     8.716
    25   6 C        3.065    -0.012    28.250     8.716
    26   6 C        2.912    -0.030    28.753     8.793
    27   6 C        2.920    -0.035    28.876     8.812
    28   6 C        2.923    -0.031    28.785     8.798
    29   6 C        2.910    -0.045    29.129     8.850
    30   6 C        3.071     0.046    26.904     8.505
    31   6 C        2.914    -0.042    29.049     8.838
    32   6 C        3.063    -0.011    28.226     8.712
    33   6 C        3.062    -0.011    28.228     8.713
    34   6 C        2.913    -0.042    29.054     8.839
    35   6 C        2.912     0.058    26.689     8.471
    36   7 N        2.802    -0.015    21.546     6.894
    37   6 C        3.070     0.046    26.902     8.505
    38   6 C        2.910    -0.045    29.116     8.848
    39   6 C        2.923    -0.031    28.779     8.797
    40   6 C        2.920    -0.035    28.866     8.811
    41   6 C        2.912    -0.030    28.753     8.793
    42   6 C        3.065    -0.012    28.248     8.715
    43   6 C        3.065    -0.012    28.242     8.714
    44   6 C        2.912    -0.030    28.749     8.792
    45   6 C        2.920    -0.035    28.868     8.811
    46   6 C        2.923    -0.031    28.782     8.798
    47   6 C        2.910    -0.045    29.124     8.849
    48   6 C        3.070     0.046    26.908     8.506
    49   6 C        2.924    -0.047    29.168     8.857
    50   6 C        2.908    -0.038    28.944     8.822
    51   6 C        3.079     0.042    26.968     8.514
    52   6 C        2.915    -0.045    29.107     8.847
    53   6 C        2.916    -0.043    29.079     8.843
    54   1 H        0.926     0.029     2.605     2.524
    55   1 H        0.926     0.030     2.583     2.513
    56   1 H        0.926     0.029     2.605     2.524
    57   1 H        0.926     0.027     2.635     2.538
    58   1 H        0.926     0.023     2.684     2.562
    59   1 H        0.926     0.031     2.577     2.511
    60   1 H        0.926     0.037     2.484     2.465
    61   1 H        0.926     0.051     2.306     2.375
    62   1 H        0.926     0.052     2.292     2.368
    63   1 H        0.926     0.040     2.444     2.445
    64   1 H        0.926     0.038     2.475     2.460
    65   1 H        0.926     0.037     2.490     2.468
    66   1 H        0.926     0.040     2.451     2.448
    67   1 H        0.926     0.039     2.455     2.450
    68   1 H        0.926     0.037     2.484     2.465
    69   1 H        0.926     0.040     2.454     2.450
    70   1 H        0.926     0.041     2.431     2.438
    71   1 H        0.926     0.057     2.232     2.336
    72   1 H        0.926     0.058     2.222     2.331
    73   1 H        0.926     0.040     2.443     2.444
    74   1 H        0.926     0.038     2.471     2.458
    75   1 H        0.926     0.037     2.483     2.464
    76   1 H        0.926     0.040     2.442     2.444
    77   1 H        0.926     0.040     2.449     2.447
    78   1 H        0.926     0.038     2.476     2.461
    79   1 H        0.926     0.040     2.446     2.446
    80   1 H        0.926     0.042     2.421     2.433
    81   1 H        0.926     0.052     2.295     2.369
    82   1 H        0.926     0.050     2.315     2.379
    83   1 H        0.926     0.038     2.470     2.458
    84   1 H        0.926     0.033     2.551     2.498

molecular dipole:
                 x           y           z       tot (Debye)
 q only:       -6.839      -3.599      -0.611
   full:       -6.575      -3.510      -0.616      19.009

 projected vibrational frequencies (cm⁻¹)
eigval :       -0.00    -0.00    -0.00    -0.00    -0.00     0.00
eigval :        9.23    15.51    15.82    18.28    22.63    24.73
eigval :       37.26    41.80    45.60    60.17    65.86    86.70
eigval :       97.19   103.52   110.55   115.00   117.89   128.62
eigval :      132.57   144.13   151.41   165.91   174.56   202.14
eigval :      208.73   222.17   225.06   255.07   264.75   269.89
eigval :      273.26   276.35   284.66   309.88   318.30   331.11
eigval :      351.62   368.82   372.14   378.72   388.12   393.71
eigval :      395.89   400.27   402.02   418.02   420.28   427.32
eigval :      432.60   436.28   438.91   461.10   466.38   490.77
eigval :      515.13   515.48   530.75   532.89   537.00   537.51
eigval :      538.54   545.62   559.58   561.10   569.44   583.23
eigval :      585.26   587.17   594.82   606.58   608.48   617.49
eigval :      628.32   643.82   650.23   659.26   666.32   673.37
eigval :      674.89   681.62   700.37   705.70   706.71   710.47
eigval :      713.19   742.15   753.71   754.35   755.25   766.86
eigval :      767.67   776.39   777.36   804.38   812.49   826.63
eigval :      829.39   847.44   860.66   862.48   868.07   869.38
eigval :      872.96   878.71   880.22   885.12   887.10   891.96
eigval :      896.44   897.33   901.12   902.42   904.71   906.59
eigval :      907.91   911.12   917.71   920.22   920.70   923.17
eigval :      923.52   924.25   924.88   929.98   937.34   955.32
eigval :      980.15   990.86  1000.02  1010.57  1011.66  1026.49
eigval :     1068.23  1068.37  1071.18  1071.71  1077.32  1101.55
eigval :     1109.65  1117.31  1125.89  1133.23  1139.28  1144.26
eigval :     1146.10  1165.76  1167.11  1167.82  1172.08  1177.66
eigval :     1178.09  1178.89  1180.27  1182.74  1185.94  1207.71
eigval :     1216.03  1221.55  1226.92  1228.76  1232.09  1237.38
eigval :     1248.53  1257.03  1257.24  1271.67  1278.23  1285.26
eigval :     1285.95  1291.15  1291.54  1323.70  1324.60  1328.27
eigval :     1339.17  1342.34  1345.42  1348.24  1353.34  1356.41
eigval :     1358.28  1376.82  1387.39  1406.44  1413.52  1414.02
eigval :     1415.62  1421.08  1424.49  1429.70  1432.19  1447.23
eigval :     1448.45  1454.10  1458.76  1461.07  1464.86  1480.04
eigval :     1480.35  1480.78  1531.72  1537.52  1546.14  1549.48
eigval :     1553.90  1562.12  1568.65  1568.99  1580.83  1581.58
eigval :     1582.01  1582.47  1586.81  1600.35  1603.13  3061.38
eigval :     3061.91  3071.85  3073.60  3074.12  3075.85  3079.09
eigval :     3079.49  3079.81  3080.15  3084.27  3085.11  3085.21
eigval :     3085.29  3086.00  3086.52  3089.73  3092.86  3093.23
eigval :     3094.05  3094.29  3097.21  3098.31  3098.76  3099.13
eigval :     3100.04  3100.78  3102.42  3105.54  3108.24  3110.53

   temp. (K)  partition function   enthalpy   heat capacity  entropy
                                   cal/mol     cal/K/mol   cal/K/mol   J/K/mol
 298.15  VIB  0.259E+19            23817.083    153.460    146.547
         ROT  0.159E+09              888.752      2.981     40.514
         INT  0.413E+27            24705.836    156.441    187.061
         TR   0.171E+29             1481.254      4.968     45.402
         TOT                       26187.0896   161.4089   232.4629   972.6248

       T/K    H(0)-H(T)+PV         H(T)/Eh          T*S/Eh         G(T)/Eh
   ------------------------------------------------------------------------
    298.15    0.417318E-01    0.678159E+00    0.110451E+00    0.567709E+00
   ------------------------------------------------------------------------

         :::::::::::::::::::::::::::::::::::::::::::::::::::::
         ::                  THERMODYNAMIC                  ::
         :::::::::::::::::::::::::::::::::::::::::::::::::::::
         :: total free energy        -133.075434125489 Eh   ::
         ::.................................................::
         :: total energy             -133.643142883032 Eh   ::
         :: zero point energy           0.636427607539 Eh   ::
         :: G(RRHO) w/o ZPVE           -0.068718849997 Eh   ::
         :: G(RRHO) contrib.            0.567708757543 Eh   ::
         :::::::::::::::::::::::::::::::::::::::::::::::::::::

           -------------------------------------------------
          | TOTAL ENERGY             -133.643142883032 Eh   |
          | TOTAL ENTHALPY           -132.964983491933 Eh   |
          | TOTAL FREE ENERGY        -133.075434125489 Eh   |
          | GRADIENT NORM               0.000060190441 Eh/α |
          | HOMO-LUMO GAP               0.291697491367 eV   |
           -------------------------------------------------

 * finished run on 2025/09/14 at 05:52:47.497
