   * xtb version 6.7.1 (edcfbbe) compiled by 'albert@albert-system' on 2024-07-22

   ID    Z sym.   atoms
    1    6 C      1-8, 10-19, 21-24, 26-35, 37, 38
    2    7 N      9, 20, 25, 36
    3    1 H      39-60

          program call               : xtb data2507/toluene/CbBPCb/CbBPCb.xyz --gfn 2 --gbsa toluene --ohess vtight --parallel 40 --molden --ceasefiles --namespace data2507/toluene/CbBPCb/CbBPCb_toluene_S0_preOpt
      * Solvation model:               GBSA
        Solvent                        toluene
        Solvent mass                       9.2140E+01 g/mol
          :  Hamiltonian                  GFN2-xTB          :
 * total energy  :   -95.8120885 Eh     change       -0.1849827E-08 Eh
 * total energy  :   -95.8250774 Eh     change       -0.1298889E-01 Eh
 * total energy  :   -95.8279701 Eh     change       -0.2892715E-02 Eh
 * total energy  :   -95.8285761 Eh     change       -0.6059867E-03 Eh
 * total energy  :   -95.8291993 Eh     change       -0.6231343E-03 Eh
 * total energy  :   -95.8294889 Eh     change       -0.2895938E-03 Eh
 * total energy  :   -95.8297082 Eh     change       -0.2192989E-03 Eh
 * total energy  :   -95.8298494 Eh     change       -0.1412148E-03 Eh
 * total energy  :   -95.8299186 Eh     change       -0.6921762E-04 Eh
 * total energy  :   -95.8299607 Eh     change       -0.4207000E-04 Eh
 * total energy  :   -95.8304609 Eh     change       -0.1019161E-04 Eh
 * total energy  :   -95.8304684 Eh     change       -0.7500279E-05 Eh
 * total energy  :   -95.8304740 Eh     change       -0.5591639E-05 Eh
 * total energy  :   -95.8304778 Eh     change       -0.3812694E-05 Eh
 * total energy  :   -95.8304797 Eh     change       -0.1969036E-05 Eh
 * total energy  :   -95.8304807 Eh     change       -0.9255625E-06 Eh
 * total energy  :   -95.8304813 Eh     change       -0.5958038E-06 Eh
 * total energy  :   -95.8304818 Eh     change       -0.5210345E-06 Eh
 * total energy  :   -95.8304818 Eh     change       -0.6225250E-08 Eh
   *** GEOMETRY OPTIMIZATION CONVERGED AFTER 44 ITERATIONS ***

 final structure:
================
60
 xtb: 6.7.1 (edcfbbe)
C            1.64744941671908        1.34591140136545       -2.55932377814053
C            0.52231781385914        1.35995278910046       -1.75561273743612
C            0.59728655352794        0.93708428107780       -0.42998659333768
C           -0.59726700583844        0.93707760766078        0.42993812811374
C           -0.52230351998766        1.36000032473663        1.75554732162262
C           -1.64744880950971        1.34605636282193        2.55923619223549
C           -2.86305498567771        0.91271370701291        2.06045171821697
C           -2.95206533383515        0.50652082574098        0.73262538573381
N           -4.17764016455438        0.05787861185340        0.20824033596387
C           -5.42137293661074        0.63586632185588        0.40022140629704
C           -5.75610151106221        1.82830337784546        1.02669269804172
C           -7.08916351101052        2.19303559493616        1.05449194709623
C           -8.07494052169765        1.40122471672079        0.46861169506371
C           -7.74761055548154        0.22826432333507       -0.18164071727080
C           -6.41334592622001       -0.15755477713620       -0.22411523903775
C           -5.72693687995778       -1.26396875328566       -0.82545142298855
C           -6.09225195723028       -2.37921788047935       -1.56260530992201
C           -5.07831936729099       -3.23346499822213       -1.96949827544502
C           -3.75940000747827       -2.94970613495111       -1.62811092091754
N           -3.37796085116571       -1.89485981136603       -0.92403709407770
C           -4.34724580087607       -1.07912418397286       -0.54091428325929
C           -1.82331805040237        0.51799246629413       -0.07561588589393
C            1.82333105351145        0.51799448932502        0.07557480532347
C            2.95207217645598        0.50647239777921       -0.73267426627533
N            4.17764496837474        0.05785113944656       -0.20826581985830
C            5.42137579438352        0.63584545141589       -0.40023349591593
C            5.75610816999703        1.82827393817475       -1.02671892778348
C            7.08916682336681        2.19302201352170       -1.05448695133916
C            8.07493874854728        1.40122603255125       -0.46857728482157
C            7.74760719869735        0.22826484074780        0.18167247119878
C            6.41334375633487       -0.15755962369172        0.22413236807613
C            5.72692761943034       -1.26395242913371        0.82549926916231
C            6.09223145469980       -2.37917075121256        1.56270513851392
C            5.07829865223078       -3.23342533174727        1.96957960868033
C            3.75938578541941       -2.94969164009971        1.62814599111263
N            3.37795398483090       -1.89486220073261        0.92404215845972
C            4.34724208938274       -1.07913016744880        0.54092155091566
C            2.86305913259485        0.91259519571290       -2.06052129669589
H            1.57767375259857        1.66626665644199       -3.58846628436456
H           -0.41845757653822        1.70984714839429       -2.15279070168635
H            0.41847012730063        1.70993076145960        2.15270249769070
H           -1.57765214633231        1.66635785724540        3.58839569189701
H           -3.73270464075595        0.86969957702123        2.69835782384167
H           -5.00056238054986        2.46116222966945        1.46565541574495
H           -7.37255825023152        3.11613029104058        1.53836593255553
H           -9.10591426570081        1.71919911481283        0.51530217123765
H           -8.50698815899774       -0.37705052801620       -0.65345685781155
H           -7.12513095435664       -2.57603602316451       -1.81085657778856
H           -5.30183429792615       -4.11644406284092       -2.54776482382004
H           -2.95468678275085       -3.60460240176330       -1.93596310957340
H           -1.90117540699969        0.16484816366465       -1.09127205907949
H            1.90118493152953        0.16487446252486        1.09123829896140
H            5.00057271202122        2.46111161709324       -1.46571997258511
H            7.37256575381729        3.11610616885230       -1.53838032382873
H            9.10591043350835        1.71921436053660       -0.51524255881462
H            8.50697702956491       -0.37702204200265        0.65353848963159
H            7.12511167964354       -2.57599649976891        1.81094882288188
H            5.30180620859357       -4.11639846537582        2.54786100187429
H            2.95466622602549       -3.60457571596207        1.93600976612890
H            3.73272951005162        0.86963780258581       -2.69840253249693

          :  Hamiltonian                  GFN2-xTB          :
         :: gradient norm              0.000063806089 Eh/a0 ::
         :: HOMO-LUMO gap              3.005730025968 eV    ::
         :: SCC energy               -97.590635574717 Eh    ::
         :: -> dispersion             -0.080731498792 Eh    ::
         :: -> Gsolv                  -0.041510504027 Eh    ::
         :: repulsion energy           1.760153791645 Eh    ::

    * Orbital Energies and Occupations

         #    Occupation            Energy/Eh            Energy/eV
      -------------------------------------------------------------
         1        2.0000           -0.6845984             -18.6289
       ...           ...                  ...                  ...
        77        2.0000           -0.4216259             -11.4730
        78        2.0000           -0.4199753             -11.4281
        79        2.0000           -0.4190618             -11.4033
        80        2.0000           -0.4183388             -11.3836
        81        2.0000           -0.4103940             -11.1674
        82        2.0000           -0.4101647             -11.1611
        83        2.0000           -0.3930006             -10.6941
        84        2.0000           -0.3887740             -10.5791
        85        2.0000           -0.3887552             -10.5786
        86        2.0000           -0.3725707             -10.1382
        87        2.0000           -0.3723104             -10.1311
        88        2.0000           -0.3721656             -10.1271
        89        2.0000           -0.3716051             -10.1119 (HOMO)
        90                         -0.2611466              -7.1062 (LUMO)
        91                         -0.2610875              -7.1046
        92                         -0.2510688              -6.8319
        93                         -0.2375187              -6.4632
        94                         -0.2367821              -6.4432
        95                         -0.2306079              -6.2752
        96                         -0.2303651              -6.2686
        97                         -0.2096312              -5.7044
        98                         -0.1987815              -5.4091
        99                         -0.1986480              -5.4055
       100                         -0.1973693              -5.3707
       ...                                ...                  ...
       174                          0.7393741              20.1194
      -------------------------------------------------------------
                  HL-Gap            0.1104585 Eh            3.0057 eV

     #   Z          covCN         q      C6AA      α(0)
     1   6 C        2.918    -0.029    28.723     8.789
     2   6 C        2.924    -0.037    28.925     8.820
     3   6 C        2.977     0.016    27.651     8.625
     4   6 C        2.977     0.016    27.651     8.625
     5   6 C        2.924    -0.037    28.925     8.820
     6   6 C        2.918    -0.029    28.723     8.789
     7   6 C        2.921    -0.046    29.142     8.853
     8   6 C        2.912     0.067    26.493     8.440
     9   7 N        2.800    -0.053    22.263     7.008
    10   6 C        3.082     0.048    26.841     8.493
    11   6 C        2.910    -0.050    29.230     8.865
    12   6 C        2.924    -0.032    28.804     8.801
    13   6 C        2.920    -0.040    28.997     8.831
    14   6 C        2.912    -0.033    28.828     8.804
    15   6 C        3.065    -0.020    28.445     8.746
    16   6 C        3.066    -0.032    28.718     8.787
    17   6 C        2.919    -0.020    28.511     8.756
    18   6 C        2.917    -0.056    29.385     8.889
    19   6 C        2.930     0.057    26.726     8.478
    20   7 N        1.832    -0.276    28.006     7.842
    21   6 C        3.092     0.143    24.799     8.162
    22   6 C        2.928    -0.043    29.067     8.842
    23   6 C        2.928    -0.043    29.067     8.842
    24   6 C        2.912     0.067    26.493     8.440
    25   7 N        2.800    -0.053    22.263     7.008
    26   6 C        3.082     0.048    26.841     8.493
    27   6 C        2.910    -0.050    29.230     8.865
    28   6 C        2.924    -0.032    28.804     8.801
    29   6 C        2.920    -0.040    28.997     8.831
    30   6 C        2.912    -0.033    28.828     8.804
    31   6 C        3.065    -0.020    28.445     8.746
    32   6 C        3.066    -0.032    28.718     8.787
    33   6 C        2.919    -0.020    28.511     8.756
    34   6 C        2.917    -0.056    29.385     8.889
    35   6 C        2.930     0.057    26.726     8.478
    36   7 N        1.832    -0.276    28.006     7.842
    37   6 C        3.092     0.143    24.799     8.162
    38   6 C        2.921    -0.046    29.142     8.853
    39   1 H        0.926     0.044     2.397     2.421
    40   1 H        0.926     0.043     2.408     2.427
    41   1 H        0.926     0.043     2.408     2.427
    42   1 H        0.926     0.044     2.397     2.421
    43   1 H        0.926     0.044     2.402     2.424
    44   1 H        0.926     0.039     2.462     2.454
    45   1 H        0.926     0.038     2.474     2.460
    46   1 H        0.926     0.035     2.515     2.480
    47   1 H        0.926     0.036     2.509     2.477
    48   1 H        0.926     0.038     2.481     2.463
    49   1 H        0.926     0.035     2.510     2.477
    50   1 H        0.925     0.033     2.539     2.492
    51   1 H        0.926     0.052     2.298     2.370
    52   1 H        0.926     0.052     2.298     2.370
    53   1 H        0.926     0.039     2.462     2.454
    54   1 H        0.926     0.038     2.474     2.460
    55   1 H        0.926     0.035     2.515     2.480
    56   1 H        0.926     0.036     2.509     2.477
    57   1 H        0.926     0.038     2.481     2.463
    58   1 H        0.926     0.035     2.510     2.477
    59   1 H        0.925     0.033     2.539     2.492
    60   1 H        0.926     0.044     2.402     2.424

molecular dipole:
                 x           y           z       tot (Debye)
 q only:       -0.000       0.989      -0.000
   full:       -0.000       0.700      -0.000       1.780

 projected vibrational frequencies (cm⁻¹)
eigval :       -0.00    -0.00    -0.00     0.00     0.00     0.00
eigval :       12.09    15.85    21.95    34.13    41.53    60.33
eigval :       76.71    89.88    92.73   104.03   116.15   134.76
eigval :      137.31   147.39   189.57   213.28   222.43   232.87
eigval :      247.45   272.66   277.82   281.78   285.23   325.42
eigval :      327.74   350.85   383.95   388.45   392.79   396.62
eigval :      424.27   424.63   437.50   437.76   438.89   444.01
eigval :      514.70   515.58   523.58   533.60   548.38   548.95
eigval :      565.43   569.60   591.06   591.54   601.19   608.53
eigval :      614.99   616.03   653.01   668.52   675.58   683.73
eigval :      687.28   691.68   720.44   724.02   725.79   760.94
eigval :      767.23   775.40   775.50   790.77   793.34   794.61
eigval :      810.54   813.04   872.21   873.55   879.02   884.11
eigval :      899.17   899.67   904.41   904.44   906.93   906.95
eigval :      910.10   910.18   912.38   915.10   924.19   924.30
eigval :      926.05   936.21   937.12   986.23   999.52  1007.24
eigval :     1019.13  1020.54  1070.15  1070.16  1087.86  1088.15
eigval :     1093.78  1119.32  1120.18  1129.20  1130.03  1148.08
eigval :     1149.32  1169.59  1175.52  1176.98  1177.08  1189.03
eigval :     1189.93  1218.34  1219.62  1224.48  1239.05  1259.27
eigval :     1261.50  1281.96  1284.09  1290.34  1298.29  1299.12
eigval :     1316.12  1320.95  1337.65  1341.38  1341.78  1345.90
eigval :     1353.35  1354.01  1395.05  1400.34  1412.09  1423.71
eigval :     1424.22  1452.30  1464.21  1466.29  1467.62  1480.91
eigval :     1481.16  1488.34  1558.85  1559.26  1569.09  1570.88
eigval :     1572.18  1577.87  1588.47  1591.33  1592.31  1593.64
eigval :     1611.21  1611.35  3055.06  3055.10  3072.13  3072.15
eigval :     3075.71  3075.72  3078.59  3078.60  3082.57  3082.59
eigval :     3090.46  3090.48  3091.62  3091.71  3095.12  3095.13
eigval :     3097.35  3097.53  3098.77  3098.81  3111.61  3111.91

   temp. (K)  partition function   enthalpy   heat capacity  entropy
                                   cal/mol     cal/K/mol   cal/K/mol   J/K/mol
 298.15  VIB  0.670E+12            16104.129    106.521     98.066
         ROT  0.223E+08              888.752      2.981     36.604
         INT  0.149E+20            16992.882    109.502    134.669
         TR   0.104E+29             1481.254      4.968     44.414
         TOT                       18474.1356   114.4700   179.0833   749.2845

       T/K    H(0)-H(T)+PV         H(T)/Eh          T*S/Eh         G(T)/Eh
   ------------------------------------------------------------------------
    298.15    0.294404E-01    0.485341E+00    0.850882E-01    0.400252E+00
   ------------------------------------------------------------------------

         :::::::::::::::::::::::::::::::::::::::::::::::::::::
         ::                  THERMODYNAMIC                  ::
         :::::::::::::::::::::::::::::::::::::::::::::::::::::
         :: total free energy         -95.430229335106 Eh   ::
         ::.................................................::
         :: total energy              -95.830481783003 Eh   ::
         :: zero point energy           0.455900287424 Eh   ::
         :: G(RRHO) w/o ZPVE           -0.055647839527 Eh   ::
         :: G(RRHO) contrib.            0.400252447897 Eh   ::
         :::::::::::::::::::::::::::::::::::::::::::::::::::::

           -------------------------------------------------
          | TOTAL ENERGY              -95.830481783003 Eh   |
          | TOTAL ENTHALPY            -95.345141086612 Eh   |
          | TOTAL FREE ENERGY         -95.430229335106 Eh   |
          | GRADIENT NORM               0.000063800524 Eh/α |
          | HOMO-LUMO GAP               3.005729904821 eV   |
           -------------------------------------------------

 * finished run on 2025/09/10 at 02:23:58.541
