   * xtb version 6.7.1 (edcfbbe) compiled by 'albert@albert-system' on 2024-07-22

   ID    Z sym.   atoms
    1    6 C      1-8, 10-19, 21-24, 26-35, 37, 38
    2    7 N      9, 20, 25, 36
    3    1 H      39-60

          program call               : xtb data2507/toluene/CbBPCb/CbBPCb_toluene_T1_crest.xyz --gfn 2 --uhf 2 --gbsa toluene --ohess vtight --parallel 40 --molden --ceasefiles --namespace data2507/toluene/CbBPCb/CbBPCb_toluene_T1_finalOpt
      * Solvation model:               GBSA
        Solvent                        toluene
        Solvent mass                       9.2140E+01 g/mol
          :  Hamiltonian                  GFN2-xTB          :
 * total energy  :   -95.7223421 Eh     change       -0.6463807E-09 Eh
 * total energy  :   -95.7224047 Eh     change       -0.6254435E-04 Eh
 * total energy  :   -95.7224482 Eh     change       -0.4356643E-04 Eh
 * total energy  :   -95.7224687 Eh     change       -0.2044280E-04 Eh
 * total energy  :   -95.7224866 Eh     change       -0.1792033E-04 Eh
 * total energy  :   -95.7225089 Eh     change       -0.2234895E-04 Eh
 * total energy  :   -95.7225290 Eh     change       -0.2001440E-04 Eh
 * total energy  :   -95.7225412 Eh     change       -0.1223918E-04 Eh
 * total energy  :   -95.7225568 Eh     change       -0.1557153E-04 Eh
 * total energy  :   -95.7225759 Eh     change       -0.1914696E-04 Eh
 * total energy  :   -95.7228271 Eh     change        0.6967582E-08 Eh
 * total energy  :   -95.7228272 Eh     change       -0.1531736E-06 Eh
 * total energy  :   -95.7228276 Eh     change       -0.3592924E-06 Eh
 * total energy  :   -95.7228281 Eh     change       -0.5083402E-06 Eh
 * total energy  :   -95.7228283 Eh     change       -0.2350462E-06 Eh
 * total energy  :   -95.7228285 Eh     change       -0.1867009E-06 Eh
 * total energy  :   -95.7228287 Eh     change       -0.2019916E-06 Eh
 * total energy  :   -95.7228288 Eh     change       -0.1251261E-06 Eh
 * total energy  :   -95.7228289 Eh     change       -0.4619432E-07 Eh
   *** GEOMETRY OPTIMIZATION CONVERGED AFTER 77 ITERATIONS ***

 final structure:
================
60
 xtb: 6.7.1 (edcfbbe)
C            2.60865386414861       -3.67578055614009        1.13027825728470
C            1.28686132416445       -3.68106310915651        0.72792461392285
C            0.70284037381367       -2.53008105218124        0.17818459433536
C           -0.69873168809373       -2.52315212030356       -0.24397509070961
C           -1.30329875451469       -3.67399961124697       -0.76977370573435
C           -2.63768433394523       -3.66623262880933       -1.13011135715269
C           -3.40010846160228       -2.52035360372616       -0.99609041383163
C           -2.80422902905419       -1.35742351963586       -0.49593225693295
N           -3.56198688677923       -0.19223947632135       -0.36382722044132
C           -3.14492373251774        1.10214535286117       -0.64102841480612
C           -1.97501240546042        1.54585068733134       -1.22952453944650
C           -1.82346968590349        2.91520352128514       -1.43352135717354
C           -2.82279877218465        3.81087082702360       -1.06677484966829
C           -4.01412262166613        3.37334332172461       -0.51140912692038
C           -4.19144672002023        2.00599372871951       -0.30461787453756
C           -5.27650440979450        1.21865237981410        0.17809343812133
C           -6.56896915143575        1.46911280710897        0.65972455417883
C           -7.32731414412137        0.37148718293726        1.03739208581967
C           -6.80562925927775       -0.91408222800701        0.93264387584766
N           -5.57623645605107       -1.17615225411280        0.47292575671448
C           -4.85342405084290       -0.13653908550029        0.11041257523151
C           -1.46755796781578       -1.36815466476829       -0.11388550003197
C            1.49009882617960       -1.38980187020906        0.03799886780530
C            2.82282807805543       -1.38931318171497        0.42977861649519
N            3.58187087935625       -0.22650095781497        0.28544418421141
C            4.91561509750489       -0.14239614841549       -0.08886426871979
C            5.76505428080414       -1.12691581779176       -0.55976595367659
C            7.06529371229274       -0.76150084742639       -0.89923025709054
C            7.49432879813554        0.55729294952758       -0.78523644125891
C            6.64104992513087        1.55688360403997       -0.34828779906080
C            5.33411473634644        1.21526277032150       -0.00300945499242
C            4.20360577456061        1.96848383738886        0.42619316251371
C            3.93841282895245        3.31528379630316        0.71212181141887
C            2.65472486445617        3.63253702505352        1.12871106357681
C            1.68866561102584        2.63912750274338        1.25081438528036
N            1.91633490363136        1.34910295899339        0.97323817393775
C            3.13544532560646        1.04402367553978        0.57786524360466
C            3.38729950397810       -2.54047804247202        0.99189739866136
H            3.03785374093688       -4.56219421676822        1.57346136108563
H            0.68861343295047       -4.56717638700421        0.87116741103186
H           -0.71725426906108       -4.56911567912596       -0.90816567782743
H           -3.09031789220026       -4.56109436104152       -1.53048408991613
H           -4.43969239739335       -2.50478720809132       -1.27872435880628
H           -1.20512971408489        0.85874554106668       -1.54314498594121
H           -0.91493827681961        3.28293850134542       -1.88521726933315
H           -2.67117211258890        4.86740971083203       -1.23362103560348
H           -4.79528325126470        4.07097327957311       -0.25105252867051
H           -6.95406610728693        2.47440603888979        0.73225074877086
H           -8.32857308810432        0.50253912570574        1.41879103949433
H           -7.37987793309736       -1.78115063701576        1.22398838623554
H           -1.04039389816773       -0.48914065629517        0.34359744042254
H            1.08164217590443       -0.49409697646960       -0.40009044819496
H            5.43426950581044       -2.14618209831913       -0.68374194776450
H            7.74618699132614       -1.51497249790144       -1.26390759575632
H            8.51064043237862        0.80651964408984       -1.05364821447720
H            6.97408274198929        2.58119191321417       -0.27993651665743
H            4.70380511223564        4.06951655246087        0.61483501437404
H            2.39095583810709        4.65305090211737        1.36178552984687
H            0.68401642354145        2.86741112440594        1.57548175383958
H            4.40428643742539       -2.52316149073272        1.35028473927377

          :  Hamiltonian                  GFN2-xTB          :
         :: gradient norm              0.000067828194 Eh/a0 ::
         :: HOMO-LUMO gap              0.014213848654 eV    ::
         :: SCC energy               -97.463089944403 Eh    ::
         :: -> dispersion             -0.082582194160 Eh    ::
         :: -> Gsolv                  -0.041077644123 Eh    ::
         :: repulsion energy           1.740261050862 Eh    ::

    * Orbital Energies and Occupations

         #    Occupation            Energy/Eh            Energy/eV
      -------------------------------------------------------------
         1        2.0000           -0.6878041             -18.7161
       ...           ...                  ...                  ...
        78        2.0000           -0.4233989             -11.5213
        79        2.0000           -0.4200803             -11.4310
        80        2.0000           -0.4198110             -11.4236
        81        2.0000           -0.4146849             -11.2842
        82        2.0000           -0.4139301             -11.2636
        83        2.0000           -0.3952936             -10.7565
        84        2.0000           -0.3856083             -10.4929
        85        2.0000           -0.3854241             -10.4879
        86        1.9023           -0.3765329             -10.2460
        87        1.8895           -0.3764015             -10.2424
        88        1.7541           -0.3754851             -10.2175
        89        1.4541           -0.3742457             -10.1837
        90        0.5473           -0.2614797              -7.1152 (HOMO)
        91        0.4110           -0.2609573              -7.1010 (LUMO)
        92        0.0417           -0.2583214              -7.0293
        93                         -0.2392174              -6.5094
        94                         -0.2387466              -6.4966
        95                         -0.2331102              -6.3433
        96                         -0.2328116              -6.3351
        97                         -0.2115731              -5.7572
        98                         -0.1994074              -5.4262
        99                         -0.1976519              -5.3784
       100                         -0.1975731              -5.3762
       101                         -0.1914665              -5.2101
       ...                                ...                  ...
       174                          0.7363305              20.0366
      -------------------------------------------------------------
                  HL-Gap            0.0005224 Eh            0.0142 eV

     #   Z          covCN         q      C6AA      α(0)
     1   6 C        2.916    -0.028    28.692     8.784
     2   6 C        2.922    -0.035    28.871     8.811
     3   6 C        2.974     0.013    27.723     8.637
     4   6 C        2.974     0.012    27.739     8.639
     5   6 C        2.922    -0.035    28.860     8.810
     6   6 C        2.916    -0.026    28.653     8.778
     7   6 C        2.920    -0.041    29.011     8.833
     8   6 C        2.911     0.068    26.486     8.439
     9   7 N        2.800    -0.028    21.790     6.933
    10   6 C        3.069     0.042    26.978     8.517
    11   6 C        2.908    -0.042    29.039     8.836
    12   6 C        2.921    -0.043    29.066     8.841
    13   6 C        2.917    -0.032    28.794     8.799
    14   6 C        2.910    -0.037    28.914     8.817
    15   6 C        3.064    -0.023    28.510     8.756
    16   6 C        3.059    -0.033    28.766     8.796
    17   6 C        2.915    -0.039    28.972     8.826
    18   6 C        2.914    -0.045    29.108     8.847
    19   6 C        2.916     0.036    27.198     8.552
    20   7 N        1.832    -0.261    27.639     7.791
    21   6 C        3.073     0.141    24.850     8.173
    22   6 C        2.926    -0.048    29.192     8.860
    23   6 C        2.927    -0.044    29.085     8.844
    24   6 C        2.911     0.067    26.507     8.442
    25   7 N        2.800    -0.031    21.832     6.940
    26   6 C        3.068     0.042    26.999     8.520
    27   6 C        2.908    -0.044    29.094     8.845
    28   6 C        2.921    -0.044    29.091     8.845
    29   6 C        2.917    -0.032    28.802     8.801
    30   6 C        2.910    -0.037    28.916     8.818
    31   6 C        3.064    -0.023    28.523     8.758
    32   6 C        3.059    -0.034    28.783     8.798
    33   6 C        2.915    -0.039    28.981     8.828
    34   6 C        2.914    -0.045    29.120     8.849
    35   6 C        2.916     0.037    27.181     8.549
    36   7 N        1.832    -0.267    27.794     7.812
    37   6 C        3.073     0.142    24.847     8.173
    38   6 C        2.919    -0.047    29.158     8.855
    39   1 H        0.926     0.048     2.349     2.397
    40   1 H        0.926     0.050     2.319     2.381
    41   1 H        0.926     0.051     2.309     2.376
    42   1 H        0.926     0.049     2.334     2.389
    43   1 H        0.926     0.053     2.282     2.362
    44   1 H        0.926     0.038     2.474     2.459
    45   1 H        0.926     0.033     2.548     2.496
    46   1 H        0.926     0.036     2.505     2.475
    47   1 H        0.926     0.035     2.515     2.480
    48   1 H        0.926     0.033     2.541     2.493
    49   1 H        0.926     0.035     2.510     2.478
    50   1 H        0.926     0.032     2.552     2.498
    51   1 H        0.926     0.051     2.302     2.372
    52   1 H        0.926     0.052     2.293     2.368
    53   1 H        0.926     0.041     2.439     2.442
    54   1 H        0.926     0.035     2.510     2.478
    55   1 H        0.926     0.036     2.509     2.477
    56   1 H        0.926     0.034     2.536     2.490
    57   1 H        0.926     0.032     2.561     2.503
    58   1 H        0.926     0.033     2.538     2.491
    59   1 H        0.926     0.028     2.611     2.527
    60   1 H        0.926     0.047     2.362     2.403

molecular dipole:
                 x           y           z       tot (Debye)
 q only:        0.688      -1.127      -0.417
   full:        0.713      -0.580      -0.355       2.503

 projected vibrational frequencies (cm⁻¹)
eigval :       -0.00    -0.00     0.00     0.00     0.00     0.00
eigval :       11.56    19.88    28.84    40.28    41.62    58.45
eigval :       75.86    78.96    89.76   106.58   114.26   130.71
eigval :      134.32   169.38   180.22   205.86   211.08   220.23
eigval :      238.45   257.27   260.07   277.28   294.04   303.93
eigval :      337.57   344.02   362.90   366.20   381.18   383.27
eigval :      419.21   421.41   421.70   431.07   432.51   444.92
eigval :      495.70   497.19   501.48   503.09   507.53   528.47
eigval :      545.95   566.93   567.71   581.54   582.04   604.62
eigval :      606.39   617.89   632.66   650.21   656.13   663.92
eigval :      665.16   678.45   681.98   682.70   710.08   721.42
eigval :      727.08   743.56   748.29   751.06   752.57   771.29
eigval :      785.09   804.09   812.44   816.05   837.88   839.71
eigval :      852.47   866.40   871.52   875.38   876.99   878.40
eigval :      889.18   895.37   896.64   897.77   900.67   902.73
eigval :      906.81   917.78   920.16   967.41   981.70   985.13
eigval :     1002.99  1005.66  1045.33  1062.55  1069.67  1078.48
eigval :     1082.67  1096.32  1098.72  1111.71  1118.49  1121.27
eigval :     1127.00  1131.25  1142.07  1161.88  1166.36  1175.84
eigval :     1180.11  1189.14  1193.78  1204.30  1208.58  1239.55
eigval :     1243.69  1254.01  1255.01  1263.98  1266.31  1278.44
eigval :     1283.76  1289.06  1297.75  1304.97  1324.64  1331.31
eigval :     1333.67  1341.04  1372.37  1375.20  1391.66  1396.29
eigval :     1402.45  1405.68  1412.36  1417.23  1427.02  1429.67
eigval :     1448.92  1449.33  1458.50  1466.27  1474.01  1482.33
eigval :     1499.05  1504.30  1513.31  1519.64  1547.19  1549.55
eigval :     1560.29  1582.55  3070.22  3072.47  3075.12  3075.44
eigval :     3079.13  3079.59  3080.73  3082.66  3086.23  3086.88
eigval :     3090.83  3091.03  3091.64  3092.68  3097.70  3099.21
eigval :     3100.26  3100.84  3101.25  3105.47  3116.20  3117.94

   temp. (K)  partition function   enthalpy   heat capacity  entropy
                                   cal/mol     cal/K/mol   cal/K/mol   J/K/mol
 298.15  VIB  0.701E+12            16581.337    110.155    100.547
         ROT  0.390E+08              888.752      2.981     37.716
         INT  0.273E+20            17470.090    113.136    138.263
         TR   0.104E+29             1481.254      4.968     44.414
         TOT                       18951.3436   118.1039   182.6768   764.3196

       T/K    H(0)-H(T)+PV         H(T)/Eh          T*S/Eh         G(T)/Eh
   ------------------------------------------------------------------------
    298.15    0.302009E-01    0.478033E+00    0.867956E-01    0.391238E+00
   ------------------------------------------------------------------------

         :::::::::::::::::::::::::::::::::::::::::::::::::::::
         ::                  THERMODYNAMIC                  ::
         :::::::::::::::::::::::::::::::::::::::::::::::::::::
         :: total free energy         -95.331591050969 Eh   ::
         ::.................................................::
         :: total energy              -95.722828884227 Eh   ::
         :: zero point energy           0.447832569630 Eh   ::
         :: G(RRHO) w/o ZPVE           -0.056594736372 Eh   ::
         :: G(RRHO) contrib.            0.391237833258 Eh   ::
         :::::::::::::::::::::::::::::::::::::::::::::::::::::

           -------------------------------------------------
          | TOTAL ENERGY              -95.722828884227 Eh   |
          | TOTAL ENTHALPY            -95.244795426271 Eh   |
          | TOTAL FREE ENERGY         -95.331591050969 Eh   |
          | GRADIENT NORM               0.000079281800 Eh/α |
          | HOMO-LUMO GAP               0.014214195701 eV   |
           -------------------------------------------------

 * finished run on 2025/09/10 at 02:31:14.816
