   * xtb version 6.7.1 (edcfbbe) compiled by 'albert@albert-system' on 2024-07-22

   ID    Z sym.   atoms
    1    6 C      1-8, 10-19, 21-24, 26-35, 37, 38
    2    7 N      9, 20, 25, 36
    3    1 H      39-60

          program call               : xtb data2507/toluene/CbBPCb/CbBPCb_toluene_S0_finalOpt.xtbopt.xyz --gfn 2 --uhf 2 --gbsa toluene --ohess vtight --parallel 40 --molden --ceasefiles --namespace data2507/toluene/CbBPCb/CbBPCb_toluene_T1_preOpt
      * Solvation model:               GBSA
        Solvent                        toluene
        Solvent mass                       9.2140E+01 g/mol
          :  Hamiltonian                  GFN2-xTB          :
 * total energy  :   -95.7206906 Eh     change       -0.6718214E-07 Eh
 * total energy  :   -95.7222256 Eh     change       -0.1535059E-02 Eh
 * total energy  :   -95.7225812 Eh     change       -0.3555701E-03 Eh
 * total energy  :   -95.7226368 Eh     change       -0.5556114E-04 Eh
 * total energy  :   -95.7226787 Eh     change       -0.4190404E-04 Eh
 * total energy  :   -95.7227036 Eh     change       -0.2494055E-04 Eh
 * total energy  :   -95.7227314 Eh     change       -0.2773847E-04 Eh
 * total energy  :   -95.7227550 Eh     change       -0.2366036E-04 Eh
 * total energy  :   -95.7227685 Eh     change       -0.1346985E-04 Eh
 * total energy  :   -95.7227774 Eh     change       -0.8885852E-05 Eh
 * total energy  :   -95.7228196 Eh     change       -0.2538523E-06 Eh
 * total energy  :   -95.7228198 Eh     change       -0.1941399E-06 Eh
 * total energy  :   -95.7228199 Eh     change       -0.1545807E-06 Eh
 * total energy  :   -95.7228201 Eh     change       -0.1555781E-06 Eh
 * total energy  :   -95.7228202 Eh     change       -0.1611816E-06 Eh
 * total energy  :   -95.7228204 Eh     change       -0.1548782E-06 Eh
 * total energy  :   -95.7228205 Eh     change       -0.1476968E-06 Eh
 * total energy  :   -95.7228207 Eh     change       -0.1313263E-06 Eh
 * total energy  :   -95.7228207 Eh     change       -0.2428820E-08 Eh
   *** GEOMETRY OPTIMIZATION CONVERGED AFTER 44 ITERATIONS ***

 final structure:
================
60
 xtb: 6.7.1 (edcfbbe)
C            2.60020312258380       -3.65849710643427        1.14648107593336
C            1.28013447232560       -3.66192957450154        0.73832587103247
C            0.70301799858388       -2.51294530957337        0.17796003670936
C           -0.69724382521409       -2.50654053252343       -0.25015749793809
C           -1.29482365467221       -3.65663886528742       -0.78475272015797
C           -2.62803950404251       -3.65210326264024       -1.14954674597813
C           -3.39536734521640       -2.51037979322162       -1.00958886448511
C           -2.80649743178423       -1.34814174771551       -0.49967642421739
N           -3.57245691736323       -0.18952785495859       -0.35816117468268
C           -3.16577214348673        1.11133272348604       -0.62046464559204
C           -1.99688966221254        1.57204001596290       -1.19770504052068
C           -1.85702613563957        2.94486835143863       -1.38681651231985
C           -2.86645125964034        3.82748619249585       -1.01616057192786
C           -4.05655870124901        3.37323856630418       -0.47181634202116
C           -4.22242382431470        2.00216297572431       -0.28046080219499
C           -5.30251196770721        1.20045520850842        0.18906307049357
C           -6.60001065991554        1.43436595338404        0.66598721868952
C           -7.35000756973548        0.32628258919821        1.02929560339914
C           -6.81574153413421       -0.95337468957083        0.91571133203132
N           -5.58124244249621       -1.19952556978393        0.46054415579343
C           -4.86657983340860       -0.14999656101262        0.11077849614974
C           -1.47015861607015       -1.35515058362702       -0.11540755130041
C            1.49402616036546       -1.37625030260162        0.03237381823200
C            2.82600836984532       -1.37872150344370        0.42747109513553
N            3.59280336533308       -0.22223831339578        0.27337907229568
C            4.92785597326886       -0.15222478222619       -0.09950135784218
C            5.76952311270974       -1.14748142897347       -0.56158901070973
C            7.07344429064322       -0.79579393688592       -0.90166372018409
C            7.51343013528802        0.52012376211630       -0.79699468696237
C            6.66797856498307        1.53032114702109       -0.36926196941442
C            5.35771979017064        1.20239893186532       -0.02299264019617
C            4.23300645721331        1.96823992799501        0.39881375475966
C            3.97938307721877        3.31910585232450        0.67629927124636
C            2.69810107118611        3.65015936665799        1.08945596604811
C            1.72307278328122        2.66613393816425        1.21632452062989
N            1.93958356282781        1.37240631678041        0.94658654191851
C            3.15657859621175        1.05409082698860        0.55534427928692
C            3.38343484411834       -2.52735684811346        1.00132201631388
H            3.02429847733047       -4.54281043903265        1.59863573493966
H            0.67764627389765       -4.54463544121883        0.88509002843992
H           -0.70422736886944       -4.54832190054875       -0.92623323077179
H           -3.07576983896294       -4.54605906921770       -1.55732183537228
H           -4.43434271596019       -2.49766995937386       -1.29461960816915
H           -1.21865710952034        0.89578857663530       -1.51417860571438
H           -0.94959221806927        3.32551725430828       -1.82990654576068
H           -2.72382143028717        4.88705325714969       -1.17141107068747
H           -4.84550794967615        4.06080405692455       -0.20816036606278
H           -6.99499858281136        2.43525940564866        0.74555179135618
H           -8.35420487373739        0.44454793285755        1.40714144587241
H           -7.38299756858259       -1.82841464628222        1.19668109556936
H           -1.04667392541940       -0.47741319045741        0.34800328253809
H            1.08954243815074       -0.48224209458099       -0.41298570655344
H            5.43024002759911       -2.16481559233930       -0.67835134172219
H            7.74854566847090       -1.55790260899017       -1.25910824258741
H            8.53236156414943        0.75856538382547       -1.06533902150641
H            7.00964997874029        2.55226715914639       -0.30832007859994
H            4.75166010841815        4.06585189923501        0.57572720042826
H            2.44307052164856        4.67442295302449        1.31575887220329
H            0.72011721523332        2.90531754147502        1.53823590250211
H            4.39938121132754       -2.51104390802315        1.36278670070138

          :  Hamiltonian                  GFN2-xTB          :
         :: gradient norm              0.000060131978 Eh/a0 ::
         :: HOMO-LUMO gap              0.013730086890 eV    ::
         :: SCC energy               -97.463100265935 Eh    ::
         :: -> dispersion             -0.082547718857 Eh    ::
         :: -> Gsolv                  -0.041085423532 Eh    ::
         :: repulsion energy           1.740279612861 Eh    ::

    * Orbital Energies and Occupations

         #    Occupation            Energy/Eh            Energy/eV
      -------------------------------------------------------------
         1        2.0000           -0.6877448             -18.7145
       ...           ...                  ...                  ...
        78        2.0000           -0.4233828             -11.5208
        79        2.0000           -0.4200625             -11.4305
        80        2.0000           -0.4197920             -11.4231
        81        2.0000           -0.4147120             -11.2849
        82        2.0000           -0.4139969             -11.2654
        83        2.0000           -0.3956024             -10.7649
        84        2.0000           -0.3854871             -10.4896
        85        2.0000           -0.3853245             -10.4852
        86        1.9025           -0.3765139             -10.2455
        87        1.8890           -0.3763765             -10.2417
        88        1.7553           -0.3754708             -10.2171
        89        1.4533           -0.3742219             -10.1831
        90        0.5460           -0.2613910              -7.1128 (HOMO)
        91        0.4142           -0.2608863              -7.0991 (LUMO)
        92        0.0398           -0.2581901              -7.0257
        93                         -0.2393044              -6.5118
        94                         -0.2387816              -6.4976
        95                         -0.2330644              -6.3420
        96                         -0.2328076              -6.3350
        97                         -0.2118492              -5.7647
        98                         -0.1993542              -5.4247
        99                         -0.1975513              -5.3756
       100                         -0.1974920              -5.3740
       101                         -0.1915670              -5.2128
       ...                                ...                  ...
       174                          0.7364188              20.0390
      -------------------------------------------------------------
                  HL-Gap            0.0005047 Eh            0.0137 eV

     #   Z          covCN         q      C6AA      α(0)
     1   6 C        2.916    -0.028    28.690     8.783
     2   6 C        2.922    -0.035    28.870     8.811
     3   6 C        2.974     0.013    27.717     8.636
     4   6 C        2.974     0.012    27.733     8.638
     5   6 C        2.922    -0.034    28.859     8.810
     6   6 C        2.916    -0.026    28.651     8.777
     7   6 C        2.920    -0.041    29.008     8.832
     8   6 C        2.911     0.068    26.484     8.439
     9   7 N        2.800    -0.028    21.790     6.933
    10   6 C        3.069     0.042    26.981     8.517
    11   6 C        2.908    -0.042    29.040     8.836
    12   6 C        2.920    -0.043    29.069     8.841
    13   6 C        2.917    -0.032    28.794     8.799
    14   6 C        2.910    -0.037    28.915     8.817
    15   6 C        3.064    -0.023    28.512     8.756
    16   6 C        3.058    -0.033    28.768     8.796
    17   6 C        2.915    -0.039    28.976     8.827
    18   6 C        2.914    -0.045    29.106     8.847
    19   6 C        2.916     0.036    27.203     8.553
    20   7 N        1.832    -0.261    27.637     7.790
    21   6 C        3.073     0.141    24.851     8.174
    22   6 C        2.926    -0.048    29.188     8.860
    23   6 C        2.927    -0.044    29.081     8.844
    24   6 C        2.911     0.067    26.506     8.442
    25   7 N        2.800    -0.031    21.834     6.940
    26   6 C        3.068     0.042    27.000     8.520
    27   6 C        2.908    -0.044    29.095     8.845
    28   6 C        2.921    -0.044    29.094     8.845
    29   6 C        2.917    -0.032    28.803     8.801
    30   6 C        2.910    -0.037    28.917     8.818
    31   6 C        3.064    -0.023    28.525     8.758
    32   6 C        3.059    -0.034    28.784     8.798
    33   6 C        2.915    -0.040    28.985     8.828
    34   6 C        2.914    -0.045    29.121     8.849
    35   6 C        2.916     0.036    27.185     8.550
    36   7 N        1.832    -0.267    27.794     7.812
    37   6 C        3.072     0.142    24.846     8.173
    38   6 C        2.920    -0.046    29.152     8.854
    39   1 H        0.926     0.048     2.347     2.396
    40   1 H        0.926     0.050     2.318     2.381
    41   1 H        0.926     0.051     2.308     2.375
    42   1 H        0.926     0.049     2.332     2.388
    43   1 H        0.926     0.053     2.279     2.361
    44   1 H        0.926     0.038     2.473     2.459
    45   1 H        0.926     0.033     2.548     2.496
    46   1 H        0.926     0.036     2.506     2.476
    47   1 H        0.926     0.035     2.517     2.481
    48   1 H        0.926     0.033     2.543     2.494
    49   1 H        0.926     0.035     2.511     2.478
    50   1 H        0.926     0.032     2.553     2.499
    51   1 H        0.926     0.052     2.301     2.372
    52   1 H        0.926     0.052     2.293     2.368
    53   1 H        0.926     0.041     2.440     2.443
    54   1 H        0.926     0.035     2.512     2.478
    55   1 H        0.926     0.035     2.510     2.478
    56   1 H        0.926     0.033     2.537     2.491
    57   1 H        0.926     0.032     2.563     2.503
    58   1 H        0.926     0.033     2.539     2.492
    59   1 H        0.926     0.028     2.609     2.526
    60   1 H        0.926     0.047     2.360     2.402

molecular dipole:
                 x           y           z       tot (Debye)
 q only:        0.681      -1.143      -0.408
   full:        0.706      -0.600      -0.346       2.512

 projected vibrational frequencies (cm⁻¹)
eigval :       -0.00    -0.00    -0.00    -0.00     0.00     0.00
eigval :       12.68    20.15    29.07    39.46    42.43    59.07
eigval :       75.61    79.03    90.32   106.77   113.56   130.74
eigval :      134.73   169.96   180.58   206.26   210.99   220.90
eigval :      239.03   257.07   260.62   277.76   293.73   303.81
eigval :      337.96   344.29   362.70   365.85   381.11   383.13
eigval :      419.44   421.87   422.25   431.15   432.85   444.70
eigval :      495.29   497.19   501.86   503.08   508.05   528.86
eigval :      546.40   566.89   567.75   581.75   582.34   604.74
eigval :      606.35   618.14   632.69   650.72   656.96   664.29
eigval :      665.57   678.50   682.07   682.75   710.12   721.03
eigval :      725.59   743.53   747.79   751.46   752.26   772.68
eigval :      786.88   804.36   812.10   815.09   837.75   839.34
eigval :      853.37   868.24   872.68   875.73   877.80   877.92
eigval :      889.28   895.14   896.44   897.72   900.18   902.64
eigval :      906.83   917.41   921.69   968.92   981.68   985.03
eigval :     1003.39  1005.81  1044.85  1062.73  1069.41  1078.33
eigval :     1083.16  1096.67  1099.26  1112.10  1118.63  1121.77
eigval :     1127.62  1131.54  1142.76  1162.09  1165.81  1176.33
eigval :     1180.34  1188.80  1193.73  1204.56  1208.68  1239.72
eigval :     1243.57  1254.06  1254.98  1264.27  1266.27  1278.33
eigval :     1283.61  1289.21  1297.95  1304.59  1324.28  1330.84
eigval :     1333.81  1341.25  1372.90  1375.26  1391.81  1396.54
eigval :     1402.76  1405.34  1412.67  1417.35  1427.14  1430.44
eigval :     1448.62  1449.38  1458.75  1466.23  1474.67  1482.44
eigval :     1499.88  1505.32  1513.64  1519.82  1547.09  1549.52
eigval :     1560.16  1582.66  3070.74  3072.47  3074.85  3075.33
eigval :     3079.17  3080.29  3080.53  3083.13  3086.22  3086.57
eigval :     3090.78  3091.10  3091.66  3092.73  3097.39  3099.24
eigval :     3100.06  3100.43  3101.34  3105.22  3116.21  3117.81

   temp. (K)  partition function   enthalpy   heat capacity  entropy
                                   cal/mol     cal/K/mol   cal/K/mol   J/K/mol
 298.15  VIB  0.615E+12            16571.842    110.141    100.391
         ROT  0.391E+08              888.752      2.981     37.723
         INT  0.241E+20            17460.594    113.122    138.114
         TR   0.104E+29             1481.254      4.968     44.414
         TOT                       18941.8478   118.0903   182.5279   763.6968

       T/K    H(0)-H(T)+PV         H(T)/Eh          T*S/Eh         G(T)/Eh
   ------------------------------------------------------------------------
    298.15    0.301858E-01    0.478077E+00    0.867249E-01    0.391352E+00
   ------------------------------------------------------------------------

         :::::::::::::::::::::::::::::::::::::::::::::::::::::
         ::                  THERMODYNAMIC                  ::
         :::::::::::::::::::::::::::::::::::::::::::::::::::::
         :: total free energy         -95.331468972391 Eh   ::
         ::.................................................::
         :: total energy              -95.722820677186 Eh   ::
         :: zero point energy           0.447890852956 Eh   ::
         :: G(RRHO) w/o ZPVE           -0.056539148161 Eh   ::
         :: G(RRHO) contrib.            0.391351704795 Eh   ::
         :::::::::::::::::::::::::::::::::::::::::::::::::::::

           -------------------------------------------------
          | TOTAL ENERGY              -95.722820677186 Eh   |
          | TOTAL ENTHALPY            -95.244744068360 Eh   |
          | TOTAL FREE ENERGY         -95.331468972391 Eh   |
          | GRADIENT NORM               0.000042549754 Eh/α |
          | HOMO-LUMO GAP               0.013733583219 eV   |
           -------------------------------------------------

 * finished run on 2025/09/10 at 02:26:32.244
