   * xtb version 6.7.1 (edcfbbe) compiled by 'albert@albert-system' on 2024-07-22

   ID    Z sym.   atoms
    1    6 C      1-8, 10-19, 21-24, 26-35, 37, 38
    2    7 N      9, 20, 25, 36
    3    1 H      39-60

          program call               : xtb data2507/toluene/CbBPCb/CbBPCb_toluene_S0_crest.xyz --gfn 2 --gbsa toluene --ohess vtight --parallel 40 --molden --ceasefiles --namespace data2507/toluene/CbBPCb/CbBPCb_toluene_S0_finalOpt
      * Solvation model:               GBSA
        Solvent                        toluene
        Solvent mass                       9.2140E+01 g/mol
          :  Hamiltonian                  GFN2-xTB          :
 * total energy  :   -95.8318020 Eh     change       -0.2809742E-08 Eh
 * total energy  :   -95.8318538 Eh     change       -0.5171203E-04 Eh
 * total energy  :   -95.8318951 Eh     change       -0.4132061E-04 Eh
 * total energy  :   -95.8319240 Eh     change       -0.2893789E-04 Eh
 * total energy  :   -95.8319510 Eh     change       -0.2702773E-04 Eh
 * total energy  :   -95.8320041 Eh     change       -0.5301186E-04 Eh
 * total energy  :   -95.8320345 Eh     change       -0.3042949E-04 Eh
 * total energy  :   -95.8320624 Eh     change       -0.2788968E-04 Eh
 * total energy  :   -95.8320951 Eh     change       -0.3269839E-04 Eh
 * total energy  :   -95.8321281 Eh     change       -0.3308234E-04 Eh
 * total energy  :   -95.8323960 Eh     change       -0.6962233E-06 Eh
 * total energy  :   -95.8323967 Eh     change       -0.7184381E-06 Eh
 * total energy  :   -95.8323974 Eh     change       -0.6685160E-06 Eh
 * total energy  :   -95.8323979 Eh     change       -0.5151457E-06 Eh
 * total energy  :   -95.8323983 Eh     change       -0.3776803E-06 Eh
 * total energy  :   -95.8323985 Eh     change       -0.2673622E-06 Eh
 * total energy  :   -95.8323988 Eh     change       -0.2382826E-06 Eh
 * total energy  :   -95.8323989 Eh     change       -0.1720259E-06 Eh
 * total energy  :   -95.8323990 Eh     change       -0.9828551E-07 Eh
   *** GEOMETRY OPTIMIZATION CONVERGED AFTER 58 ITERATIONS ***

 final structure:
================
60
 xtb: 6.7.1 (edcfbbe)
C            2.55145083630296       -3.62570001669223        1.26887850491248
C            1.24633979096550       -3.63993838897297        0.81182998501047
C            0.70356160326895       -2.51481414273506        0.19400856891331
C           -0.69245375279688       -2.50591323274305       -0.27207400845205
C           -1.25471791314969       -3.62545204936860       -0.88172498911167
C           -2.57262917331392       -3.60591093142318       -1.30140227520870
C           -3.34728703937634       -2.47224951057111       -1.13524044343727
C           -2.79245916983745       -1.34652406613889       -0.53592429701595
N           -3.57359744929485       -0.18980154181797       -0.36149365874259
C           -3.18366076219172        1.11454235176740       -0.61463403901715
C           -2.01038668100381        1.59406766590373       -1.17964401522512
C           -1.88826789372726        2.95910970122010       -1.35888134885944
C           -2.90622680118783        3.83731850473849       -0.99226915047498
C           -4.08752510404984        3.36713098371423       -0.45452704398362
C           -4.23457262903952        1.99774788421037       -0.26989749008196
C           -5.31026607623097        1.17906117542914        0.20897106287634
C           -6.58965710731144        1.40142502310151        0.69270776809705
C           -7.33488987153433        0.28980854086640        1.05649543745149
C           -6.78252270966143       -0.98119103074809        0.93030065856953
N           -5.56420104831488       -1.22753781957847        0.47254598277687
C           -4.85727807344319       -0.16498546342613        0.12101221603894
C           -1.47502689337212       -1.36847271471011       -0.09663252654423
C            1.50315943465884       -1.38965978872879        0.02407422975689
C            2.81547738243628       -1.37995021650359        0.47606000814982
N            3.59407206145853       -0.22106105580285        0.30961005751322
C            4.92066642659858       -0.15853772762824       -0.08342645510951
C            5.76347645112948       -1.17084160706109       -0.52049499956114
C            7.05287055317141       -0.82845551555355       -0.88275268750441
C            7.50188399569502        0.48941561344105       -0.82483414420172
C            6.66136299672645        1.50685552501182       -0.41971627091854
C            5.36011862339201        1.18649021897178       -0.05225498253475
C            4.23715676173761        1.96948051633147        0.37547801018142
C            3.99543648738122        3.31250896474762        0.61697370170536
C            2.72181023927457        3.66453677744469        1.03819429348737
C            1.75399123293798        2.67885656826711        1.20478859370639
N            1.95216004507593        1.38829919850367        0.98129933025963
C            3.16760756124174        1.05598573666367        0.57475660541648
C            3.34045746858679       -2.49957866303699        1.11363933642998
H            2.95714860684654       -4.49536006700583        1.76443698505554
H            0.63380782278927       -4.51593953628517        0.96099017494322
H           -0.65272369109788       -4.50748005696052       -1.03895552775321
H           -3.00047698388228       -4.47953980265458       -1.77029081753462
H           -4.37664740500530       -2.45146016200093       -1.45509873355315
H           -1.22190810735665        0.92460455140402       -1.48550677793368
H           -0.98215866021034        3.35337360341897       -1.79524557551150
H           -2.77004609927230        4.89780653079169       -1.14434119161909
H           -4.88628800783561        4.04311923073716       -0.18855811681449
H           -6.99093545245797        2.40047263322626        0.78303233399144
H           -8.33791862904576        0.40047170671808        1.43794932656118
H           -7.34841160724292       -1.86003954905262        1.21064216703204
H           -1.06551449058271       -0.51078349954908        0.41547610946759
H            1.11269773542014       -0.51153310952219       -0.46407928356604
H            5.42275116249030       -2.19201217316670       -0.59126566441571
H            7.72650443304667       -1.60087821311692       -1.22329571412971
H            8.51789726648587        0.71512937326209       -1.11279186372428
H            7.00027763813460        2.53159582335425       -0.39309084278185
H            4.76792387969076        4.05593345812888        0.48397843889932
H            2.47415485378634        4.69482610392553        1.24068496750773
H            0.75618230396955        2.93484510812648        1.53668975128011
H            4.34746860962562       -2.47873146147344        1.50133373453375

          :  Hamiltonian                  GFN2-xTB          :
         :: gradient norm              0.000026612640 Eh/a0 ::
         :: HOMO-LUMO gap              2.968591182970 eV    ::
         :: SCC energy               -97.592645326572 Eh    ::
         :: -> dispersion             -0.082490368131 Eh    ::
         :: -> Gsolv                  -0.040935564553 Eh    ::
         :: repulsion energy           1.760246290729 Eh    ::

    * Orbital Energies and Occupations

         #    Occupation            Energy/Eh            Energy/eV
      -------------------------------------------------------------
         1        2.0000           -0.6859930             -18.6668
       ...           ...                  ...                  ...
        77        2.0000           -0.4235380             -11.5251
        78        2.0000           -0.4219498             -11.4818
        79        2.0000           -0.4195468             -11.4164
        80        2.0000           -0.4190046             -11.4017
        81        2.0000           -0.4115419             -11.1986
        82        2.0000           -0.4108073             -11.1786
        83        2.0000           -0.3935420             -10.7088
        84        2.0000           -0.3900717             -10.6144
        85        2.0000           -0.3888610             -10.5814
        86        2.0000           -0.3748668             -10.2006
        87        2.0000           -0.3734393             -10.1618
        88        2.0000           -0.3727817             -10.1439
        89        2.0000           -0.3717226             -10.1151 (HOMO)
        90                         -0.2626289              -7.1465 (LUMO)
        91                         -0.2612521              -7.1090
        92                         -0.2519172              -6.8550
        93                         -0.2388026              -6.4981
        94                         -0.2371641              -6.4536
        95                         -0.2317211              -6.3055
        96                         -0.2308089              -6.2806
        97                         -0.2101264              -5.7178
        98                         -0.2000877              -5.4447
        99                         -0.1988867              -5.4120
       100                         -0.1983225              -5.3966
       ...                                ...                  ...
       174                          0.7393186              20.1179
      -------------------------------------------------------------
                  HL-Gap            0.1090937 Eh            2.9686 eV

     #   Z          covCN         q      C6AA      α(0)
     1   6 C        2.919    -0.029    28.722     8.788
     2   6 C        2.924    -0.038    28.935     8.821
     3   6 C        2.977     0.015    27.678     8.630
     4   6 C        2.977     0.013    27.711     8.635
     5   6 C        2.923    -0.038    28.936     8.821
     6   6 C        2.919    -0.028    28.689     8.783
     7   6 C        2.922    -0.040    28.995     8.830
     8   6 C        2.912     0.068    26.488     8.439
     9   7 N        2.800    -0.053    22.261     7.007
    10   6 C        3.082     0.049    26.821     8.490
    11   6 C        2.910    -0.048    29.183     8.858
    12   6 C        2.924    -0.032    28.792     8.799
    13   6 C        2.920    -0.040    29.001     8.831
    14   6 C        2.912    -0.033    28.832     8.805
    15   6 C        3.065    -0.020    28.447     8.746
    16   6 C        3.066    -0.032    28.718     8.787
    17   6 C        2.919    -0.020    28.510     8.756
    18   6 C        2.917    -0.056    29.389     8.890
    19   6 C        2.930     0.057    26.733     8.479
    20   7 N        1.832    -0.276    28.010     7.843
    21   6 C        3.092     0.143    24.792     8.161
    22   6 C        2.928    -0.049    29.208     8.863
    23   6 C        2.929    -0.044    29.081     8.844
    24   6 C        2.912     0.067    26.502     8.442
    25   7 N        2.800    -0.053    22.264     7.008
    26   6 C        3.081     0.048    26.841     8.493
    27   6 C        2.910    -0.049    29.227     8.865
    28   6 C        2.924    -0.032    28.800     8.801
    29   6 C        2.920    -0.040    28.991     8.830
    30   6 C        2.912    -0.033    28.825     8.804
    31   6 C        3.065    -0.020    28.445     8.746
    32   6 C        3.065    -0.031    28.714     8.787
    33   6 C        2.919    -0.020    28.505     8.755
    34   6 C        2.917    -0.056    29.382     8.889
    35   6 C        2.929     0.057    26.714     8.476
    36   7 N        1.832    -0.277    28.042     7.847
    37   6 C        3.092     0.143    24.799     8.162
    38   6 C        2.921    -0.046    29.145     8.853
    39   1 H        0.926     0.045     2.387     2.416
    40   1 H        0.926     0.046     2.367     2.406
    41   1 H        0.926     0.046     2.365     2.405
    42   1 H        0.926     0.045     2.379     2.412
    43   1 H        0.926     0.048     2.341     2.393
    44   1 H        0.926     0.036     2.502     2.474
    45   1 H        0.926     0.035     2.520     2.482
    46   1 H        0.926     0.035     2.520     2.482
    47   1 H        0.926     0.036     2.500     2.473
    48   1 H        0.926     0.038     2.482     2.464
    49   1 H        0.926     0.036     2.506     2.475
    50   1 H        0.925     0.034     2.531     2.488
    51   1 H        0.926     0.048     2.345     2.395
    52   1 H        0.926     0.048     2.345     2.394
    53   1 H        0.926     0.039     2.458     2.451
    54   1 H        0.926     0.038     2.469     2.457
    55   1 H        0.926     0.035     2.511     2.478
    56   1 H        0.926     0.036     2.506     2.475
    57   1 H        0.926     0.038     2.478     2.461
    58   1 H        0.926     0.036     2.508     2.476
    59   1 H        0.925     0.032     2.560     2.502
    60   1 H        0.926     0.043     2.404     2.424

molecular dipole:
                 x           y           z       tot (Debye)
 q only:        0.764      -0.557      -0.346
   full:        0.790       0.057      -0.290       2.143

 projected vibrational frequencies (cm⁻¹)
eigval :       -0.00    -0.00     0.00     0.00     0.00     0.00
eigval :       12.79    18.81    30.40    38.15    44.97    58.41
eigval :       76.50    83.00    90.59   107.66   113.78   139.06
eigval :      139.45   174.59   181.89   213.30   215.51   226.56
eigval :      237.60   275.49   279.16   282.61   295.10   301.28
eigval :      339.70   346.61   385.15   387.40   395.53   397.85
eigval :      424.86   425.29   433.71   438.31   440.64   456.88
eigval :      513.33   515.86   522.92   533.26   543.69   548.08
eigval :      548.80   581.81   590.12   591.64   595.99   612.45
eigval :      614.47   629.19   645.33   664.89   675.96   685.32
eigval :      688.22   690.86   721.23   724.49   726.67   760.93
eigval :      767.77   774.06   775.14   788.62   792.55   796.36
eigval :      806.66   811.56   869.23   870.39   873.50   891.73
eigval :      897.13   898.49   898.98   905.69   906.98   907.94
eigval :      910.59   911.23   912.30   914.27   922.51   926.01
eigval :      927.12   928.86   930.87   985.94  1000.32  1006.73
eigval :     1018.88  1020.18  1069.68  1070.47  1087.57  1088.21
eigval :     1093.78  1119.32  1121.15  1125.08  1129.53  1149.01
eigval :     1150.90  1170.30  1174.80  1177.18  1178.77  1184.53
eigval :     1190.62  1217.55  1218.74  1226.82  1239.11  1255.30
eigval :     1261.80  1281.76  1284.56  1289.62  1298.10  1298.34
eigval :     1315.71  1321.26  1339.30  1340.75  1341.51  1344.73
eigval :     1353.85  1355.63  1393.01  1398.43  1414.83  1421.10
eigval :     1428.12  1447.50  1464.44  1465.80  1471.59  1480.61
eigval :     1481.44  1486.67  1558.09  1558.52  1570.13  1571.51
eigval :     1572.32  1578.38  1585.22  1591.09  1592.52  1593.78
eigval :     1611.31  1611.70  3055.08  3055.42  3072.97  3072.98
eigval :     3074.67  3077.04  3079.79  3080.71  3081.35  3082.32
eigval :     3090.86  3091.12  3092.65  3094.28  3095.06  3095.37
eigval :     3095.64  3099.21  3099.89  3100.20  3112.04  3113.91

   temp. (K)  partition function   enthalpy   heat capacity  entropy
                                   cal/mol     cal/K/mol   cal/K/mol   J/K/mol
 298.15  VIB  0.343E+12            16082.448    106.757     97.661
         ROT  0.391E+08              888.752      2.981     37.722
         INT  0.134E+20            16971.200    109.737    135.383
         TR   0.104E+29             1481.254      4.968     44.414
         TOT                       18452.4541   114.7056   179.7968   752.2697

       T/K    H(0)-H(T)+PV         H(T)/Eh          T*S/Eh         G(T)/Eh
   ------------------------------------------------------------------------
    298.15    0.294059E-01    0.485287E+00    0.854273E-01    0.399860E+00
   ------------------------------------------------------------------------

         :::::::::::::::::::::::::::::::::::::::::::::::::::::
         ::                  THERMODYNAMIC                  ::
         :::::::::::::::::::::::::::::::::::::::::::::::::::::
         :: total free energy         -95.432539229069 Eh   ::
         ::.................................................::
         :: total energy              -95.832399034331 Eh   ::
         :: zero point energy           0.455881201996 Eh   ::
         :: G(RRHO) w/o ZPVE           -0.056021396734 Eh   ::
         :: G(RRHO) contrib.            0.399859805262 Eh   ::
         :::::::::::::::::::::::::::::::::::::::::::::::::::::

           -------------------------------------------------
          | TOTAL ENERGY              -95.832399034331 Eh   |
          | TOTAL ENTHALPY            -95.347111975042 Eh   |
          | TOTAL FREE ENERGY         -95.432539229069 Eh   |
          | GRADIENT NORM               0.000026615130 Eh/α |
          | HOMO-LUMO GAP               2.968590556272 eV   |
           -------------------------------------------------

 * finished run on 2025/09/10 at 02:26:26.542
