   * xtb version 6.7.1 (edcfbbe) compiled by 'albert@albert-system' on 2024-07-22

   ID    Z sym.   atoms
    1    6 C      1-8, 10, 12-19, 21-32, 34-40, 42-55
    2    7 N      9, 20, 41
    3    8 O      11, 56
    4   16 S      33
    5    1 H      57-97

          program call               : xtb data2507/gas/o-PCzTPD/o-PCzTPD_gas_S0_finalOpt.xtbopt.xyz --gfn 2 --spinpol --tblite --uhf 2 --ohess vtight --parallel 40 --molden --ceasefiles --namespace data2507/gas/o-PCzTPD/o-PCzTPD_gas_T1_preOpt
 * total energy  :  -148.1923859 Eh     change       -0.2749175E-08 Eh
 * total energy  :  -148.1963336 Eh     change       -0.3947750E-02 Eh
 * total energy  :  -148.1976938 Eh     change       -0.1360197E-02 Eh
 * total energy  :  -148.1981380 Eh     change       -0.4442120E-03 Eh
 * total energy  :  -148.1988048 Eh     change       -0.6667691E-03 Eh
 * total energy  :  -148.1993506 Eh     change       -0.5458374E-03 Eh
 * total energy  :  -148.1998663 Eh     change       -0.5156505E-03 Eh
 * total energy  :  -148.2002572 Eh     change       -0.3909270E-03 Eh
 * total energy  :  -148.2004519 Eh     change       -0.1947264E-03 Eh
 * total energy  :  -148.2005742 Eh     change       -0.1223160E-03 Eh
 * total energy  :  -148.2018991 Eh     change       -0.1321657E-06 Eh
 * total energy  :  -148.2018993 Eh     change       -0.1726530E-06 Eh
 * total energy  :  -148.2018994 Eh     change       -0.1499573E-06 Eh
 * total energy  :  -148.2018996 Eh     change       -0.1949365E-06 Eh
 * total energy  :  -148.2018998 Eh     change       -0.1686702E-06 Eh
 * total energy  :  -148.2019000 Eh     change       -0.1498867E-06 Eh
 * total energy  :  -148.2019001 Eh     change       -0.1276423E-06 Eh
 * total energy  :  -148.2019002 Eh     change       -0.1469578E-06 Eh
 * total energy  :  -148.2019003 Eh     change       -0.9230294E-07 Eh
   *** GEOMETRY OPTIMIZATION CONVERGED AFTER 118 ITERATIONS ***

 final structure:
================
97
 xtb: 6.7.1 (edcfbbe)
C           -4.20474586516900        2.00765159394952        2.97079712296093
C           -5.05389052081317        3.09473521089606        2.32111602804073
C           -4.22340531188175        4.08974432711418        1.50957742106945
C           -3.69523515016920        3.48800847298318        0.20932179731792
C           -2.73314465918502        4.43533552251240       -0.50406994800252
C           -2.19646186927699        3.87946046367382       -1.82607000333833
C           -1.58851424356748        2.48078729410147       -1.72311309435928
C           -0.47027572452702        2.39461092871994       -0.68676191576245
N            0.00762982821019        1.04254446546543       -0.52695823426477
C            1.26090500157396        0.62343947816966       -0.90321989616629
O            2.03890274201784        1.25573050228346       -1.58254354556354
C            1.38029793121237       -0.73716320272380       -0.34459855236744
C            2.40677020346006       -1.63566493713113       -0.12330270096810
C            3.83181450719329       -1.47761572841426       -0.18930900431009
C            4.62237369873420       -2.58631994925287       -0.52767611572402
C            5.98982269749383       -2.48733692373072       -0.63794803164234
C            6.61953330495854       -1.27573709337780       -0.37816226955851
C            5.87044369486424       -0.18276565710563        0.01208730686771
C            4.48543767151680       -0.26181962966501        0.12056372129409
N            3.78740426931036        0.85538372564525        0.58962685201217
C            2.81484514672334        0.86472240612513        1.57583829869432
C            2.42647998617566       -0.14209929742523        2.44931040652630
C            1.39908391555951        0.12841256041068        3.33292827427597
C            0.78815129798206        1.37891708220383        3.37645720076096
C            1.22302267823664        2.40795155140914        2.56381922470909
C            2.25085819009255        2.15694894664012        1.66527096478807
C            2.94453485303331        2.97152730304125        0.70616008198904
C            2.82807837173162        4.30076384214699        0.32938244377660
C            3.64728399580190        4.77621601721824       -0.67686860259762
C            4.55482529009002        3.93528479921907       -1.31799389318990
C            4.68285470729743        2.60681244632427       -0.96550308607646
C            3.88276057809475        2.12822869512008        0.06443312847041
S            1.73829638734725       -3.11988255780627        0.55915737230334
C            0.06216154528383       -2.48333624614384        0.55305855841212
C           -0.99032996638794       -3.35915833949795        0.82527569251335
C           -0.74460383923693       -4.54065409497431        1.58018793168611
C           -1.76051727406795       -5.34270208101467        2.01258311567666
C           -3.08929586959969       -5.04340945118696        1.68382425103436
C           -3.36107270022310       -3.95681239925076        0.87526070961742
C           -2.34637018940048       -3.13089334971714        0.40943449391699
N           -2.65792839121549       -2.14964793137588       -0.52626720401176
C           -3.72436474189438       -1.28304444005518       -0.44404703672619
C           -4.62351423304729       -1.08138258886665        0.59701851724664
C           -5.61087754509411       -0.13227959787819        0.42238599931226
C           -5.69998610368106        0.61768114703195       -0.74817617901380
C           -4.77941330301538        0.45726143310814       -1.76892442315409
C           -3.78415840242484       -0.49448144051972       -1.61788459645070
C           -2.68528972370534       -0.91544635049846       -2.44690385325177
C           -2.23603480243240       -0.52255273693687       -3.69819581618435
C           -1.14732240882711       -1.17651806375440       -4.24526306404218
C           -0.53857643744361       -2.23255156900146       -3.57342279275637
C           -0.97334349570429       -2.64210550992146       -2.32677740694129
C           -2.02427293349084       -1.94732482653515       -1.74376039553543
C            0.11342320852717       -1.13323148485597        0.10581866941936
C           -0.72784570784123        0.04285457417591        0.14008356256212
O           -1.80695130377385        0.25291138527277        0.66369657394017
H           -3.47220030493072        2.45304872642495        3.64122769268086
H           -4.83263204864337        1.33565053079582        3.55230304251972
H           -3.67530247529229        1.41777306875081        2.22725366357429
H           -5.79742555856540        2.63472898141090        1.66707893474021
H           -5.59081250449555        3.63777352132785        3.10378042437398
H           -4.83489067061014        4.96623368922912        1.27764005687608
H           -3.38228195302206        4.42957657800075        2.11917298470086
H           -4.53514259798279        3.26006058515823       -0.45060454099229
H           -3.18988735051841        2.55067612351241        0.43553901796531
H           -3.24615880245357        5.37867790500037       -0.71178477854032
H           -1.89775230531035        4.66703782964390        0.15995111507846
H           -1.44405803518594        4.57019229601497       -2.21509531291658
H           -3.01321846296557        3.83915193284493       -2.55086834434597
H           -2.36379525844398        1.76404089426918       -1.45338544860417
H           -1.18776130343598        2.18864043815831       -2.69692774017079
H           -0.83437185119570        2.72278670456604        0.29006245214707
H            0.38701319425054        3.00424804745371       -0.98384521559189
H            4.12535272008482       -3.52410810609568       -0.72854653747464
H            6.57208761778715       -3.35045722082767       -0.92220180150021
H            7.69305599746210       -1.19335705650086       -0.45181283437774
H            6.35973069081103        0.74230563676246        0.27846996235712
H            2.90425977830777       -1.10999102487123        2.43929644178323
H            1.06305346843023       -0.64852013014639        4.00301870861397
H           -0.02507948426821        1.54528374397021        4.06621891565426
H            0.77689491027373        3.38925666231902        2.62334131048206
H            2.10584793275629        4.94424857239470        0.80938440637248
H            3.57447458107115        5.80880881897198       -0.98459488022381
H            5.16488654946880        4.33000619424441       -2.11678047080992
H            5.36127433736211        1.95760796052520       -1.49587443005739
H            0.27939290161908       -4.76696012304631        1.83912760927535
H           -1.54241944934492       -6.21545212320496        2.60954586636219
H           -3.88960970853619       -5.68578384525813        2.01504037815197
H           -4.37141134188097       -3.77767693310822        0.53768676253658
H           -4.54047214752209       -1.63085860623401        1.52108394542956
H           -6.32519342450075        0.03667520784453        1.21387161710503
H           -6.49184626520318        1.34489236635602       -0.85161067514066
H           -4.82923551249582        1.06159231134898       -2.66228622230752
H           -2.73237318458759        0.27301188793094       -4.23285917657503
H           -0.77224476620282       -0.87838814312798       -5.21256938395948
H            0.29000563633965       -2.74693334522776       -4.03654062007275
H           -0.50237641050954       -3.47415053781663       -1.82697783386079

 projected vibrational frequencies (cm⁻¹)
eigval :       -0.00    -0.00    -0.00     0.00     0.00     0.00
eigval :       10.62    11.01    16.74    26.21    26.73    35.96
eigval :       37.88    46.25    52.95    57.20    62.23    69.21
eigval :       69.77    71.23    76.63    85.04    95.79   105.73
eigval :      109.20   114.99   127.68   133.31   135.80   141.25
eigval :      149.73   151.60   154.20   159.66   173.00   177.21
eigval :      186.02   200.11   203.35   228.94   236.03   243.37
eigval :      246.16   252.25   260.85   264.42   275.06   277.04
eigval :      295.92   304.50   321.14   323.81   339.01   341.04
eigval :      347.85   352.78   362.23   378.30   395.65   398.84
eigval :      409.13   419.58   421.14   424.29   436.09   440.16
eigval :      442.99   451.32   453.03   472.84   475.79   486.65
eigval :      496.40   515.72   516.28   532.45   534.21   535.98
eigval :      536.68   548.53   553.66   580.44   581.11   583.19
eigval :      591.93   597.29   601.88   607.27   609.29   632.25
eigval :      654.68   667.19   671.99   672.86   678.86   689.97
eigval :      696.25   705.06   706.14   712.31   716.51   751.72
eigval :      752.53   755.43   756.36   760.33   767.37   769.65
eigval :      774.51   778.01   778.58   782.41   810.21   812.40
eigval :      836.40   841.21   858.64   865.19   869.01   870.43
eigval :      875.29   877.80   892.00   893.85   895.73   899.74
eigval :      900.69   901.30   903.86   905.27   909.44   911.52
eigval :      914.00   914.92   918.01   919.44   921.91   923.45
eigval :      924.86   925.37   926.21   941.65   983.67   996.44
eigval :     1005.97  1010.07  1010.39  1019.90  1032.90  1050.18
eigval :     1059.94  1068.63  1069.62  1072.92  1073.21  1080.02
eigval :     1092.25  1096.62  1103.67  1104.38  1130.27  1140.33
eigval :     1140.68  1141.32  1144.84  1146.46  1147.43  1152.43
eigval :     1171.36  1173.53  1174.36  1175.63  1176.70  1177.40
eigval :     1191.04  1191.90  1192.67  1212.50  1226.78  1227.40
eigval :     1229.40  1234.55  1239.82  1243.27  1245.90  1247.43
eigval :     1252.68  1274.52  1278.08  1283.06  1284.04  1287.55
eigval :     1288.11  1292.27  1295.85  1298.12  1310.98  1311.97
eigval :     1322.54  1334.25  1338.38  1345.26  1348.20  1350.36
eigval :     1354.32  1355.16  1357.14  1359.54  1363.05  1363.90
eigval :     1366.89  1380.70  1392.08  1401.14  1409.82  1412.19
eigval :     1416.20  1418.64  1421.67  1423.02  1424.35  1437.69
eigval :     1446.48  1461.35  1464.29  1481.67  1483.03  1484.58
eigval :     1485.21  1488.80  1490.04  1492.85  1495.85  1500.27
eigval :     1507.36  1509.28  1511.35  1531.57  1555.43  1566.41
eigval :     1567.20  1571.39  1577.81  1581.28  1581.55  1584.44
eigval :     1601.03  1604.38  1691.06  1736.84  2949.73  2951.56
eigval :     2955.95  2959.40  2963.60  2970.41  2971.01  2972.79
eigval :     2976.25  2980.27  2982.52  2986.82  3020.09  3024.34
eigval :     3028.27  3029.69  3054.90  3077.95  3078.21  3078.46
eigval :     3082.53  3082.64  3082.88  3083.25  3084.00  3085.82
eigval :     3086.07  3087.17  3088.88  3090.08  3092.65  3093.29
eigval :     3093.88  3094.35  3096.77  3101.47  3101.76  3102.06
eigval :     3102.57  3103.49  3105.51

   temp. (K)  partition function   enthalpy   heat capacity  entropy
                                   cal/mol     cal/K/mol   cal/K/mol   J/K/mol
 298.15  VIB  0.452E+22            28333.388    176.478    177.290
         ROT  0.728E+08              888.752      2.981     38.957
         INT  0.329E+30            29222.141    179.459    216.247
         TR   0.198E+29             1481.254      4.968     45.695
         TOT                       30703.3946   184.4270   261.9426  1095.9677

       T/K    H(0)-H(T)+PV         H(T)/Eh          T*S/Eh         G(T)/Eh
   ------------------------------------------------------------------------
    298.15    0.489290E-01    0.810593E+00    0.124457E+00    0.686135E+00
   ------------------------------------------------------------------------

         :::::::::::::::::::::::::::::::::::::::::::::::::::::
         ::                  THERMODYNAMIC                  ::
         :::::::::::::::::::::::::::::::::::::::::::::::::::::
         :: total free energy        -147.515765058245 Eh   ::
         ::.................................................::
         :: total energy             -148.201900309374 Eh   ::
         :: zero point energy           0.761663642942 Eh   ::
         :: G(RRHO) w/o ZPVE           -0.075528391814 Eh   ::
         :: G(RRHO) contrib.            0.686135251128 Eh   ::
         :::::::::::::::::::::::::::::::::::::::::::::::::::::

           -------------------------------------------------
          | TOTAL ENERGY             -148.201900309374 Eh   |
          | TOTAL ENTHALPY           -147.391307692612 Eh   |
          | TOTAL FREE ENERGY        -147.515765058245 Eh   |
          | GRADIENT NORM               0.000055226260 Eh/α |
           -------------------------------------------------

 * finished run on 2025/08/30 at 04:46:08.483
