   * xtb version 6.7.1 (edcfbbe) compiled by 'albert@albert-system' on 2024-07-22

   ID    Z sym.   atoms
    1    6 C      1-8, 10, 12-19, 21-32, 34-40, 42-55
    2    7 N      9, 20, 41
    3    8 O      11, 56
    4   16 S      33
    5    1 H      57-97

          program call               : xtb data2507/gas/o-PCzTPD/o-PCzTPD_gas_S0_crest.xyz --gfn 2 --ohess vtight --parallel 40 --molden --ceasefiles --namespace data2507/gas/o-PCzTPD/o-PCzTPD_gas_S0_finalOpt
          :  Hamiltonian                  GFN2-xTB          :
 * total energy  :  -148.2769503 Eh     change       -0.6947914E-08 Eh
 * total energy  :  -148.2769511 Eh     change       -0.7684916E-06 Eh
 * total energy  :  -148.2769531 Eh     change       -0.1983250E-05 Eh
 * total energy  :  -148.2769568 Eh     change       -0.3744246E-05 Eh
 * total energy  :  -148.2769612 Eh     change       -0.4357923E-05 Eh
 * total energy  :  -148.2769642 Eh     change       -0.2978719E-05 Eh
 * total energy  :  -148.2769660 Eh     change       -0.1857827E-05 Eh
 * total energy  :  -148.2769677 Eh     change       -0.1675019E-05 Eh
 * total energy  :  -148.2769697 Eh     change       -0.1959326E-05 Eh
 * total energy  :  -148.2769719 Eh     change       -0.2184462E-05 Eh
 * total energy  :  -148.2771044 Eh     change       -0.7966551E-06 Eh
 * total energy  :  -148.2771051 Eh     change       -0.7487725E-06 Eh
 * total energy  :  -148.2771058 Eh     change       -0.7017714E-06 Eh
 * total energy  :  -148.2771064 Eh     change       -0.5567324E-06 Eh
 * total energy  :  -148.2771068 Eh     change       -0.4500848E-06 Eh
 * total energy  :  -148.2771073 Eh     change       -0.4438593E-06 Eh
 * total energy  :  -148.2771079 Eh     change       -0.6252613E-06 Eh
 * total energy  :  -148.2771089 Eh     change       -0.9827512E-06 Eh
 * total energy  :  -148.2771089 Eh     change       -0.4902972E-08 Eh
   *** GEOMETRY OPTIMIZATION CONVERGED AFTER 94 ITERATIONS ***

 final structure:
================
97
 xtb: 6.7.1 (edcfbbe)
C           -4.63842986012971        2.14908907267505        2.77434268008720
C           -5.43348406025882        3.20161265769961        2.00977240918022
C           -4.54106101176522        4.17953260350799        1.24458178889992
C           -3.88327954899863        3.54341873942817        0.02208008536608
C           -2.88453986222156        4.49138924313403       -0.63816559972977
C           -2.24554906458854        3.91918778790329       -1.90609739823618
C           -1.60964616262306        2.54104827449832       -1.72778465610469
C           -0.55224552640379        2.51309854193212       -0.62525988681079
N           -0.02829126136557        1.17918491242062       -0.44148586614166
C            1.23117239909578        0.78898478668062       -0.87648331969574
O            1.97063295927047        1.46467322853089       -1.54736905131749
C            1.38824469843501       -0.58367618951889       -0.37660640722801
C            2.37436182478102       -1.52273067149862       -0.31406646111000
C            3.79940000223637       -1.40578303200058       -0.57487885554647
C            4.46467275963508       -2.43039761127468       -1.24458387161821
C            5.81437831132282       -2.34298863925218       -1.52174992780961
C            6.52955097735769       -1.23024253350553       -1.10866338668903
C            5.89578726517454       -0.22120323048116       -0.40864696799298
C            4.53428301455232       -0.28953640324253       -0.13053691750283
N            3.93435422295371        0.74193774792789        0.60102740147983
C            3.06473438849188        0.58206938187963        1.66224624410608
C            2.80955332682332       -0.54616932198123        2.42986541847285
C            1.86254423663733       -0.44632777150546        3.43045180993201
C            1.20177633051423        0.75286949531181        3.68742519077398
C            1.50639969576596        1.89629020748582        2.97648617229979
C            2.45368108889079        1.81942505176750        1.96374035202102
C            3.01748923500688        2.78128908170852        1.05823069330124
C            2.81225970399587        4.14138476966728        0.87019652439641
C            3.51645755524683        4.78309929982229       -0.12819584256407
C            4.40075507482540        4.08055693278649       -0.94269364525271
C            4.61467775112173        2.72552027777897       -0.77926628696223
C            3.92642393447875        2.07996048412149        0.23540370772517
S            1.71343250287191       -2.99957421767776        0.35418095950917
C            0.12356602765689       -2.29745139093429        0.58953235653689
C           -0.95243031802836       -3.12685585967380        1.09844929886781
C           -0.67406952535411       -4.03854028697493        2.11777865290197
C           -1.66038436606795       -4.84112586342242        2.65202553416361
C           -2.95160602982771       -4.76322877032348        2.15321436519976
C           -3.24099514425715       -3.89221605355101        1.12160142754022
C           -2.25978610165146       -3.06335992838875        0.58160028265434
N           -2.60479018031587       -2.21734228203844       -0.47522536919671
C           -3.68111736481569       -1.34357849013501       -0.47254467528465
C           -4.63803961948422       -1.11614287994526        0.50435546270694
C           -5.62205253978753       -0.18331213829245        0.23977596959432
C           -5.65175516964983        0.52538268857246       -0.95845735012056
C           -4.67788726752633        0.33452510134787       -1.91720032845520
C           -3.68354711003507       -0.60459852467495       -1.67547296064049
C           -2.54736782140804       -1.04913977615595       -2.43299780487495
C           -2.02791659194800       -0.69309400921772       -3.67058019080141
C           -0.91281837476715       -1.35905522088188       -4.13767818608490
C           -0.34293038765563       -2.39761784583290       -3.40506271758101
C           -0.84446512666870       -2.77024568345454       -2.17321780162539
C           -1.92358789600096       -2.05890896179157       -1.66609970907947
C            0.14020599511095       -1.00037392965723        0.16446703772008
C           -0.74088950954512        0.17712222073768        0.20439155537389
O           -1.82167638692046        0.32802923070213        0.72011266873792
H           -3.96287184051100        2.62629180515978        3.48168255073137
H           -5.31062305155166        1.49995766979650        3.33168898199326
H           -4.05111604276766        1.52966822689764        2.10170530625877
H           -6.10769942743990        2.70864415840227        1.30664191852978
H           -6.04651411175115        3.76447807371132        2.71892446392171
H           -5.13905721165309        5.03679361634119        0.92328509978764
H           -3.76651656985817        4.55503028925464        1.91822332477037
H           -4.65412461768313        3.26848797850838       -0.70076717869777
H           -3.37826494264716        2.62863721859269        0.32825344961730
H           -3.39585554871716        5.42091317857233       -0.90351038921747
H           -2.10406846981956        4.75138303483966        0.08000234989942
H           -1.48686558929067        4.62055562898165       -2.26217604472042
H           -3.01044010207037        3.83790831745206       -2.68186630540052
H           -2.38148830714891        1.80880237295129       -1.48840567748796
H           -1.14162434313039        2.23715748741214       -2.66745549467518
H           -0.98738015895551        2.82235316590241        0.32756977436957
H            0.29293739416691        3.15961936715543       -0.87425768429212
H            3.89713888866207       -3.29224524534509       -1.56480776894923
H            6.30797321498178       -3.14055761921826       -2.05526077364787
H            7.58634564140243       -1.15635719286759       -1.31607169543837
H            6.45724693225634        0.62670614097266       -0.04619545823989
H            3.33780859268704       -1.47206026321909        2.25533547170992
H            1.63268616513096       -1.31523220829431        4.02954978023447
H            0.45613384536892        0.78741910393473        4.46723314668226
H            1.02154957465106        2.83435350450027        3.20101686298719
H            2.11135692878118        4.67868971659151        1.49191055124294
H            3.37363654344984        5.84123482088129       -0.29105037011275
H            4.92549537750691        4.60568477204260       -1.72707963420036
H            5.27603450377543        2.18750942775600       -1.44008263981776
H            0.33520113520189       -4.09169271901547        2.49984192931509
H           -1.42436207655669       -5.52803787576666        3.44996811727753
H           -3.72898846184171       -5.39458936292381        2.55607957118363
H           -4.23416465254471       -3.86108220173422        0.69960385686142
H           -4.61018760719170       -1.63402002464649        1.45034241108060
H           -6.38346474138145        0.00261050432255        0.98243827973280
H           -6.44333000564898        1.23970568437779       -1.13145012518885
H           -4.68312594890858        0.89923664426158       -2.83780529225323
H           -2.49367195845041        0.08709918966506       -4.25358959955101
H           -0.48492546039857       -1.08922487113888       -5.09145012984342
H            0.50624861430919       -2.92734450038342       -3.81109912730619
H           -0.41382436462591       -3.59925251946281       -1.63157847867252

          :  Hamiltonian                  GFN2-xTB          :
         :: gradient norm              0.000052556707 Eh/a0 ::
         :: HOMO-LUMO gap              1.856332912097 eV    ::
         :: SCC energy              -150.795448082871 Eh    ::
         :: -> dispersion             -0.159966558692 Eh    ::
         :: repulsion energy           2.518339178523 Eh    ::

    * Orbital Energies and Occupations

         #    Occupation            Energy/Eh            Energy/eV
      -------------------------------------------------------------
         1        2.0000           -0.7494559             -20.3937
       ...           ...                  ...                  ...
       125        2.0000           -0.4134763             -11.2513
       126        2.0000           -0.4126160             -11.2279
       127        2.0000           -0.4103028             -11.1649
       128        2.0000           -0.4090929             -11.1320
       129        2.0000           -0.4049415             -11.0190
       130        2.0000           -0.4035453             -10.9810
       131        2.0000           -0.4030012             -10.9662
       132        2.0000           -0.3999582             -10.8834
       133        2.0000           -0.3923980             -10.6777
       134        2.0000           -0.3755596             -10.2195
       135        2.0000           -0.3751995             -10.2097
       136        2.0000           -0.3623874              -9.8611
       137        2.0000           -0.3622036              -9.8561 (HOMO)
       138                         -0.2939846              -7.9997 (LUMO)
       139                         -0.2918358              -7.9413
       140                         -0.2481877              -6.7535
       141                         -0.2461926              -6.6992
       142                         -0.2415580              -6.5731
       143                         -0.2401509              -6.5348
       144                         -0.2365289              -6.4363
       145                         -0.2329338              -6.3385
       146                         -0.2203528              -5.9961
       147                         -0.2190119              -5.9596
       148                         -0.2162534              -5.8846
       ...                                ...                  ...
       270                          0.7616963              20.7268
      -------------------------------------------------------------
                  HL-Gap            0.0682190 Eh            1.8563 eV

     #   Z          covCN         q      C6AA      α(0)
     1   6 C        3.751    -0.103    22.526     6.768
     2   6 C        3.800    -0.052    21.508     6.603
     3   6 C        3.802    -0.057    21.593     6.616
     4   6 C        3.802    -0.063    21.715     6.634
     5   6 C        3.802    -0.059    21.628     6.621
     6   6 C        3.801    -0.058    21.621     6.620
     7   6 C        3.802    -0.060    21.652     6.625
     8   6 C        3.742     0.012    20.454     6.452
     9   7 N        2.806    -0.113    23.454     7.193
    10   6 C        2.822     0.282    22.239     7.727
    11   8 O        0.857    -0.390    21.488     6.215
    12   6 C        3.251    -0.047    28.076     8.576
    13   6 C        2.980     0.037    27.170     8.550
    14   6 C        2.998     0.001    27.985     8.678
    15   6 C        2.925    -0.029    28.726     8.789
    16   6 C        2.917    -0.031    28.775     8.797
    17   6 C        2.919    -0.025    28.638     8.776
    18   6 C        2.923    -0.039    28.981     8.828
    19   6 C        2.913     0.072    26.400     8.425
    20   7 N        2.800    -0.047    22.144     6.989
    21   6 C        3.076     0.044    26.943     8.510
    22   6 C        2.910    -0.053    29.319     8.879
    23   6 C        2.924    -0.034    28.858     8.810
    24   6 C        2.920    -0.041    29.009     8.832
    25   6 C        2.913    -0.034    28.838     8.806
    26   6 C        3.066    -0.020    28.427     8.743
    27   6 C        3.070    -0.016    28.337     8.729
    28   6 C        2.913    -0.033    28.817     8.803
    29   6 C        2.920    -0.039    28.959     8.825
    30   6 C        2.925    -0.028    28.709     8.787
    31   6 C        2.910    -0.040    28.991     8.829
    32   6 C        3.074     0.059    26.611     8.458
    33  16 S        2.395    -0.007   141.341    20.010
    34   6 C        2.983     0.038    27.143     8.546
    35   6 C        3.002     0.001    28.002     8.680
    36   6 C        2.927    -0.030    28.738     8.791
    37   6 C        2.917    -0.031    28.785     8.798
    38   6 C        2.919    -0.025    28.637     8.775
    39   6 C        2.924    -0.040    29.003     8.832
    40   6 C        2.912     0.071    26.411     8.427
    41   7 N        2.801    -0.040    22.004     6.967
    42   6 C        3.075     0.059    26.611     8.458
    43   6 C        2.910    -0.042    29.036     8.836
    44   6 C        2.925    -0.028    28.707     8.787
    45   6 C        2.920    -0.037    28.913     8.818
    46   6 C        2.913    -0.032    28.792     8.799
    47   6 C        3.069    -0.014    28.299     8.723
    48   6 C        3.068    -0.017    28.366     8.733
    49   6 C        2.913    -0.034    28.837     8.806
    50   6 C        2.920    -0.041    29.012     8.833
    51   6 C        2.924    -0.034    28.854     8.809
    52   6 C        2.910    -0.053    29.313     8.878
    53   6 C        3.073     0.044    26.938     8.510
    54   6 C        3.236    -0.048    28.284     8.629
    55   6 C        2.825     0.282    22.226     7.725
    56   8 O        0.857    -0.395    21.573     6.227
    57   1 H        0.925     0.030     2.589     2.516
    58   1 H        0.925     0.026     2.641     2.541
    59   1 H        0.925     0.049     2.336     2.390
    60   1 H        0.924     0.029     2.595     2.519
    61   1 H        0.924     0.024     2.670     2.555
    62   1 H        0.924     0.023     2.693     2.566
    63   1 H        0.924     0.028     2.617     2.530
    64   1 H        0.924     0.029     2.599     2.521
    65   1 H        0.925     0.050     2.324     2.384
    66   1 H        0.924     0.030     2.592     2.518
    67   1 H        0.924     0.027     2.629     2.535
    68   1 H        0.924     0.032     2.554     2.499
    69   1 H        0.924     0.035     2.511     2.478
    70   1 H        0.924     0.052     2.299     2.371
    71   1 H        0.924     0.036     2.500     2.473
    72   1 H        0.924     0.064     2.148     2.292
    73   1 H        0.924     0.063     2.160     2.298
    74   1 H        0.926     0.045     2.389     2.417
    75   1 H        0.926     0.043     2.415     2.430
    76   1 H        0.926     0.043     2.405     2.425
    77   1 H        0.926     0.050     2.324     2.384
    78   1 H        0.926     0.022     2.705     2.572
    79   1 H        0.926     0.028     2.621     2.532
    80   1 H        0.926     0.031     2.573     2.509
    81   1 H        0.926     0.032     2.559     2.502
    82   1 H        0.926     0.029     2.596     2.520
    83   1 H        0.926     0.029     2.601     2.522
    84   1 H        0.926     0.032     2.556     2.500
    85   1 H        0.926     0.033     2.546     2.495
    86   1 H        0.926     0.045     2.378     2.412
    87   1 H        0.926     0.042     2.419     2.432
    88   1 H        0.926     0.043     2.407     2.426
    89   1 H        0.926     0.050     2.325     2.385
    90   1 H        0.926     0.032     2.554     2.499
    91   1 H        0.926     0.034     2.533     2.489
    92   1 H        0.926     0.027     2.623     2.533
    93   1 H        0.926     0.030     2.590     2.516
    94   1 H        0.926     0.032     2.551     2.498
    95   1 H        0.926     0.030     2.588     2.515
    96   1 H        0.926     0.028     2.614     2.528
    97   1 H        0.926     0.021     2.719     2.579

molecular dipole:
                 x           y           z       tot (Debye)
 q only:        0.425      -1.241       0.249
   full:        0.481      -1.196       0.232       3.328

 projected vibrational frequencies (cm⁻¹)
eigval :       -0.00    -0.00    -0.00     0.00     0.00     0.00
eigval :        5.73    11.71    15.35    21.04    24.10    31.98
eigval :       35.22    44.39    50.42    57.89    60.23    67.51
eigval :       68.07    69.94    76.91    82.24    88.32   106.21
eigval :      109.04   118.36   130.91   135.34   138.27   141.50
eigval :      149.71   154.83   156.38   161.38   168.36   172.51
eigval :      186.17   200.69   210.86   226.37   236.75   248.25
eigval :      249.14   255.12   259.26   264.03   278.80   279.86
eigval :      293.04   303.00   323.38   335.24   341.42   347.37
eigval :      351.20   361.29   367.12   379.01   401.10   401.92
eigval :      409.44   424.61   425.68   435.40   439.58   445.66
eigval :      452.32   452.69   469.09   483.58   496.89   502.95
eigval :      519.10   519.27   540.16   541.66   542.11   543.47
eigval :      549.17   559.09   562.90   583.32   583.70   592.82
eigval :      600.80   602.23   605.99   610.16   613.08   637.49
eigval :      673.60   674.18   684.51   694.07   696.89   704.72
eigval :      706.48   707.08   714.06   718.18   719.21   755.84
eigval :      757.20   757.55   763.37   769.67   771.66   779.70
eigval :      781.27   782.07   783.61   785.63   811.78   824.92
eigval :      837.07   868.16   870.42   876.99   877.48   885.55
eigval :      886.99   894.54   895.74   896.42   902.10   903.03
eigval :      904.18   904.34   905.66   908.68   917.06   917.67
eigval :      921.67   923.00   923.42   923.85   925.44   927.65
eigval :      930.96   933.60   936.88   942.03   993.84  1000.75
eigval :     1011.68  1011.88  1026.67  1035.85  1050.17  1053.89
eigval :     1070.55  1072.07  1073.20  1074.89  1075.93  1094.41
eigval :     1097.20  1102.30  1107.19  1111.72  1131.14  1140.77
eigval :     1141.36  1144.47  1147.82  1152.30  1153.62  1155.42
eigval :     1176.71  1177.70  1178.35  1179.15  1181.04  1181.68
eigval :     1191.24  1195.14  1196.32  1229.42  1234.46  1235.58
eigval :     1236.51  1239.89  1249.20  1249.37  1250.26  1254.67
eigval :     1259.05  1272.47  1279.72  1288.09  1294.52  1297.65
eigval :     1298.20  1299.24  1300.72  1302.10  1306.77  1309.59
eigval :     1311.48  1326.44  1348.80  1354.87  1355.09  1355.56
eigval :     1357.49  1357.81  1360.08  1361.69  1362.66  1363.87
eigval :     1365.40  1381.02  1419.29  1420.97  1422.10  1428.47
eigval :     1428.51  1433.66  1435.02  1437.31  1466.84  1469.66
eigval :     1475.33  1475.77  1485.07  1488.57  1488.92  1489.69
eigval :     1491.11  1496.82  1501.34  1508.34  1510.55  1512.93
eigval :     1554.09  1556.62  1568.78  1575.64  1575.97  1586.00
eigval :     1586.59  1587.49  1590.34  1590.48  1599.56  1599.65
eigval :     1614.74  1615.07  1752.31  1770.12  2951.20  2954.20
eigval :     2957.48  2962.30  2968.87  2971.43  2976.27  2976.87
eigval :     2979.93  2983.24  2985.14  2989.46  3012.22  3023.97
eigval :     3025.51  3030.37  3053.24  3073.90  3073.94  3074.91
eigval :     3076.11  3080.23  3080.68  3080.93  3081.66  3082.47
eigval :     3083.16  3086.51  3086.76  3087.08  3088.07  3089.66
eigval :     3090.36  3095.97  3096.56  3097.28  3098.01  3099.22
eigval :     3099.69  3102.95  3103.35

   temp. (K)  partition function   enthalpy   heat capacity  entropy
                                   cal/mol     cal/K/mol   cal/K/mol   J/K/mol
 298.15  VIB  0.126E+23            28111.029    174.345    176.886
         ROT  0.733E+08              888.752      2.981     38.970
         INT  0.923E+30            28999.782    177.326    215.855
         TR   0.198E+29             1481.254      4.968     45.695
         TOT                       30481.0356   182.2945   261.5503  1094.3264

       T/K    H(0)-H(T)+PV         H(T)/Eh          T*S/Eh         G(T)/Eh
   ------------------------------------------------------------------------
    298.15    0.485746E-01    0.814302E+00    0.124271E+00    0.690031E+00
   ------------------------------------------------------------------------

         :::::::::::::::::::::::::::::::::::::::::::::::::::::
         ::                  THERMODYNAMIC                  ::
         :::::::::::::::::::::::::::::::::::::::::::::::::::::
         :: total free energy        -147.587077844961 Eh   ::
         ::.................................................::
         :: total energy             -148.277108904349 Eh   ::
         :: zero point energy           0.765727415190 Eh   ::
         :: G(RRHO) w/o ZPVE           -0.075696355802 Eh   ::
         :: G(RRHO) contrib.            0.690031059388 Eh   ::
         :::::::::::::::::::::::::::::::::::::::::::::::::::::

           -------------------------------------------------
          | TOTAL ENERGY             -148.277108904349 Eh   |
          | TOTAL ENTHALPY           -147.462806867045 Eh   |
          | TOTAL FREE ENERGY        -147.587077844961 Eh   |
          | GRADIENT NORM               0.000052563227 Eh/α |
          | HOMO-LUMO GAP               1.856333769488 eV   |
           -------------------------------------------------

 * finished run on 2025/08/30 at 04:45:40.780
