   * xtb version 6.7.1 (edcfbbe) compiled by 'albert@albert-system' on 2024-07-22

   ID    Z sym.   atoms
    1    6 C      1-8, 10, 12-19, 21-32, 34-40, 42-55
    2    7 N      9, 20, 41
    3    8 O      11, 56
    4   16 S      33
    5    1 H      57-97

          program call               : xtb data2507/gas/o-PCzTPD/o-PCzTPD.xyz --gfn 2 --ohess vtight --parallel 40 --molden --ceasefiles --namespace data2507/gas/o-PCzTPD/o-PCzTPD_gas_S0_preOpt
          :  Hamiltonian                  GFN2-xTB          :
 * total energy  :  -148.2400614 Eh     change       -0.3414925E-08 Eh
 * total energy  :  -148.2564075 Eh     change       -0.1634606E-01 Eh
 * total energy  :  -148.2602553 Eh     change       -0.3847829E-02 Eh
 * total energy  :  -148.2611444 Eh     change       -0.8890583E-03 Eh
 * total energy  :  -148.2618835 Eh     change       -0.7391007E-03 Eh
 * total energy  :  -148.2623160 Eh     change       -0.4325845E-03 Eh
 * total energy  :  -148.2626849 Eh     change       -0.3688120E-03 Eh
 * total energy  :  -148.2630212 Eh     change       -0.3362938E-03 Eh
 * total energy  :  -148.2632860 Eh     change       -0.2648352E-03 Eh
 * total energy  :  -148.2635010 Eh     change       -0.2150222E-03 Eh
 * total energy  :  -148.2720874 Eh     change       -0.2310894E-06 Eh
 * total energy  :  -148.2720876 Eh     change       -0.2204152E-06 Eh
 * total energy  :  -148.2720879 Eh     change       -0.2102896E-06 Eh
 * total energy  :  -148.2720881 Eh     change       -0.2410524E-06 Eh
 * total energy  :  -148.2720884 Eh     change       -0.2795687E-06 Eh
 * total energy  :  -148.2720886 Eh     change       -0.2659160E-06 Eh
 * total energy  :  -148.2720889 Eh     change       -0.2104303E-06 Eh
 * total energy  :  -148.2720890 Eh     change       -0.1629166E-06 Eh
 * total energy  :  -148.2720890 Eh     change       -0.1845876E-08 Eh
   *** GEOMETRY OPTIMIZATION CONVERGED AFTER 185 ITERATIONS ***

 final structure:
================
97
 xtb: 6.7.1 (edcfbbe)
C            9.05778064748453        1.31435672242843        1.41930860895691
C            8.10871994081490        0.83744120419126        0.32649096549236
C            7.69203626264288       -0.61601619772322        0.54140741235258
C            6.81359892280512       -1.17492170277129       -0.57913943050886
C            5.40564928484720       -0.58358787562496       -0.58054152537267
C            4.53542638850553       -1.08834096987365       -1.73386466054074
C            4.29683728326046       -2.59936891061343       -1.76125104636722
C            3.59034519515379       -3.13875024186282       -0.51503235310060
N            2.31430060754364       -2.49349160591399       -0.30282949935848
C            2.09160952713403       -1.56847208540040        0.70951871969378
O            2.90600017885544       -1.25879127990475        1.54646472036781
C            0.70982468479162       -1.11866038495355        0.50843325902408
C           -0.13561699453569       -0.20212843037603        1.06579706266918
C            0.06589243845021        0.67354674257692        2.20571997412390
C            0.73487110926297        0.20990723028624        3.33700321981890
C            0.87178638024194        1.01547519886174        4.45089967472372
C            0.34289202210590        2.29659669114734        4.45366302056675
C           -0.29661793708342        2.78423597311325        3.32847833165213
C           -0.43231727955502        1.98700876933128        2.19966257009925
N           -1.02906110241614        2.50451384393990        1.04152424036289
C           -2.30554959547790        3.02045828042025        0.93974876128552
C           -3.27573060377556        3.16564249310566        1.91903855399001
C           -4.48513721320527        3.71913724567152        1.54651923136000
C           -4.73154844042851        4.10911505112513        0.23256657707780
C           -3.78115866934300        3.93313000160800       -0.75240993283431
C           -2.55630452500273        3.38108829615472       -0.40302035335922
C           -1.36595943701503        3.06229597418178       -1.14196710070733
C           -1.00698633672787        3.17477590911288       -2.47874280871220
C            0.25577075320707        2.76842943975870       -2.86182047721969
C            1.16600154117767        2.27626928114584       -1.92883706790861
C            0.83525814662157        2.15793226043263       -0.59259669199898
C           -0.44463902204800        2.53381840379820       -0.21028142063377
S           -1.65223771816366       -0.21855830444100        0.20556662537659
C           -1.11541518137729       -1.44260642063195       -0.92322485360591
C           -1.97136108289993       -1.85452767231306       -2.01829415004798
C           -1.40413546469469       -2.29050384314580       -3.21811233001860
C           -2.19548470275079       -2.60541778468466       -4.30456301778629
C           -3.57410707323681       -2.49091485180293       -4.22050241691187
C           -4.15722365467022       -2.08572178076580       -3.03462828015769
C           -3.37251777616263       -1.77378607746556       -1.93149593294632
N           -4.00194258383221       -1.40827378555406       -0.73208452626389
C           -3.91559108657690       -2.09535722850079        0.46470195807381
C           -3.17192980022291       -3.22287444279996        0.77908016739539
C           -3.26275182792382       -3.71250008884513        2.06791908554991
C           -4.07478260283594       -3.10169346956396        3.02102364834504
C           -4.82897358448318       -1.98863052294718        2.70652107844348
C           -4.75519388938595       -1.47685493632605        1.41780053131969
C           -5.39261950865272       -0.37643772427861        0.74870229896436
C           -6.31765272929214        0.57994695673229        1.14510458209834
C           -6.74478900468700        1.50936001871904        0.21868183861331
C           -6.24564019203178        1.50997167531718       -1.08150209434091
C           -5.31684196025824        0.57600709521762       -1.49700532788611
C           -4.90916060632501       -0.37838676934228       -0.57825671493942
C            0.17397850505814       -1.79828269483757       -0.62229504656367
C            1.21781265060597       -2.70236297765223       -1.13136348326437
O            1.20703374985494       -3.48172519420537       -2.05437298291438
H            9.34497926813625        2.35035095325277        1.25370604714495
H            8.58100344448418        1.24204294464764        2.39449080594138
H            9.96020991335566        0.70655219700309        1.43463185281709
H            7.22607149188992        1.47872078849326        0.31835924707969
H            8.59901097398053        0.93142434450900       -0.64564144913096
H            8.59589665013141       -1.22674556660577        0.61470977591737
H            7.15791918980762       -0.70149954459026        1.49047822327342
H            6.74964264646216       -2.25736434832363       -0.45160069644724
H            7.29070572210110       -0.98153889783259       -1.54361507268785
H            4.92148863299746       -0.79538283149266        0.37373776906220
H            5.47340896899268        0.50228355305032       -0.67264243716029
H            5.00437214611516       -0.80580216724846       -2.68011146423002
H            3.56865324494174       -0.57790451143287       -1.68626127985066
H            3.68329925132658       -2.83977512132587       -2.63220055700077
H            5.24458626445907       -3.12713059470634       -1.86893036837691
H            4.18571336000211       -2.96415214253804        0.38288294232480
H            3.41661237566664       -4.21227942717722       -0.63480685727971
H            1.13707809401143       -0.79030418606112        3.33543355528329
H            1.38895322386320        0.64136538123376        5.32081371184673
H            0.44365419432623        2.92375430745796        5.32654299985168
H           -0.68162590238928        3.79290957682605        3.30626193867470
H           -3.09250520031577        2.85515109538634        2.93677728748512
H           -5.25622540837922        3.85250432454088        2.29045313789322
H           -5.68524660206912        4.54953510113256       -0.01585426268738
H           -3.97968190907452        4.21988031497838       -1.77399500766907
H           -1.70446722385527        3.57269863496179       -3.20024650504668
H            0.55132145091506        2.84099215316737       -3.89788343341526
H            2.15338640725607        1.98469391634379       -2.25581826670990
H            1.55167163582132        1.79010461673316        0.12718836762930
H           -0.33329947895629       -2.37756768600928       -3.29277795389722
H           -1.73386264726062       -2.93733654340944       -5.22158643316521
H           -4.19481537557407       -2.73123452031906       -5.07033021467939
H           -5.23138600013237       -2.01914104216370       -2.94336746500527
H           -2.54522493482866       -3.70400940784746        0.04240437179472
H           -2.69288098696742       -4.58820852660518        2.34115990095176
H           -4.11621009394122       -3.51301133920687        4.01860984208722
H           -5.46578785439732       -1.52338167645561        3.44363221202890
H           -6.69535081477459        0.58911556071242        2.15631282192027
H           -7.47374724779324        2.25297414631307        0.50369214613588
H           -6.59181229316335        2.25691203396663       -1.78002850486255
H           -4.92195261082979        0.58729263377045       -2.50188991965951

          :  Hamiltonian                  GFN2-xTB          :
         :: gradient norm              0.000029272477 Eh/a0 ::
         :: HOMO-LUMO gap              1.817223385037 eV    ::
         :: SCC energy              -150.789479670254 Eh    ::
         :: -> dispersion             -0.148328504790 Eh    ::
         :: repulsion energy           2.517390652904 Eh    ::

    * Orbital Energies and Occupations

         #    Occupation            Energy/Eh            Energy/eV
      -------------------------------------------------------------
         1        2.0000           -0.7462886             -20.3075
       ...           ...                  ...                  ...
       125        2.0000           -0.4172021             -11.3526
       126        2.0000           -0.4160097             -11.3202
       127        2.0000           -0.4122251             -11.2172
       128        2.0000           -0.4100212             -11.1572
       129        2.0000           -0.4094661             -11.1421
       130        2.0000           -0.4075735             -11.0906
       131        2.0000           -0.4067353             -11.0678
       132        2.0000           -0.4025088             -10.9528
       133        2.0000           -0.3931506             -10.6982
       134        2.0000           -0.3801441             -10.3442
       135        2.0000           -0.3793052             -10.3214
       136        2.0000           -0.3660925              -9.9619
       137        2.0000           -0.3654153              -9.9435 (HOMO)
       138                         -0.2986336              -8.1262 (LUMO)
       139                         -0.2930809              -7.9751
       140                         -0.2486269              -6.7655
       141                         -0.2469762              -6.7206
       142                         -0.2399983              -6.5307
       143                         -0.2397218              -6.5232
       144                         -0.2365675              -6.4373
       145                         -0.2272485              -6.1837
       146                         -0.2241973              -6.1007
       147                         -0.2210610              -6.0154
       148                         -0.2138417              -5.8189
       ...                                ...                  ...
       270                          0.7551609              20.5490
      -------------------------------------------------------------
                  HL-Gap            0.0667817 Eh            1.8172 eV

     #   Z          covCN         q      C6AA      α(0)
     1   6 C        3.752    -0.102    22.508     6.765
     2   6 C        3.800    -0.053    21.520     6.605
     3   6 C        3.802    -0.059    21.644     6.623
     4   6 C        3.801    -0.058    21.619     6.620
     5   6 C        3.801    -0.063    21.710     6.634
     6   6 C        3.800    -0.052    21.503     6.602
     7   6 C        3.801    -0.063    21.704     6.633
     8   6 C        3.741     0.009    20.499     6.460
     9   7 N        2.804    -0.105    23.302     7.169
    10   6 C        2.819     0.280    22.272     7.733
    11   8 O        0.857    -0.398    21.632     6.236
    12   6 C        3.247    -0.052    28.244     8.607
    13   6 C        2.981     0.036    27.185     8.553
    14   6 C        3.000     0.002    27.977     8.677
    15   6 C        2.924    -0.023    28.587     8.768
    16   6 C        2.918    -0.028    28.704     8.786
    17   6 C        2.919    -0.025    28.637     8.776
    18   6 C        2.921    -0.040    28.989     8.829
    19   6 C        2.916     0.064    26.568     8.452
    20   7 N        2.806    -0.044    22.095     6.981
    21   6 C        3.075     0.047    26.870     8.499
    22   6 C        2.910    -0.050    29.238     8.867
    23   6 C        2.925    -0.031    28.781     8.798
    24   6 C        2.921    -0.039    28.959     8.825
    25   6 C        2.913    -0.032    28.792     8.799
    26   6 C        3.069    -0.017    28.351     8.731
    27   6 C        3.067    -0.016    28.340     8.729
    28   6 C        2.913    -0.033    28.819     8.803
    29   6 C        2.920    -0.041    29.019     8.834
    30   6 C        2.924    -0.033    28.830     8.805
    31   6 C        2.909    -0.051    29.263     8.870
    32   6 C        3.078     0.046    26.889     8.502
    33  16 S        2.409     0.007   140.773    19.969
    34   6 C        2.981     0.036    27.195     8.554
    35   6 C        2.999     0.001    27.983     8.677
    36   6 C        2.925    -0.029    28.715     8.788
    37   6 C        2.918    -0.028    28.706     8.786
    38   6 C        2.918    -0.025    28.634     8.775
    39   6 C        2.922    -0.039    28.981     8.828
    40   6 C        2.915     0.063    26.580     8.454
    41   7 N        2.815    -0.043    22.075     6.978
    42   6 C        3.079     0.047    26.873     8.499
    43   6 C        2.909    -0.049    29.228     8.865
    44   6 C        2.925    -0.033    28.818     8.803
    45   6 C        2.920    -0.040    29.004     8.832
    46   6 C        2.913    -0.032    28.809     8.801
    47   6 C        3.068    -0.015    28.325     8.727
    48   6 C        3.068    -0.016    28.346     8.730
    49   6 C        2.913    -0.032    28.797     8.800
    50   6 C        2.921    -0.039    28.958     8.825
    51   6 C        2.925    -0.031    28.767     8.796
    52   6 C        2.910    -0.049    29.221     8.864
    53   6 C        3.076     0.047    26.875     8.499
    54   6 C        3.229    -0.054    28.490     8.668
    55   6 C        2.823     0.280    22.274     7.733
    56   8 O        0.857    -0.395    21.579     6.228
    57   1 H        0.925     0.031     2.568     2.506
    58   1 H        0.925     0.033     2.537     2.491
    59   1 H        0.925     0.032     2.563     2.503
    60   1 H        0.924     0.030     2.583     2.513
    61   1 H        0.924     0.027     2.623     2.533
    62   1 H        0.924     0.028     2.613     2.528
    63   1 H        0.924     0.034     2.530     2.487
    64   1 H        0.924     0.029     2.608     2.525
    65   1 H        0.924     0.027     2.624     2.533
    66   1 H        0.924     0.050     2.316     2.380
    67   1 H        0.924     0.030     2.589     2.516
    68   1 H        0.924     0.031     2.570     2.507
    69   1 H        0.924     0.021     2.720     2.579
    70   1 H        0.924     0.049     2.330     2.387
    71   1 H        0.925     0.044     2.398     2.422
    72   1 H        0.924     0.071     2.072     2.251
    73   1 H        0.924     0.055     2.263     2.353
    74   1 H        0.926     0.059     2.210     2.325
    75   1 H        0.926     0.047     2.360     2.402
    76   1 H        0.926     0.044     2.399     2.422
    77   1 H        0.926     0.047     2.361     2.403
    78   1 H        0.926     0.027     2.629     2.536
    79   1 H        0.926     0.031     2.572     2.508
    80   1 H        0.926     0.030     2.584     2.514
    81   1 H        0.926     0.032     2.565     2.504
    82   1 H        0.926     0.031     2.567     2.505
    83   1 H        0.926     0.029     2.599     2.521
    84   1 H        0.926     0.029     2.607     2.525
    85   1 H        0.926     0.025     2.663     2.552
    86   1 H        0.926     0.070     2.089     2.260
    87   1 H        0.926     0.047     2.356     2.400
    88   1 H        0.926     0.044     2.402     2.424
    89   1 H        0.926     0.046     2.374     2.410
    90   1 H        0.926     0.024     2.677     2.559
    91   1 H        0.926     0.030     2.582     2.513
    92   1 H        0.926     0.030     2.590     2.517
    93   1 H        0.926     0.032     2.553     2.499
    94   1 H        0.926     0.032     2.557     2.501
    95   1 H        0.926     0.030     2.584     2.514
    96   1 H        0.926     0.032     2.565     2.504
    97   1 H        0.926     0.027     2.631     2.537

molecular dipole:
                 x           y           z       tot (Debye)
 q only:       -0.728       0.509       0.071
   full:       -0.582       0.369       0.051       1.757

 projected vibrational frequencies (cm⁻¹)
eigval :       -0.00    -0.00    -0.00     0.00     0.00     0.00
eigval :        4.16     9.75    12.37    13.76    15.93    21.67
eigval :       27.22    32.42    35.69    45.69    49.06    60.27
eigval :       62.44    65.49    67.96    71.15    73.74    93.55
eigval :       99.88   103.53   112.08   120.90   124.79   138.82
eigval :      146.83   148.92   153.40   165.89   172.12   174.79
eigval :      188.38   200.00   213.32   227.87   232.57   241.93
eigval :      255.00   262.75   267.88   273.88   275.03   290.12
eigval :      292.26   296.33   302.04   325.72   329.29   330.88
eigval :      352.84   372.50   382.23   394.01   395.31   400.69
eigval :      418.10   424.72   425.58   429.47   432.10   437.52
eigval :      448.04   449.78   468.68   489.47   500.01   512.15
eigval :      518.47   518.75   533.10   536.13   541.33   542.00
eigval :      548.41   560.69   565.90   579.12   581.25   591.08
eigval :      592.06   602.47   606.22   608.98   611.50   637.77
eigval :      671.64   672.17   691.53   699.62   702.34   703.61
eigval :      706.34   707.32   711.27   716.90   722.17   751.11
eigval :      755.19   756.95   763.66   767.27   771.09   773.16
eigval :      778.45   779.73   782.31   783.06   800.54   821.36
eigval :      867.77   868.57   869.53   871.51   875.59   879.96
eigval :      880.72   881.91   896.63   896.87   900.76   901.87
eigval :      902.74   903.96   904.70   911.78   916.92   917.74
eigval :      918.12   921.79   921.85   922.51   923.90   928.07
eigval :      928.53   930.82   944.10   948.37   980.15   996.17
eigval :     1011.84  1012.27  1014.87  1041.76  1045.14  1066.01
eigval :     1069.55  1069.95  1073.04  1073.62  1084.97  1091.15
eigval :     1093.09  1097.95  1101.09  1107.55  1120.50  1124.28
eigval :     1141.97  1144.47  1146.55  1151.74  1152.30  1156.22
eigval :     1176.85  1177.14  1178.65  1180.16  1181.59  1181.86
eigval :     1193.24  1193.59  1194.49  1204.56  1233.93  1236.13
eigval :     1237.84  1238.41  1247.00  1247.36  1248.30  1263.31
eigval :     1264.74  1274.53  1278.79  1282.17  1296.41  1299.08
eigval :     1299.74  1303.51  1304.98  1308.69  1311.11  1313.61
eigval :     1321.02  1324.30  1327.84  1348.76  1352.78  1354.52
eigval :     1356.40  1360.84  1361.91  1363.18  1363.85  1364.47
eigval :     1376.44  1380.39  1416.28  1419.01  1421.42  1429.05
eigval :     1429.16  1435.62  1437.29  1438.56  1465.79  1468.10
eigval :     1476.41  1477.16  1483.97  1489.09  1489.24  1490.79
eigval :     1492.40  1496.52  1497.00  1505.10  1505.63  1508.10
eigval :     1546.12  1560.57  1562.52  1573.00  1575.83  1576.04
eigval :     1583.82  1584.86  1590.80  1591.35  1600.50  1600.70
eigval :     1615.16  1615.69  1746.37  1760.60  2947.30  2955.90
eigval :     2956.69  2957.94  2967.29  2967.49  2978.33  2980.47
eigval :     2982.16  2984.42  2992.57  2997.65  3005.38  3009.14
eigval :     3028.48  3031.00  3036.39  3075.34  3075.99  3078.11
eigval :     3078.61  3080.50  3081.05  3081.73  3083.26  3084.79
eigval :     3085.28  3087.65  3087.95  3089.05  3091.21  3093.30
eigval :     3093.86  3095.48  3096.08  3097.28  3099.60  3101.17
eigval :     3101.94  3116.10  3133.63

   temp. (K)  partition function   enthalpy   heat capacity  entropy
                                   cal/mol     cal/K/mol   cal/K/mol   J/K/mol
 298.15  VIB  0.892E+24            28421.438    172.873    181.142
         ROT  0.877E+08              888.752      2.981     39.327
         INT  0.783E+32            29310.190    175.854    220.468
         TR   0.198E+29             1481.254      4.968     45.695
         TOT                       30791.4441   180.8217   266.1635  1113.6281

       T/K    H(0)-H(T)+PV         H(T)/Eh          T*S/Eh         G(T)/Eh
   ------------------------------------------------------------------------
    298.15    0.490693E-01    0.813996E+00    0.126463E+00    0.687534E+00
   ------------------------------------------------------------------------

         :::::::::::::::::::::::::::::::::::::::::::::::::::::
         ::                  THERMODYNAMIC                  ::
         :::::::::::::::::::::::::::::::::::::::::::::::::::::
         :: total free energy        -147.584555487830 Eh   ::
         ::.................................................::
         :: total energy             -148.272089017350 Eh   ::
         :: zero point energy           0.764927105658 Eh   ::
         :: G(RRHO) w/o ZPVE           -0.077393576138 Eh   ::
         :: G(RRHO) contrib.            0.687533529520 Eh   ::
         :::::::::::::::::::::::::::::::::::::::::::::::::::::

           -------------------------------------------------
          | TOTAL ENERGY             -148.272089017350 Eh   |
          | TOTAL ENTHALPY           -147.458092622199 Eh   |
          | TOTAL FREE ENERGY        -147.584555487830 Eh   |
          | GRADIENT NORM               0.000029268569 Eh/α |
          | HOMO-LUMO GAP               1.817223283368 eV   |
           -------------------------------------------------

 * finished run on 2025/08/30 at 04:04:23.207
