   * xtb version 6.7.1 (edcfbbe) compiled by 'albert@albert-system' on 2024-07-22

   ID    Z sym.   atoms
    1    6 C      1-8, 10, 12-19, 21-32, 34-40, 42-55
    2    7 N      9, 20, 41
    3    8 O      11, 56
    4   16 S      33
    5    1 H      57-97

          program call               : xtb data2507/gas/o-PCzTPD/o-PCzTPD_gas_T1_crest.xyz --gfn 2 --spinpol --tblite --uhf 2 --ohess vtight --parallel 40 --molden --ceasefiles --namespace data2507/gas/o-PCzTPD/o-PCzTPD_gas_T1_finalOpt
 * total energy  :  -148.2051768 Eh     change       -0.1165770E-07 Eh
 * total energy  :  -148.2051875 Eh     change       -0.1064850E-04 Eh
 * total energy  :  -148.2051923 Eh     change       -0.4878666E-05 Eh
 * total energy  :  -148.2051939 Eh     change       -0.1563790E-05 Eh
 * total energy  :  -148.2051962 Eh     change       -0.2301415E-05 Eh
 * total energy  :  -148.2051987 Eh     change       -0.2493827E-05 Eh
 * total energy  :  -148.2052014 Eh     change       -0.2672835E-05 Eh
 * total energy  :  -148.2052039 Eh     change       -0.2523890E-05 Eh
 * total energy  :  -148.2052063 Eh     change       -0.2404019E-05 Eh
 * total energy  :  -148.2052085 Eh     change       -0.2188528E-05 Eh
 * total energy  :  -148.2052524 Eh     change       -0.1501412E-06 Eh
 * total energy  :  -148.2052526 Eh     change       -0.1845289E-06 Eh
 * total energy  :  -148.2052527 Eh     change       -0.1148494E-06 Eh
 * total energy  :  -148.2052528 Eh     change       -0.8062193E-07 Eh
 * total energy  :  -148.2052529 Eh     change       -0.1747900E-06 Eh
 * total energy  :  -148.2052531 Eh     change       -0.1539200E-06 Eh
 * total energy  :  -148.2052533 Eh     change       -0.1880567E-06 Eh
 * total energy  :  -148.2052535 Eh     change       -0.2612318E-06 Eh
 * total energy  :  -148.2052536 Eh     change       -0.9831811E-07 Eh
   *** GEOMETRY OPTIMIZATION CONVERGED AFTER 106 ITERATIONS ***

 final structure:
================
97
 xtb: 6.7.1 (edcfbbe)
C           -1.66406426783637        1.94256384914308       -2.65639713252159
C           -2.60784896525647        0.74730694155057       -2.60874049929640
C           -4.03675043531943        1.15432303146836       -2.25850811998116
C           -4.99702726583065       -0.03232831718575       -2.32267233750090
C           -6.44341538609505        0.34753014123437       -1.99596462872941
C           -6.69413539512452        0.57076269211500       -0.50325478451177
C           -6.72482922500066       -0.73925406526103        0.29790323313852
C           -5.93560699999579       -0.65104613421773        1.60590629751608
N           -4.51742827224197       -0.53123192741434        1.35500413492921
C           -3.72994740344965       -1.59760561935447        0.95579276902721
O           -4.16878056587982       -2.71877596389229        0.78780544215314
C           -2.37760174683221       -1.04484542628709        0.80113869837457
C           -1.09482465361443       -1.52931098411489        0.44292334125659
C           -0.62219053734946       -2.85097789590029        0.30087154549764
C           -1.45945146140574       -3.95051647277448        0.62259488749251
C           -0.98161044839422       -5.23188943942194        0.68579577296267
C            0.36131468582873       -5.50321687794109        0.42181369196443
C            1.19368148436511       -4.46667701719877        0.04952314039989
C            0.72687914295266       -3.16217826243338       -0.04951476719262
N            1.62448905400626       -2.19996238083266       -0.53120598569713
C            2.93520849243612       -2.10394237917386       -0.10365449585800
C            3.50637466258285       -2.58118295702017        1.06723015647764
C            4.85923426266018       -2.37063560693788        1.25403160306789
C            5.62657530674668       -1.70729836222557        0.29987694825410
C            5.05291277598823       -1.19848130597239       -0.85099440736978
C            3.69236047496365       -1.37571732820504       -1.04688383713878
C            2.78115945886100       -1.00100104194032       -2.09491532731938
C            2.92929739698776       -0.29328925453082       -3.27762241291450
C            1.83000472410200       -0.15069168601181       -4.10400754455798
C            0.60454825033529       -0.72273411876441       -3.77329804634889
C            0.43324284919182       -1.42979577432269       -2.59763481342978
C            1.52414307122662       -1.54675775831946       -1.75048337326211
S            0.01594911404282       -0.15034109754441        0.38331631825627
C           -1.22210178162034        1.02692989797662        0.85946108186652
C           -0.94934023088425        2.40850301023263        0.85577706864606
C           -2.00757752500832        3.35218046730747        0.94140653685215
C           -1.80649539060793        4.68784647332421        0.72282312182920
C           -0.53312311187174        5.17501566637901        0.42180795698122
C            0.53229295940242        4.29767789492515        0.39756690958544
C            0.35983645195696        2.94095732166092        0.64138675155976
N            1.51309221211033        2.15007415769219        0.70278091530998
C            1.99102131933391        1.51151629925215        1.83858325468314
C            1.33118386038128        1.20155130260385        3.01786315017949
C            2.04805873237273        0.55249033882177        4.00586196797005
C            3.39139966585268        0.23010502600406        3.83444555953446
C            4.06151213163896        0.56468502980594        2.67230217813484
C            3.36047452225463        1.21007465864760        1.66561986992952
C            3.73186856037896        1.71358042583410        0.37007381427588
C            4.92609760825473        1.76819869930364       -0.33112716684139
C            4.92473674307682        2.32925017278810       -1.59528867641286
C            3.75121668396218        2.81613934543886       -2.16555436256016
C            2.55522916911312        2.79741693913661       -1.47353865822397
C            2.56153086951551        2.26989305002369       -0.19012630224593
C           -2.44354244326127        0.33011443802409        1.03904284077315
C           -3.81178936110175        0.65695158397919        1.45315282925346
O           -4.31380329414520        1.69599045562467        1.83843138230202
H           -0.63893778349914        1.61205621659166       -2.81448903504470
H           -1.94144823452173        2.61449178803724       -3.46610683363138
H           -1.70734490177556        2.50050299820436       -1.72357112572437
H           -2.60471136784762        0.24523315074686       -3.57935950437381
H           -2.24727612342555        0.02949814330904       -1.86932314734969
H           -4.04465675088895        1.59329204398864       -1.25862880929792
H           -4.37216200582918        1.92475699874723       -2.95751136528604
H           -4.65389936024815       -0.81283663732152       -1.63975255043147
H           -4.96288674036669       -0.44985743729125       -3.33250359441503
H           -6.69549668314342        1.25990437310395       -2.54170085348106
H           -7.11194212517596       -0.44138139927342       -2.34921490346900
H           -7.64495655818410        1.09243597695544       -0.37885074730039
H           -5.92063661781572        1.22850668972388       -0.10820063514668
H           -7.75347120752886       -1.01252846986531        0.53689591639876
H           -6.30152513608372       -1.55399386117863       -0.29160797689380
H           -6.09649212765773       -1.55709272157934        2.19738878002220
H           -6.23442501837321        0.22611363059657        2.18442950848098
H           -2.49979485968769       -3.76802930265345        0.82563831294181
H           -1.65170136198054       -6.03726291784405        0.94489432823008
H            0.73949874273135       -6.51235890239237        0.46970948194907
H            2.22262574839624       -4.66551545037375       -0.21443943936324
H            2.91397868982292       -3.10228526724283        1.80376873512914
H            5.33196901584953       -2.73779895723521        2.15267356539043
H            6.68688143291868       -1.58654607167947        0.46748175139144
H            5.64786962407243       -0.68193375739953       -1.58795004431686
H            3.88505575219489        0.12996990200860       -3.54488117656048
H            1.92226294118774        0.40125467569338       -5.02745213990085
H           -0.22930295867349       -0.61505590908253       -4.45008727231495
H           -0.51760161676626       -1.87664421592641       -2.35073993615874
H           -2.99615706970506        3.00182505854880        1.17934647722892
H           -2.64181064750114        5.36860881658263        0.78232162956327
H           -0.37277885857232        6.22800188717243        0.25160476080021
H            1.53391581958595        4.66740630342130        0.23127120321699
H            0.29159671088829        1.45436702814884        3.16123355436509
H            1.55460928781670        0.29233233918067        4.93030418177845
H            3.91695076012018       -0.28017665620860        4.62762959997780
H            5.10770119489318        0.33295616823711        2.54712648023988
H            5.83485148438112        1.38607924343585        0.10710464047421
H            5.84643886007832        2.38705678190497       -2.15567868793754
H            3.77750883785588        3.22616799276948       -3.16407616539450
H            1.64727551103075        3.18091929818226       -1.91361098218858

 projected vibrational frequencies (cm⁻¹)
eigval :       -0.00     0.00     0.00     0.00     0.00     0.00
eigval :       12.09    16.40    23.78    27.24    31.13    32.59
eigval :       36.15    50.38    54.85    58.58    63.83    68.73
eigval :       69.97    72.24    90.18    94.54    97.80   102.67
eigval :      110.24   114.21   117.58   123.58   126.54   129.31
eigval :      146.61   149.83   156.41   168.56   169.80   184.08
eigval :      192.37   197.13   214.61   220.61   232.89   236.06
eigval :      244.30   249.92   267.49   275.22   276.21   280.44
eigval :      289.03   305.85   314.84   318.44   325.06   358.42
eigval :      368.19   385.67   395.04   396.98   398.56   403.17
eigval :      413.97   417.86   423.38   424.39   426.74   431.16
eigval :      438.37   438.96   449.98   453.36   466.60   478.99
eigval :      496.22   516.56   516.98   518.75   532.29   536.86
eigval :      537.87   538.80   547.24   552.30   577.02   580.99
eigval :      583.47   598.25   598.94   604.64   605.35   634.24
eigval :      669.64   672.58   674.30   680.46   682.39   686.24
eigval :      696.43   701.40   708.28   711.44   717.46   731.72
eigval :      754.48   756.40   760.19   764.66   765.39   769.78
eigval :      771.33   772.92   777.89   781.53   781.70   800.09
eigval :      829.46   852.94   864.93   865.95   868.69   870.00
eigval :      873.46   876.01   877.34   893.04   893.35   901.30
eigval :      902.84   903.47   904.48   906.72   911.52   912.32
eigval :      912.93   918.65   920.32   920.56   921.32   922.50
eigval :      923.48   924.18   927.03   935.51   946.97   972.06
eigval :      996.21  1011.05  1011.24  1011.75  1030.46  1048.72
eigval :     1068.08  1068.73  1071.54  1072.25  1076.84  1086.16
eigval :     1092.35  1094.39  1099.10  1100.58  1112.93  1125.86
eigval :     1134.51  1141.32  1144.82  1145.36  1146.12  1147.72
eigval :     1174.08  1174.51  1175.85  1177.44  1178.44  1180.57
eigval :     1180.83  1185.63  1191.19  1194.36  1217.74  1230.01
eigval :     1230.86  1234.69  1235.62  1241.27  1245.58  1248.75
eigval :     1255.00  1263.88  1280.13  1283.10  1283.87  1285.20
eigval :     1286.70  1292.77  1293.26  1295.09  1300.87  1316.50
eigval :     1319.26  1321.44  1328.99  1342.86  1344.40  1347.10
eigval :     1347.48  1351.30  1353.01  1357.27  1361.23  1365.18
eigval :     1366.85  1378.59  1380.59  1395.76  1404.29  1412.88
eigval :     1417.04  1418.21  1418.92  1419.66  1420.11  1427.17
eigval :     1435.11  1463.94  1464.43  1472.30  1484.34  1484.77
eigval :     1485.27  1491.76  1494.44  1497.22  1499.42  1500.53
eigval :     1502.21  1505.40  1506.66  1511.48  1555.15  1560.85
eigval :     1571.02  1571.63  1584.97  1585.80  1586.31  1586.83
eigval :     1604.18  1605.80  1679.14  1704.30  2953.89  2957.32
eigval :     2959.21  2961.59  2968.51  2972.13  2978.59  2979.62
eigval :     2982.52  2984.30  2990.41  2993.77  3002.41  3023.08
eigval :     3023.76  3027.69  3039.96  3077.15  3077.40  3078.66
eigval :     3079.97  3081.32  3082.51  3085.71  3085.95  3087.17
eigval :     3088.87  3090.75  3091.33  3093.90  3095.25  3095.89
eigval :     3096.89  3098.53  3099.64  3101.25  3101.53  3102.06
eigval :     3102.95  3153.07  3154.39

   temp. (K)  partition function   enthalpy   heat capacity  entropy
                                   cal/mol     cal/K/mol   cal/K/mol   J/K/mol
 298.15  VIB  0.150E+22            28320.695    177.089    176.413
         ROT  0.699E+08              888.752      2.981     38.877
         INT  0.105E+30            29209.448    180.070    215.290
         TR   0.198E+29             1481.254      4.968     45.695
         TOT                       30690.7016   185.0378   260.9851  1091.9615

       T/K    H(0)-H(T)+PV         H(T)/Eh          T*S/Eh         G(T)/Eh
   ------------------------------------------------------------------------
    298.15    0.489087E-01    0.810037E+00    0.124002E+00    0.686034E+00
   ------------------------------------------------------------------------

         :::::::::::::::::::::::::::::::::::::::::::::::::::::
         ::                  THERMODYNAMIC                  ::
         :::::::::::::::::::::::::::::::::::::::::::::::::::::
         :: total free energy        -147.519219375014 Eh   ::
         ::.................................................::
         :: total energy             -148.205253703640 Eh   ::
         :: zero point energy           0.761128004733 Eh   ::
         :: G(RRHO) w/o ZPVE           -0.075093676107 Eh   ::
         :: G(RRHO) contrib.            0.686034328626 Eh   ::
         :::::::::::::::::::::::::::::::::::::::::::::::::::::

           -------------------------------------------------
          | TOTAL ENERGY             -148.205253703640 Eh   |
          | TOTAL ENTHALPY           -147.395216952664 Eh   |
          | TOTAL FREE ENERGY        -147.519219375014 Eh   |
          | GRADIENT NORM               0.000205165678 Eh/α |
           -------------------------------------------------

 * finished run on 2025/08/30 at 05:33:24.076
