   * xtb version 6.7.1 (edcfbbe) compiled by 'albert@albert-system' on 2024-07-22

   ID    Z sym.   atoms
    1    6 C      1-6, 8-13, 15-19, 22-26, 28-33, 35-42, 44, 45
    2    8 O      7, 34, 43
    3    7 N      14, 20, 21, 27
    4    1 H      46-69

          program call               : xtb data2507/toluene/PTZ–TAZ/PTZ–TAZ_toluene_S0_crest.xyz --gfn 2 --gbsa toluene --ohess vtight --parallel 40 --molden --ceasefiles --namespace data2507/toluene/PTZ–TAZ/PTZ–TAZ_toluene_S0_finalOpt
      * Solvation model:               GBSA
        Solvent                        toluene
        Solvent mass                       9.2140E+01 g/mol
          :  Hamiltonian                  GFN2-xTB          :
 * total energy  :  -117.6027278 Eh     change       -0.5316537E-08 Eh
 * total energy  :  -117.6027708 Eh     change       -0.4294309E-04 Eh
 * total energy  :  -117.6027862 Eh     change       -0.1545455E-04 Eh
 * total energy  :  -117.6027905 Eh     change       -0.4244731E-05 Eh
 * total energy  :  -117.6027944 Eh     change       -0.3950471E-05 Eh
 * total energy  :  -117.6027973 Eh     change       -0.2888341E-05 Eh
 * total energy  :  -117.6028005 Eh     change       -0.3179438E-05 Eh
 * total energy  :  -117.6028033 Eh     change       -0.2839841E-05 Eh
 * total energy  :  -117.6028051 Eh     change       -0.1759425E-05 Eh
 * total energy  :  -117.6028062 Eh     change       -0.1141784E-05 Eh
 * total energy  :  -117.6028823 Eh     change       -0.2064003E-06 Eh
 * total energy  :  -117.6028825 Eh     change       -0.2108977E-06 Eh
 * total energy  :  -117.6028828 Eh     change       -0.2775775E-06 Eh
 * total energy  :  -117.6028831 Eh     change       -0.3206809E-06 Eh
 * total energy  :  -117.6028834 Eh     change       -0.2789317E-06 Eh
 * total energy  :  -117.6028836 Eh     change       -0.2174072E-06 Eh
 * total energy  :  -117.6028837 Eh     change       -0.1579882E-06 Eh
 * total energy  :  -117.6028839 Eh     change       -0.1305825E-06 Eh
 * total energy  :  -117.6028840 Eh     change       -0.9766033E-07 Eh
   *** GEOMETRY OPTIMIZATION CONVERGED AFTER 59 ITERATIONS ***

 final structure:
================
69
 xtb: 6.7.1 (edcfbbe)
C           -9.07641008111360       -2.82829498965352        1.23933163410198
C           -7.77327985081074       -2.82383603565236        1.69481565534042
C           -6.87085548714214       -1.87856054444878        1.23110546374628
C           -7.25957541988442       -0.91061766573386        0.31252488299001
C           -8.57475389199958       -0.94739682320849       -0.16973078328311
C           -9.47196833770962       -1.89114153901781        0.29633917774879
O           -9.03465432881175       -0.07744925814828       -1.13037715658248
C           -8.15183731713769        0.86251748354314       -1.60701684742350
C           -8.63175930328990        1.74055048994427       -2.56175320385669
C           -7.81461748207775        2.74087856541832       -3.06745027576783
C           -6.52390387836469        2.86643327367489       -2.59410975279237
C           -6.03814689903310        1.98678215749674       -1.63841083460886
C           -6.83140615594815        0.95647483605520       -1.14730343735777
N           -6.37372382228963        0.05452117555082       -0.18052435398747
C           -5.04297477294623        0.10687522570276        0.27712733430226
C           -4.77091165590335        0.34786812583096        1.62489347081598
C           -3.46920220423471        0.38905198220218        2.07488169992740
C           -2.41350097334323        0.19425723682948        1.18124165399267
C           -1.05549460581752        0.23491997860984        1.66414597036276
N           -0.66478093848093        0.38684426250555        2.89798530382566
N            0.67567662012321        0.36133576963169        2.89891726195223
C            1.06209633801725        0.19551376704303        1.66550889449870
C            2.41834927875123        0.11309813846313        1.18312946443355
C            2.68341138704947       -0.00646391499666       -0.18222043287971
C            3.98537962791131       -0.07651454170460       -0.63064293758776
C            5.04432676100463       -0.03216661225830        0.27580565161775
N            6.37254856563623       -0.10534370905090       -0.18610551561000
C            7.26674511559299        0.94756617134486        0.03940206620387
C            6.88908186824559        2.12131356079615        0.68079210711755
C            7.80028913146980        3.14656538103896        0.88454479793418
C            9.10133982442221        3.02380578557888        0.43965264495914
C            9.48577879201020        1.87371082173630       -0.23372021896143
C            8.57962740843965        0.84962697980767       -0.44075670794697
O            9.02864515208488       -0.24045548983685       -1.14884415424496
C            8.13949174131888       -1.26758908417737       -1.35964219133626
C            8.61023483759679       -2.36674246831891       -2.05466461938892
C            7.78648667996762       -3.46029654173322       -2.27748063892064
C            6.49863600756365       -3.45173264301211       -1.78032752142301
C            6.02193408660323       -2.35050624501120       -1.08525489140602
C            6.82154414098233       -1.23136880597366       -0.88498631305286
C            4.77797657190242        0.08409218291056        1.64115912976144
C            3.47796111813783        0.15845723257606        2.09203475568994
O            0.00181399706930        0.10718140970841        0.82528215621091
C           -2.68416867990472       -0.04109509048764       -0.16777385894094
C           -3.98800221276567       -0.08574740259244       -0.61436104091606
H           -9.78418972572641       -3.55799093649473        1.59973069780501
H           -7.44301900235766       -3.55824832254597        2.41322121550495
H           -5.85190415233923       -1.90074684070986        1.58337766943017
H          -10.47609148211338       -1.87834939625342       -0.09768580100389
H           -9.65245984859106        1.62669788397886       -2.89179351179241
H           -8.19669599783680        3.41854688037980       -3.81454336103745
H           -5.88222570206899        3.65325116170582       -2.96011310016031
H           -5.03381562262074        2.10961735079581       -1.26523927913770
H           -5.58890451135282        0.50872487878294        2.31079556910096
H           -3.24291569805866        0.57865446529707        3.11194472651193
H            1.86494790537772       -0.03324732194069       -0.88561172234474
H            4.19300239856530       -0.15812930009351       -1.68713901617589
H            5.87190866934755        2.24076431334886        1.01822075659023
H            7.47843206726248        4.04334844620449        1.39128238407786
H            9.81598911638238        3.81574855824233        0.59910083035368
H           10.48766303336211        1.75284105034518       -0.61485326557991
H            9.62902296903564       -2.34778741500435       -2.40877984313470
H            8.16143341433661       -4.31145778403748       -2.82363245635545
H            5.85195076573083       -4.30364155373287       -1.92453475452973
H            5.02008604011586       -2.36752264632641       -0.68652168980628
H            5.59876498694666        0.10662879676895        2.34205587549970
H            3.25619492706696        0.24267787664542        3.14389435383495
H           -1.86875687677694       -0.19911303396070       -0.85736987898676
H           -4.20002450626959       -0.27963402030969       -1.65524745172162

          :  Hamiltonian                  GFN2-xTB          :
         :: gradient norm              0.000046788216 Eh/a0 ::
         :: HOMO-LUMO gap              1.515995737006 eV    ::
         :: SCC energy              -119.547583246996 Eh    ::
         :: -> dispersion             -0.092289971414 Eh    ::
         :: -> Gsolv                  -0.049022252850 Eh    ::
         :: repulsion energy           1.944699285321 Eh    ::

    * Orbital Energies and Occupations

         #    Occupation            Energy/Eh            Energy/eV
      -------------------------------------------------------------
         1        2.0000           -0.7748208             -21.0839
       ...           ...                  ...                  ...
        95        2.0000           -0.4279532             -11.6452
        96        2.0000           -0.4250452             -11.5661
        97        2.0000           -0.4250035             -11.5649
        98        2.0000           -0.4186989             -11.3934
        99        2.0000           -0.4186879             -11.3931
       100        2.0000           -0.4156923             -11.3116
       101        2.0000           -0.4156865             -11.3114
       102        2.0000           -0.4048798             -11.0173
       103        2.0000           -0.3954883             -10.7618
       104        2.0000           -0.3935984             -10.7104
       105        2.0000           -0.3928354             -10.6896
       106        2.0000           -0.3480869              -9.4719
       107        2.0000           -0.3470365              -9.4433 (HOMO)
       108                         -0.2913247              -7.9273 (LUMO)
       109                         -0.2684207              -7.3041
       110                         -0.2461068              -6.6969
       111                         -0.2460872              -6.6964
       112                         -0.2414402              -6.5699
       113                         -0.2414216              -6.5694
       114                         -0.2327474              -6.3334
       115                         -0.2327403              -6.3332
       116                         -0.2202354              -5.9929
       117                         -0.2192639              -5.9665
       118                         -0.2045279              -5.5655
       ...                                ...                  ...
       204                          0.6707592              18.2523
      -------------------------------------------------------------
                  HL-Gap            0.0557118 Eh            1.5160 eV

     #   Z          covCN         q      C6AA      α(0)
     1   6 C        2.919    -0.040    28.992     8.830
     2   6 C        2.919    -0.038    28.955     8.824
     3   6 C        2.924    -0.060    29.498     8.907
     4   6 C        2.921     0.041    27.075     8.533
     5   6 C        2.883     0.123    25.295     8.245
     6   6 C        2.920    -0.057    29.423     8.895
     7   8 O        1.708    -0.270    18.468     5.802
     8   6 C        2.883     0.123    25.292     8.245
     9   6 C        2.919    -0.057    29.425     8.895
    10   6 C        2.919    -0.040    28.997     8.830
    11   6 C        2.919    -0.039    28.962     8.825
    12   6 C        2.924    -0.060    29.496     8.906
    13   6 C        2.921     0.041    27.073     8.532
    14   7 N        2.750    -0.068    22.551     7.053
    15   6 C        2.920     0.071    26.403     8.426
    16   6 C        2.920    -0.036    28.899     8.816
    17   6 C        2.923    -0.027    28.672     8.781
    18   6 C        2.974    -0.012    28.300     8.726
    19   6 C        3.163     0.217    23.155     7.865
    20   7 N        2.044    -0.215    26.415     7.624
    21   7 N        2.044    -0.215    26.415     7.624
    22   6 C        3.163     0.217    23.155     7.865
    23   6 C        2.974    -0.012    28.301     8.726
    24   6 C        2.922    -0.026    28.647     8.777
    25   6 C        2.920    -0.038    28.957     8.824
    26   6 C        2.920     0.071    26.404     8.426
    27   7 N        2.750    -0.068    22.550     7.053
    28   6 C        2.921     0.041    27.075     8.533
    29   6 C        2.924    -0.060    29.497     8.907
    30   6 C        2.919    -0.038    28.955     8.824
    31   6 C        2.919    -0.040    28.992     8.830
    32   6 C        2.920    -0.057    29.423     8.895
    33   6 C        2.883     0.123    25.295     8.245
    34   8 O        1.708    -0.270    18.468     5.802
    35   6 C        2.883     0.123    25.292     8.245
    36   6 C        2.920    -0.057    29.425     8.895
    37   6 C        2.919    -0.040    28.996     8.830
    38   6 C        2.919    -0.039    28.962     8.825
    39   6 C        2.924    -0.060    29.496     8.906
    40   6 C        2.921     0.041    27.073     8.533
    41   6 C        2.920    -0.036    28.900     8.816
    42   6 C        2.923    -0.027    28.672     8.781
    43   8 O        1.721    -0.232    17.835     5.702
    44   6 C        2.922    -0.026    28.647     8.777
    45   6 C        2.920    -0.039    28.957     8.824
    46   1 H        0.926     0.044     2.401     2.423
    47   1 H        0.926     0.043     2.411     2.428
    48   1 H        0.926     0.041     2.437     2.441
    49   1 H        0.926     0.049     2.328     2.386
    50   1 H        0.926     0.049     2.330     2.387
    51   1 H        0.926     0.043     2.405     2.425
    52   1 H        0.926     0.042     2.420     2.433
    53   1 H        0.926     0.040     2.452     2.449
    54   1 H        0.926     0.058     2.222     2.331
    55   1 H        0.926     0.064     2.156     2.296
    56   1 H        0.926     0.054     2.276     2.359
    57   1 H        0.926     0.055     2.260     2.351
    58   1 H        0.926     0.041     2.436     2.441
    59   1 H        0.926     0.043     2.411     2.428
    60   1 H        0.926     0.044     2.401     2.423
    61   1 H        0.926     0.049     2.328     2.386
    62   1 H        0.926     0.049     2.329     2.387
    63   1 H        0.926     0.043     2.404     2.425
    64   1 H        0.926     0.042     2.420     2.433
    65   1 H        0.926     0.040     2.452     2.449
    66   1 H        0.926     0.058     2.222     2.331
    67   1 H        0.926     0.064     2.156     2.296
    68   1 H        0.926     0.054     2.276     2.359
    69   1 H        0.926     0.055     2.260     2.351

molecular dipole:
                 x           y           z       tot (Debye)
 q only:        0.003      -0.077      -0.621
   full:        0.002      -0.144      -1.139       2.919

 projected vibrational frequencies (cm⁻¹)
eigval :       -0.00    -0.00     0.00     0.00     0.00     0.00
eigval :        9.66    15.17    17.08    24.84    29.37    37.83
eigval :       44.62    52.71    62.67    63.60    71.57    94.19
eigval :      104.50   110.91   119.13   122.53   124.32   178.15
eigval :      188.25   191.51   203.59   242.98   251.60   253.57
eigval :      256.83   270.96   274.88   280.64   334.01   350.59
eigval :      369.55   375.15   378.14   379.71   389.02   393.99
eigval :      404.85   422.73   423.00   430.67   431.98   433.59
eigval :      445.79   450.21   465.40   488.46   499.83   501.91
eigval :      510.43   511.07   523.22   524.12   548.74   551.53
eigval :      586.65   587.16   590.44   602.19   608.29   608.98
eigval :      652.64   659.16   661.36   662.11   663.14   666.05
eigval :      677.92   681.13   708.72   715.07   722.33   727.32
eigval :      775.63   776.28   776.84   778.48   798.87   800.53
eigval :      822.75   824.82   853.39   853.43   859.83   862.55
eigval :      862.68   866.67   873.51   874.47   894.61   897.28
eigval :      898.03   898.74   907.98   912.26   912.52   912.78
eigval :      913.46   914.63   915.32   915.57   924.07   924.55
eigval :      932.51   934.50   970.11   972.84  1007.56  1017.17
eigval :     1081.07  1088.50  1088.74  1089.85  1090.95  1094.25
eigval :     1105.80  1105.82  1117.04  1117.16  1125.84  1126.69
eigval :     1167.67  1168.00  1172.37  1172.99  1174.66  1177.05
eigval :     1178.93  1184.91  1186.71  1197.66  1197.76  1216.80
eigval :     1219.02  1239.99  1240.29  1256.24  1257.68  1258.28
eigval :     1258.65  1273.26  1294.68  1303.50  1303.56  1312.01
eigval :     1313.89  1317.57  1322.36  1332.63  1332.81  1351.68
eigval :     1351.71  1405.53  1406.23  1421.79  1421.97  1439.71
eigval :     1439.87  1457.53  1457.72  1478.34  1478.59  1499.55
eigval :     1500.23  1530.35  1532.87  1555.01  1557.36  1566.54
eigval :     1566.61  1578.52  1578.65  1580.48  1580.78  1588.33
eigval :     1588.50  1601.03  1601.12  3086.82  3087.79  3088.31
eigval :     3088.93  3089.10  3089.13  3093.81  3094.10  3096.31
eigval :     3096.97  3097.04  3097.31  3098.88  3099.95  3104.93
eigval :     3105.47  3105.96  3106.09  3109.45  3109.86  3110.68
eigval :     3110.80  3113.47  3113.62

   temp. (K)  partition function   enthalpy   heat capacity  entropy
                                   cal/mol     cal/K/mol   cal/K/mol   J/K/mol
 298.15  VIB  0.371E+16            19963.359    127.456    123.650
         ROT  0.536E+08              888.752      2.981     38.347
         INT  0.199E+24            20852.111    130.437    161.997
         TR   0.137E+29             1481.254      4.968     44.961
         TOT                       22333.3649   135.4055   206.9578   865.9112

       T/K    H(0)-H(T)+PV         H(T)/Eh          T*S/Eh         G(T)/Eh
   ------------------------------------------------------------------------
    298.15    0.355905E-01    0.547331E+00    0.983323E-01    0.448999E+00
   ------------------------------------------------------------------------

         :::::::::::::::::::::::::::::::::::::::::::::::::::::
         ::                  THERMODYNAMIC                  ::
         :::::::::::::::::::::::::::::::::::::::::::::::::::::
         :: total free energy        -117.153884989011 Eh   ::
         ::.................................................::
         :: total energy             -117.602883962125 Eh   ::
         :: zero point energy           0.511740797712 Eh   ::
         :: G(RRHO) w/o ZPVE           -0.062741824598 Eh   ::
         :: G(RRHO) contrib.            0.448998973114 Eh   ::
         :::::::::::::::::::::::::::::::::::::::::::::::::::::

           -------------------------------------------------
          | TOTAL ENERGY             -117.602883962125 Eh   |
          | TOTAL ENTHALPY           -117.055552681992 Eh   |
          | TOTAL FREE ENERGY        -117.153884989011 Eh   |
          | GRADIENT NORM               0.000046783522 Eh/α |
          | HOMO-LUMO GAP               1.515995019834 eV   |
           -------------------------------------------------

 * finished run on 2025/09/14 at 13:36:56.811
