   * xtb version 6.7.1 (edcfbbe) compiled by 'albert@albert-system' on 2024-07-22

   ID    Z sym.   atoms
    1    6 C      1-6, 8-13, 15-19, 22-26, 28-33, 35-42, 44, 45
    2    8 O      7, 34, 43
    3    7 N      14, 20, 21, 27
    4    1 H      46-69

          program call               : xtb data2507/toluene/PTZ–TAZ/PTZ–TAZ_toluene_T1_crest.xyz --gfn 2 --uhf 2 --gbsa toluene --ohess vtight --parallel 40 --molden --ceasefiles --namespace data2507/toluene/PTZ–TAZ/PTZ–TAZ_toluene_T1_finalOpt
      * Solvation model:               GBSA
        Solvent                        toluene
        Solvent mass                       9.2140E+01 g/mol
          :  Hamiltonian                  GFN2-xTB          :
 * total energy  :  -117.5315315 Eh     change       -0.7078128E-08 Eh
 * total energy  :  -117.5316350 Eh     change       -0.1035323E-03 Eh
 * total energy  :  -117.5316934 Eh     change       -0.5840196E-04 Eh
 * total energy  :  -117.5317035 Eh     change       -0.1004229E-04 Eh
 * total energy  :  -117.5317148 Eh     change       -0.1130165E-04 Eh
 * total energy  :  -117.5317198 Eh     change       -0.5039197E-05 Eh
 * total energy  :  -117.5317353 Eh     change       -0.1545454E-04 Eh
 * total energy  :  -117.5317427 Eh     change       -0.7400025E-05 Eh
 * total energy  :  -117.5317542 Eh     change       -0.1149024E-04 Eh
 * total energy  :  -117.5317593 Eh     change       -0.5101394E-05 Eh
 * total energy  :  -117.5317808 Eh     change       -0.3811354E-06 Eh
 * total energy  :  -117.5317811 Eh     change       -0.2841784E-06 Eh
 * total energy  :  -117.5317813 Eh     change       -0.1786906E-06 Eh
 * total energy  :  -117.5317814 Eh     change       -0.1797475E-06 Eh
 * total energy  :  -117.5317816 Eh     change       -0.1859182E-06 Eh
 * total energy  :  -117.5317818 Eh     change       -0.1509859E-06 Eh
 * total energy  :  -117.5317819 Eh     change       -0.1380159E-06 Eh
 * total energy  :  -117.5317821 Eh     change       -0.2062072E-06 Eh
 * total energy  :  -117.5317822 Eh     change       -0.8750757E-07 Eh
   *** GEOMETRY OPTIMIZATION CONVERGED AFTER 41 ITERATIONS ***

 final structure:
================
69
 xtb: 6.7.1 (edcfbbe)
C           -7.97650444466218       -3.98284094719428       -0.18793389083178
C           -6.67295435309670       -3.76815250248536        0.23088729768187
C           -6.14401512510483       -2.49106290805957        0.25508032481234
C           -6.90790592205722       -1.39689589344375       -0.15152700452305
C           -8.24029751342518       -1.62331680309497       -0.54159975961540
C           -8.76228794276348       -2.90664938599175       -0.56464635281151
O           -9.07769832544538       -0.60205684568875       -0.89353642153337
C           -8.57831083975077        0.67012121796775       -0.86699262474626
C           -9.43805315164106        1.69486506987026       -1.22865022231677
C           -8.98636666346123        3.00354216157118       -1.25456102529882
C           -7.66636437502379        3.28106905343703       -0.93619533629714
C           -6.80233242494588        2.26466931467828       -0.57322801235171
C           -7.24552810640279        0.94348614609906       -0.50976904374960
N           -6.40777365506326       -0.10214077696457       -0.14614914214590
C           -5.06519662876320        0.14704348343445        0.22059048551205
C           -4.77345992126403        0.91517696818469        1.35931176464132
C           -3.47549681638102        1.15615913296695        1.71759481631400
C           -2.40636333193064        0.64517788508051        0.94199859790845
C           -1.07333120291333        0.90407944319488        1.31305918403076
N           -0.65676984128417        1.61323982488611        2.35596307794640
N            0.65850814456495        1.61243767476668        2.35556612863976
C            1.07343551969476        0.90319664981846        1.31194129130092
C            2.40590044207763        0.64459407533449        0.93857347643664
C            2.71271453448096       -0.12366767780212       -0.21050972135548
C            4.01396988141042       -0.37020135123165       -0.55861912313792
C            5.06371835661658        0.14550092710189        0.21399837615233
N            6.40598754420249       -0.10605048678735       -0.15230397535200
C            7.24627888496289        0.93835747752122       -0.51339902897220
C            6.80454217815882        2.25988379850773       -0.57983976933531
C            7.67112337769011        3.27520532253929       -0.93971780891074
C            8.99233043951836        2.99625531855231       -1.25179719903289
C            9.44269902792856        1.68718054046690       -1.22299358270685
C            8.58033578311656        0.66348335670509       -0.86468263476613
O            9.07870400751906       -0.60916097843176       -0.88752610084235
C            8.23841404917976       -1.62939663291732       -0.53952501424547
C            8.75915665925891       -2.91329311555237       -0.55992836603678
C            7.97037264902643       -3.98865637401306       -0.18717894290881
C            6.66494275668486       -3.77257077430971        0.22500877441754
C            6.13737887574073       -2.49486547881574        0.24697812712994
C            6.90445400468503       -1.40147537450616       -0.15571567103212
C            4.77356325691087        0.91282469873726        1.35369821525910
C            3.47614097158469        1.15427410373009        1.71349281548130
O           -0.00047834394425        0.41234852237861        0.59300981940502
C           -2.71477641921667       -0.12518456193379       -0.20526036481398
C           -4.01649640037662       -0.37119309441066       -0.55183717125113
H           -8.38699718662257       -4.97971986523596       -0.20977322808710
H           -6.06053132613657       -4.59816757126022        0.54710828816102
H           -5.13457741671861       -2.32939545765752        0.59730113906289
H           -9.78685147417698       -3.03625155548154       -0.87492667141606
H          -10.45308892349363        1.44198292937110       -1.49052522650030
H           -9.66003675680806        3.79773462976563       -1.53405202461507
H           -7.30057338649524        4.29529467332961       -0.97380546153120
H           -5.77297071076895        2.48630779717338       -0.34192778508138
H           -5.58665721019466        1.29685762933710        1.95976808035280
H           -3.23342569010647        1.73084452781627        2.59741874532842
H            1.90157505271512       -0.50581167610892       -0.81230328644607
H            4.24313257432326       -0.94715723395659       -1.44335765728967
H            5.77438961902283        2.48258672520005       -0.35308429773798
H            7.30645689620753        4.28974555995613       -0.97970737044347
H            9.66801131870574        3.78963961105536       -1.52870816825999
H           10.45877013761716        1.43322235113582       -1.47976631127529
H            9.78511175577621       -3.04396055752177       -0.86512778409805
H            8.37997501411866       -4.98594420483803       -0.20680286997111
H            6.04998516285275       -4.60195425038560        0.53793761669192
H            5.12627376300937       -2.33226325019197        0.58377639187553
H            5.58763407228863        1.29337698119025        1.95369135128078
H            3.23525343384543        1.72820059435678        2.59414230669087
H           -1.90442209168691       -0.50934668833746       -0.80681583267747
H           -4.24695885076985       -0.94975600210195       -1.43518358176024

          :  Hamiltonian                  GFN2-xTB          :
         :: gradient norm              0.000141230696 Eh/a0 ::
         :: HOMO-LUMO gap              0.463372782253 eV    ::
         :: SCC energy              -119.460543441108 Eh    ::
         :: -> dispersion             -0.092404772559 Eh    ::
         :: -> Gsolv                  -0.055653316376 Eh    ::
         :: repulsion energy           1.928761225590 Eh    ::

    * Orbital Energies and Occupations

         #    Occupation            Energy/Eh            Energy/eV
      -------------------------------------------------------------
         1        2.0000           -0.7505505             -20.4235
       ...           ...                  ...                  ...
        96        2.0000           -0.4257776             -11.5860
        97        2.0000           -0.4249697             -11.5640
        98        2.0000           -0.4096657             -11.1476
        99        2.0000           -0.4095085             -11.1433
       100        2.0000           -0.4094806             -11.1425
       101        2.0000           -0.4049642             -11.0196
       102        2.0000           -0.4023667             -10.9490
       103        2.0000           -0.3984785             -10.8432
       104        2.0000           -0.3717966             -10.1171
       105        1.9988           -0.3617144              -9.8427
       106        1.8534           -0.3570200              -9.7150
       107        1.1478           -0.3536822              -9.6242
       108        0.9998           -0.2719990              -7.4015 (HOMO)
       109        0.0001           -0.2549700              -6.9381 (LUMO)
       110        0.0001           -0.2549677              -6.9380
       111                         -0.2477414              -6.7414
       112                         -0.2432506              -6.6192
       113                         -0.2432471              -6.6191
       114                         -0.2290065              -6.2316
       115                         -0.2280995              -6.2069
       116                         -0.2229045              -6.0655
       117                         -0.2228988              -6.0654
       118                         -0.2110187              -5.7421
       119                         -0.2103358              -5.7235
       ...                                ...                  ...
       204                          0.6833151              18.5940
      -------------------------------------------------------------
                  HL-Gap            0.0170289 Eh            0.4634 eV

     #   Z          covCN         q      C6AA      α(0)
     1   6 C        2.919    -0.031    28.780     8.797
     2   6 C        2.918    -0.031    28.781     8.797
     3   6 C        2.921    -0.051    29.265     8.871
     4   6 C        2.925     0.045    26.980     8.518
     5   6 C        2.885     0.129    25.168     8.225
     6   6 C        2.917    -0.053    29.316     8.879
     7   8 O        1.709    -0.234    17.879     5.709
     8   6 C        2.885     0.129    25.168     8.225
     9   6 C        2.917    -0.053    29.315     8.879
    10   6 C        2.919    -0.031    28.774     8.796
    11   6 C        2.918    -0.031    28.775     8.796
    12   6 C        2.921    -0.051    29.264     8.871
    13   6 C        2.925     0.045    26.981     8.518
    14   7 N        2.751    -0.025    21.733     6.924
    15   6 C        2.921     0.033    27.266     8.563
    16   6 C        2.914    -0.041    29.016     8.833
    17   6 C        2.921    -0.042    29.034     8.836
    18   6 C        2.969    -0.027    28.664     8.782
    19   6 C        3.103     0.193    23.771     7.989
    20   7 N        2.028    -0.237    26.965     7.702
    21   7 N        2.028    -0.237    26.966     7.702
    22   6 C        3.103     0.193    23.771     7.989
    23   6 C        2.969    -0.027    28.664     8.782
    24   6 C        2.919    -0.041    29.021     8.834
    25   6 C        2.914    -0.042    29.041     8.837
    26   6 C        2.921     0.033    27.266     8.563
    27   7 N        2.751    -0.025    21.733     6.924
    28   6 C        2.925     0.045    26.981     8.518
    29   6 C        2.921    -0.051    29.263     8.871
    30   6 C        2.918    -0.031    28.775     8.796
    31   6 C        2.919    -0.031    28.774     8.796
    32   6 C        2.917    -0.053    29.315     8.879
    33   6 C        2.885     0.129    25.168     8.225
    34   8 O        1.709    -0.234    17.879     5.709
    35   6 C        2.885     0.129    25.168     8.225
    36   6 C        2.917    -0.053    29.316     8.879
    37   6 C        2.919    -0.031    28.780     8.797
    38   6 C        2.918    -0.031    28.781     8.797
    39   6 C        2.921    -0.051    29.265     8.871
    40   6 C        2.925     0.045    26.980     8.518
    41   6 C        2.914    -0.041    29.016     8.833
    42   6 C        2.921    -0.042    29.034     8.836
    43   8 O        1.712    -0.302    19.033     5.890
    44   6 C        2.919    -0.041    29.021     8.834
    45   6 C        2.914    -0.042    29.041     8.837
    46   1 H        0.926     0.057     2.239     2.340
    47   1 H        0.926     0.053     2.279     2.360
    48   1 H        0.926     0.052     2.289     2.366
    49   1 H        0.926     0.063     2.170     2.303
    50   1 H        0.926     0.063     2.169     2.303
    51   1 H        0.926     0.057     2.236     2.339
    52   1 H        0.926     0.054     2.271     2.357
    53   1 H        0.926     0.053     2.278     2.360
    54   1 H        0.926     0.038     2.470     2.458
    55   1 H        0.926     0.041     2.430     2.438
    56   1 H        0.926     0.030     2.593     2.518
    57   1 H        0.926     0.035     2.512     2.478
    58   1 H        0.926     0.053     2.278     2.360
    59   1 H        0.926     0.054     2.271     2.357
    60   1 H        0.926     0.057     2.236     2.339
    61   1 H        0.926     0.063     2.169     2.303
    62   1 H        0.926     0.063     2.170     2.303
    63   1 H        0.926     0.057     2.239     2.340
    64   1 H        0.926     0.053     2.279     2.361
    65   1 H        0.926     0.052     2.289     2.366
    66   1 H        0.926     0.038     2.471     2.458
    67   1 H        0.926     0.041     2.430     2.438
    68   1 H        0.926     0.030     2.593     2.518
    69   1 H        0.926     0.035     2.512     2.479

molecular dipole:
                 x           y           z       tot (Debye)
 q only:       -0.002      -1.211      -1.808
   full:       -0.002      -1.485      -2.212       6.773

 projected vibrational frequencies (cm⁻¹)
eigval :       -0.00    -0.00     0.00     0.00     0.00     0.00
eigval :        7.81     8.69    15.69    23.68    30.62    38.14
eigval :       41.49    59.68    61.76    69.34    73.07   103.54
eigval :      105.10   109.29   116.24   121.86   122.47   170.18
eigval :      175.56   194.65   206.69   239.38   244.59   245.41
eigval :      251.29   272.09   276.63   278.89   326.72   344.61
eigval :      363.39   373.68   379.57   380.95   381.56   389.55
eigval :      401.71   418.38   421.44   425.27   432.47   432.94
eigval :      453.69   457.79   465.17   469.86   472.34   499.19
eigval :      499.40   503.15   528.45   528.82   538.09   540.35
eigval :      581.05   582.67   587.33   600.71   604.59   604.90
eigval :      605.23   647.72   648.02   657.12   661.21   666.95
eigval :      668.29   670.92   671.21   680.03   699.42   717.49
eigval :      776.19   776.45   778.59   778.79   794.78   795.63
eigval :      797.61   797.97   839.17   841.54   855.15   855.16
eigval :      866.53   866.73   867.21   867.24   891.55   900.00
eigval :      900.08   901.30   902.37   902.88   907.14   907.36
eigval :      911.78   912.27   912.74   912.89   915.92   918.95
eigval :      919.14   920.90   921.00   930.67   985.95   987.90
eigval :     1038.14  1046.83  1082.42  1082.48  1083.86  1084.28
eigval :     1111.77  1111.81  1117.15  1117.77  1124.53  1125.18
eigval :     1154.92  1165.96  1168.99  1170.39  1171.71  1176.17
eigval :     1185.55  1190.35  1198.73  1206.53  1206.54  1209.25
eigval :     1220.79  1234.96  1235.25  1238.84  1250.67  1251.18
eigval :     1252.93  1259.25  1279.20  1300.06  1300.21  1303.53
eigval :     1308.40  1315.40  1315.82  1333.89  1336.79  1337.72
eigval :     1345.03  1371.88  1412.87  1412.99  1414.44  1422.35
eigval :     1426.43  1436.71  1438.57  1438.64  1438.69  1452.94
eigval :     1463.14  1463.16  1466.89  1473.86  1526.80  1547.19
eigval :     1551.49  1551.52  1557.83  1557.84  1565.27  1569.80
eigval :     1579.79  1581.56  1599.35  3071.28  3071.47  3075.92
eigval :     3076.26  3087.82  3088.27  3094.52  3094.53  3094.71
eigval :     3094.74  3102.80  3102.84  3103.04  3103.06  3106.48
eigval :     3106.93  3112.02  3112.03  3112.38  3112.38  3115.19
eigval :     3115.26  3115.31  3115.65

   temp. (K)  partition function   enthalpy   heat capacity  entropy
                                   cal/mol     cal/K/mol   cal/K/mol   J/K/mol
 298.15  VIB  0.934E+16            20176.903    129.085    125.479
         ROT  0.107E+09              888.752      2.981     39.723
         INT  0.100E+25            21065.656    132.066    165.202
         TR   0.137E+29             1481.254      4.968     44.961
         TOT                       22546.9096   137.0338   210.1631   879.3226

       T/K    H(0)-H(T)+PV         H(T)/Eh          T*S/Eh         G(T)/Eh
   ------------------------------------------------------------------------
    298.15    0.359308E-01    0.544014E+00    0.998553E-01    0.444159E+00
   ------------------------------------------------------------------------

         :::::::::::::::::::::::::::::::::::::::::::::::::::::
         ::                  THERMODYNAMIC                  ::
         :::::::::::::::::::::::::::::::::::::::::::::::::::::
         :: total free energy        -117.087623265873 Eh   ::
         ::.................................................::
         :: total energy             -117.531782213513 Eh   ::
         :: zero point energy           0.508083447388 Eh   ::
         :: G(RRHO) w/o ZPVE           -0.063924499748 Eh   ::
         :: G(RRHO) contrib.            0.444158947639 Eh   ::
         :::::::::::::::::::::::::::::::::::::::::::::::::::::

           -------------------------------------------------
          | TOTAL ENERGY             -117.531782213513 Eh   |
          | TOTAL ENTHALPY           -116.987767978516 Eh   |
          | TOTAL FREE ENERGY        -117.087623265873 Eh   |
          | GRADIENT NORM               0.000141390014 Eh/α |
          | HOMO-LUMO GAP               0.463380470891 eV   |
           -------------------------------------------------

 * finished run on 2025/09/14 at 13:42:05.121
