   * xtb version 6.7.1 (edcfbbe) compiled by 'albert@albert-system' on 2024-07-22

   ID    Z sym.   atoms
    1    6 C      1-6, 8-13, 15-19, 22-26, 28-33, 35-42, 44, 45
    2    8 O      7, 34, 43
    3    7 N      14, 20, 21, 27
    4    1 H      46-69

          program call               : xtb data2507/toluene/PTZ–TAZ/PTZ–TAZ_toluene_S0_finalOpt.xtbopt.xyz --gfn 2 --uhf 2 --gbsa toluene --ohess vtight --parallel 40 --molden --ceasefiles --namespace data2507/toluene/PTZ–TAZ/PTZ–TAZ_toluene_T1_preOpt
      * Solvation model:               GBSA
        Solvent                        toluene
        Solvent mass                       9.2140E+01 g/mol
          :  Hamiltonian                  GFN2-xTB          :
 * total energy  :  -117.5258252 Eh     change       -0.1269552E-07 Eh
 * total energy  :  -117.5303147 Eh     change       -0.4489519E-02 Eh
 * total energy  :  -117.5315137 Eh     change       -0.1198923E-02 Eh
 * total energy  :  -117.5315815 Eh     change       -0.6782291E-04 Eh
 * total energy  :  -117.5316091 Eh     change       -0.2765882E-04 Eh
 * total energy  :  -117.5316140 Eh     change       -0.4829239E-05 Eh
 * total energy  :  -117.5316204 Eh     change       -0.6482606E-05 Eh
 * total energy  :  -117.5316259 Eh     change       -0.5419058E-05 Eh
 * total energy  :  -117.5316305 Eh     change       -0.4642626E-05 Eh
 * total energy  :  -117.5316349 Eh     change       -0.4401739E-05 Eh
 * total energy  :  -117.5316896 Eh     change       -0.1929226E-06 Eh
 * total energy  :  -117.5316898 Eh     change       -0.2053688E-06 Eh
 * total energy  :  -117.5316901 Eh     change       -0.2734602E-06 Eh
 * total energy  :  -117.5316905 Eh     change       -0.4470675E-06 Eh
 * total energy  :  -117.5316911 Eh     change       -0.6307108E-06 Eh
 * total energy  :  -117.5316918 Eh     change       -0.6635404E-06 Eh
 * total energy  :  -117.5316924 Eh     change       -0.5475716E-06 Eh
 * total energy  :  -117.5316926 Eh     change       -0.2859019E-06 Eh
 * total energy  :  -117.5316926 Eh     change       -0.3412410E-08 Eh
   *** GEOMETRY OPTIMIZATION CONVERGED AFTER 44 ITERATIONS ***

 final structure:
================
69
 xtb: 6.7.1 (edcfbbe)
C           -9.06198102799535       -2.86420765026411        1.20623550989063
C           -7.73935956654301       -2.87642264331117        1.61991894964868
C           -6.85129454589244       -1.92015616657902        1.16355344778225
C           -7.27183070748702       -0.91892217273976        0.28786877302576
C           -8.60707630300191       -0.93932335799086       -0.15394405020953
C           -9.49130632136983       -1.90012690723282        0.30982616548022
O           -9.08560245231671       -0.03908632583801       -1.06450523233431
C           -8.22447206414183        0.91375367426325       -1.53196423914855
C           -8.72515234313398        1.82292763798903       -2.44995026554789
C           -7.91555892406001        2.83489830785824       -2.93771143961508
C           -6.61020133664798        2.94740026450596       -2.48608165760933
C           -6.10243519860704        2.04319156629420       -1.57171415006486
C           -6.88968914301916        0.99450614088548       -1.09549500334325
N           -6.41023978973821        0.06206440601009       -0.18547574182857
C           -5.06628025509350        0.10730981028484        0.24941555435204
C           -4.76806096972675        0.32422956110903        1.60459713653907
C           -3.46878808203579        0.36516713933696        2.02981759506174
C           -2.40388397298047        0.18305797197076        1.11395422709247
C           -1.07012941963928        0.21704034314166        1.56258828515183
N           -0.65238813554946        0.37478411225921        2.81372867099267
N            0.66215596218667        0.34085520250037        2.81623456211546
C            1.07606477936390        0.16656027008605        1.56603307405140
C            2.40841765022533        0.08680823073115        1.11907494167111
C            2.71774581154601       -0.05682510462550       -0.25522866424552
C            4.01942348576732       -0.12649450582300       -0.67443038860623
C            5.06810633971816       -0.05006117669316        0.25303374521057
N            6.41021474459968       -0.11640453039981       -0.18498059600842
C            7.27146502184408        0.95504831151218        0.01202184811854
C            6.85349472238289        2.14828712773442        0.60165906515324
C            7.74181482973097        3.19082859544444        0.78987108341351
C            9.06194287043645        3.07344639953889        0.38484453003743
C            9.48843064078828        1.91101631489540       -0.23496271405665
C            8.60399682115927        0.86215342982000       -0.42895317076365
O            9.07973279672968       -0.24231406330041       -1.07884123024944
C            8.22003264845827       -1.28664932531134       -1.27386488388795
C            8.71871720260626       -2.40313193075504       -1.92558594465069
C            7.91110681732033       -3.51034932661737       -2.12358893472305
C            6.60988158546853       -3.50484218482912       -1.64669119609607
C            6.10383386273251       -2.39375695802970       -0.99804864822798
C            6.88871516754026       -1.25405156223125       -0.82102820628060
C            4.77493445660273        0.09280521941733        1.61913399558393
C            3.47702366226598        0.15609390721335        2.04598848078810
O            0.00161614582545        0.07694387443580        0.70064279997419
C           -2.71832326036831       -0.03555188045926       -0.24917520314813
C           -4.02141357206240       -0.06825920262920       -0.66875962487128
H           -9.75484370509282       -3.60763500178892        1.56667345055827
H           -7.39003881878706       -3.63753569698621        2.30002529464881
H           -5.82053556114816       -1.94596720289855        1.47810986093253
H          -10.50751838373788       -1.87566900093389       -0.05001119378319
H           -9.75222973868175        1.72081568223876       -2.76219331876633
H           -8.30919442100118        3.53742479683759       -3.65480366304206
H           -5.97967049865408        3.74706273679318       -2.84247944635642
H           -5.09142934244106        2.14732025938894       -1.21228785262956
H           -5.57732860740130        0.47737388069238        2.30393732889913
H           -3.22184021637986        0.54375754578822        3.06425123596492
H            1.90815554529798       -0.09947667141936       -0.96860689291475
H            4.25013911916577       -0.22064809581143       -1.72612017508508
H            5.82468279485743        2.25350973501166        0.90573397279982
H            7.39477925279031        4.10144695483288        1.25272699705960
H            9.75520687575876        3.88531027920420        0.53629849333205
H           10.50256215048535        1.79537161216974       -0.58272616617310
H            9.74308683809486       -2.38321928566593       -2.26184843323930
H            8.30330571049115       -4.37572969333302       -2.63348828269580
H            5.98161142456275       -4.37262870768190       -1.77413647505221
H            5.09630172383078       -2.40317054509162       -0.61472817540551
H            5.58688984566347        0.13167227951672        2.33093175543955
H            3.23425052263660        0.25238596141230        3.09228781388409
H           -1.91163655149955       -0.18653443160244       -0.95106969458982
H           -4.25628976119813       -0.25093153869045       -1.70781354663584

          :  Hamiltonian                  GFN2-xTB          :
         :: gradient norm              0.000039593828 Eh/a0 ::
         :: HOMO-LUMO gap              0.470124692018 eV    ::
         :: SCC energy              -119.460277055820 Eh    ::
         :: -> dispersion             -0.092418143551 Eh    ::
         :: -> Gsolv                  -0.055503465237 Eh    ::
         :: repulsion energy           1.928584409054 Eh    ::

    * Orbital Energies and Occupations

         #    Occupation            Energy/Eh            Energy/eV
      -------------------------------------------------------------
         1        2.0000           -0.7504437             -20.4206
       ...           ...                  ...                  ...
        96        2.0000           -0.4259429             -11.5905
        97        2.0000           -0.4249735             -11.5641
        98        2.0000           -0.4098936             -11.1538
        99        2.0000           -0.4095504             -11.1444
       100        2.0000           -0.4094991             -11.1430
       101        2.0000           -0.4048390             -11.0162
       102        2.0000           -0.4022070             -10.9446
       103        2.0000           -0.3986769             -10.8486
       104        2.0000           -0.3721096             -10.1256
       105        1.9991           -0.3618797              -9.8472
       106        1.8626           -0.3569340              -9.7127
       107        1.1383           -0.3534504              -9.6179
       108        0.9998           -0.2721560              -7.4057 (HOMO)
       109        0.0001           -0.2548797              -6.9356 (LUMO)
       110        0.0001           -0.2548685              -6.9353
       111                         -0.2479537              -6.7472
       112                         -0.2431637              -6.6168
       113                         -0.2431617              -6.6168
       114                         -0.2289372              -6.2297
       115                         -0.2279757              -6.2035
       116                         -0.2229782              -6.0675
       117                         -0.2229664              -6.0672
       118                         -0.2109812              -5.7411
       119                         -0.2102386              -5.7209
       ...                                ...                  ...
       204                          0.6831308              18.5889
      -------------------------------------------------------------
                  HL-Gap            0.0172763 Eh            0.4701 eV

     #   Z          covCN         q      C6AA      α(0)
     1   6 C        2.919    -0.031    28.775     8.797
     2   6 C        2.918    -0.031    28.777     8.797
     3   6 C        2.921    -0.051    29.266     8.871
     4   6 C        2.925     0.045    26.985     8.519
     5   6 C        2.885     0.129    25.169     8.225
     6   6 C        2.917    -0.053    29.316     8.879
     7   8 O        1.709    -0.234    17.883     5.710
     8   6 C        2.885     0.129    25.169     8.225
     9   6 C        2.917    -0.053    29.318     8.879
    10   6 C        2.919    -0.031    28.782     8.798
    11   6 C        2.918    -0.031    28.784     8.798
    12   6 C        2.921    -0.051    29.267     8.872
    13   6 C        2.925     0.045    26.984     8.519
    14   7 N        2.751    -0.025    21.731     6.924
    15   6 C        2.921     0.033    27.260     8.562
    16   6 C        2.914    -0.041    29.017     8.833
    17   6 C        2.921    -0.042    29.032     8.836
    18   6 C        2.969    -0.027    28.661     8.781
    19   6 C        3.103     0.194    23.770     7.989
    20   7 N        2.028    -0.237    26.958     7.701
    21   7 N        2.028    -0.237    26.958     7.701
    22   6 C        3.103     0.194    23.770     7.989
    23   6 C        2.969    -0.027    28.661     8.781
    24   6 C        2.919    -0.041    29.019     8.834
    25   6 C        2.914    -0.042    29.041     8.837
    26   6 C        2.921     0.033    27.260     8.562
    27   7 N        2.751    -0.025    21.731     6.924
    28   6 C        2.924     0.045    26.985     8.519
    29   6 C        2.921    -0.051    29.267     8.872
    30   6 C        2.918    -0.031    28.777     8.797
    31   6 C        2.919    -0.031    28.775     8.797
    32   6 C        2.917    -0.053    29.316     8.879
    33   6 C        2.885     0.129    25.169     8.225
    34   8 O        1.709    -0.234    17.882     5.710
    35   6 C        2.885     0.129    25.168     8.225
    36   6 C        2.917    -0.053    29.318     8.879
    37   6 C        2.919    -0.031    28.781     8.798
    38   6 C        2.918    -0.031    28.784     8.798
    39   6 C        2.921    -0.051    29.266     8.871
    40   6 C        2.925     0.045    26.985     8.519
    41   6 C        2.914    -0.041    29.018     8.833
    42   6 C        2.921    -0.042    29.033     8.836
    43   8 O        1.712    -0.302    19.031     5.890
    44   6 C        2.919    -0.041    29.019     8.834
    45   6 C        2.914    -0.042    29.042     8.837
    46   1 H        0.926     0.057     2.238     2.339
    47   1 H        0.926     0.054     2.272     2.357
    48   1 H        0.926     0.054     2.276     2.359
    49   1 H        0.926     0.062     2.170     2.304
    50   1 H        0.926     0.062     2.171     2.304
    51   1 H        0.926     0.056     2.241     2.341
    52   1 H        0.926     0.053     2.280     2.361
    53   1 H        0.926     0.053     2.288     2.366
    54   1 H        0.926     0.039     2.466     2.456
    55   1 H        0.926     0.042     2.428     2.437
    56   1 H        0.926     0.030     2.591     2.517
    57   1 H        0.926     0.036     2.509     2.477
    58   1 H        0.926     0.054     2.275     2.359
    59   1 H        0.926     0.054     2.272     2.357
    60   1 H        0.926     0.057     2.238     2.339
    61   1 H        0.926     0.062     2.170     2.304
    62   1 H        0.926     0.062     2.171     2.304
    63   1 H        0.926     0.056     2.241     2.341
    64   1 H        0.926     0.053     2.280     2.361
    65   1 H        0.926     0.053     2.289     2.366
    66   1 H        0.926     0.039     2.466     2.456
    67   1 H        0.926     0.042     2.429     2.437
    68   1 H        0.926     0.030     2.591     2.517
    69   1 H        0.926     0.036     2.509     2.477

molecular dipole:
                 x           y           z       tot (Debye)
 q only:       -0.001      -0.273      -2.130
   full:       -0.002      -0.338      -2.616       6.706

 projected vibrational frequencies (cm⁻¹)
eigval :       -0.00    -0.00     0.00     0.00     0.00     0.00
eigval :        8.27     9.64    12.09    23.68    26.69    37.82
eigval :       44.22    59.17    63.61    69.11    75.22   103.01
eigval :      107.98   109.54   119.36   120.94   124.77   171.37
eigval :      176.45   194.47   207.73   238.18   244.23   246.18
eigval :      252.51   271.30   275.94   279.42   328.55   344.25
eigval :      364.53   374.26   378.36   382.85   384.34   390.04
eigval :      401.92   418.69   421.39   425.53   433.13   434.03
eigval :      452.95   460.51   463.94   468.26   473.29   498.37
eigval :      498.93   502.98   527.66   528.56   538.41   540.27
eigval :      581.19   582.67   587.36   600.56   604.75   604.95
eigval :      605.53   647.93   648.05   657.29   661.15   666.29
eigval :      667.82   669.93   670.55   680.84   699.33   717.40
eigval :      774.44   775.49   778.15   778.40   795.85   796.31
eigval :      797.78   798.18   839.66   842.15   855.31   855.36
eigval :      863.54   866.77   867.88   868.59   891.58   896.60
eigval :      899.55   900.66   900.98   901.29   904.82   905.01
eigval :      911.83   912.44   912.86   914.04   915.59   919.03
eigval :      919.84   920.46   922.20   930.77   985.84   987.82
eigval :     1037.57  1046.62  1082.85  1083.62  1084.60  1085.83
eigval :     1111.47  1112.31  1117.07  1118.04  1124.37  1124.98
eigval :     1154.87  1166.91  1170.34  1171.46  1172.53  1176.95
eigval :     1186.19  1190.72  1199.33  1207.10  1208.25  1208.43
eigval :     1220.64  1234.99  1235.82  1238.69  1250.95  1251.66
eigval :     1254.38  1258.77  1279.58  1300.00  1300.22  1303.11
eigval :     1308.07  1315.25  1315.68  1333.88  1336.79  1337.56
eigval :     1344.94  1371.29  1412.64  1413.12  1414.04  1422.53
eigval :     1426.63  1436.84  1438.79  1438.93  1439.09  1452.69
eigval :     1462.96  1463.21  1467.50  1473.86  1526.72  1547.05
eigval :     1551.26  1551.46  1557.79  1557.84  1565.31  1569.76
eigval :     1579.86  1581.56  1599.45  3071.05  3071.46  3076.13
eigval :     3076.47  3087.12  3087.96  3094.45  3094.77  3095.03
eigval :     3095.20  3103.17  3103.39  3103.55  3103.75  3106.58
eigval :     3106.94  3112.16  3112.52  3112.73  3112.94  3115.17
eigval :     3115.78  3116.00  3116.30

   temp. (K)  partition function   enthalpy   heat capacity  entropy
                                   cal/mol     cal/K/mol   cal/K/mol   J/K/mol
 298.15  VIB  0.100E+17            20163.093    129.103    125.405
         ROT  0.535E+08              888.752      2.981     38.345
         INT  0.536E+24            21051.845    132.084    163.750
         TR   0.137E+29             1481.254      4.968     44.961
         TOT                       22533.0993   137.0522   208.7113   873.2479

       T/K    H(0)-H(T)+PV         H(T)/Eh          T*S/Eh         G(T)/Eh
   ------------------------------------------------------------------------
    298.15    0.359088E-01    0.544044E+00    0.991655E-01    0.444879E+00
   ------------------------------------------------------------------------

         :::::::::::::::::::::::::::::::::::::::::::::::::::::
         ::                  THERMODYNAMIC                  ::
         :::::::::::::::::::::::::::::::::::::::::::::::::::::
         :: total free energy        -117.086813610319 Eh   ::
         ::.................................................::
         :: total energy             -117.531692643943 Eh   ::
         :: zero point energy           0.508135709307 Eh   ::
         :: G(RRHO) w/o ZPVE           -0.063256675683 Eh   ::
         :: G(RRHO) contrib.            0.444879033624 Eh   ::
         :::::::::::::::::::::::::::::::::::::::::::::::::::::

           -------------------------------------------------
          | TOTAL ENERGY             -117.531692643943 Eh   |
          | TOTAL ENTHALPY           -116.987648155215 Eh   |
          | TOTAL FREE ENERGY        -117.086813610319 Eh   |
          | GRADIENT NORM               0.000041209819 Eh/α |
          | HOMO-LUMO GAP               0.470112495855 eV   |
           -------------------------------------------------

 * finished run on 2025/09/14 at 13:37:03.064
