   * xtb version 6.7.1 (edcfbbe) compiled by 'albert@albert-system' on 2024-07-22

   ID    Z sym.   atoms
    1    6 C      1-6, 8-13, 15-19, 22-26, 28-33, 35-42, 44, 45
    2    8 O      7, 34, 43
    3    7 N      14, 20, 21, 27
    4    1 H      46-69

          program call               : xtb data2507/toluene/PTZ–TAZ/PTZ–TAZ.xyz --gfn 2 --gbsa toluene --ohess vtight --parallel 40 --molden --ceasefiles --namespace data2507/toluene/PTZ–TAZ/PTZ–TAZ_toluene_S0_preOpt
      * Solvation model:               GBSA
        Solvent                        toluene
        Solvent mass                       9.2140E+01 g/mol
          :  Hamiltonian                  GFN2-xTB          :
 * total energy  :  -117.5823949 Eh     change       -0.6460567E-08 Eh
 * total energy  :  -117.5940307 Eh     change       -0.1163583E-01 Eh
 * total energy  :  -117.5977791 Eh     change       -0.3748428E-02 Eh
 * total energy  :  -117.5990447 Eh     change       -0.1265582E-02 Eh
 * total energy  :  -117.5997909 Eh     change       -0.7462176E-03 Eh
 * total energy  :  -117.6001398 Eh     change       -0.3488746E-03 Eh
 * total energy  :  -117.6003022 Eh     change       -0.1624299E-03 Eh
 * total energy  :  -117.6003709 Eh     change       -0.6868224E-04 Eh
 * total energy  :  -117.6004096 Eh     change       -0.3869588E-04 Eh
 * total energy  :  -117.6004254 Eh     change       -0.1578967E-04 Eh
 * total energy  :  -117.6027542 Eh     change       -0.2214428E-05 Eh
 * total energy  :  -117.6027562 Eh     change       -0.1926188E-05 Eh
 * total energy  :  -117.6027577 Eh     change       -0.1536132E-05 Eh
 * total energy  :  -117.6027590 Eh     change       -0.1283923E-05 Eh
 * total energy  :  -117.6027602 Eh     change       -0.1201612E-05 Eh
 * total energy  :  -117.6027615 Eh     change       -0.1280045E-05 Eh
 * total energy  :  -117.6027629 Eh     change       -0.1391729E-05 Eh
 * total energy  :  -117.6027641 Eh     change       -0.1261356E-05 Eh
 * total energy  :  -117.6027641 Eh     change       -0.5334229E-08 Eh
   *** GEOMETRY OPTIMIZATION CONVERGED AFTER 94 ITERATIONS ***

 final structure:
================
69
 xtb: 6.7.1 (edcfbbe)
C           -8.03612220765998       -3.70822733821837       -1.27147099990978
C           -6.74839757037362       -3.66429207817484       -0.77593743904294
C           -6.18731142620348       -2.45752706495690       -0.38593313078656
C           -6.90124533558932       -1.27005973098407       -0.49505070644504
C           -8.22041911666470       -1.33204284434878       -0.96385118935564
C           -8.77505570873555       -2.53715194223776       -1.35462923366280
O           -9.02966625477854       -0.22318362680079       -1.04159308037533
C           -8.49176862254547        0.98095275824346       -0.65189980849661
C           -9.31163760530345        2.09050423116609       -0.74915471045564
C           -8.83245160731614        3.34746978928346       -0.41067576797931
C           -7.52322090425918        3.48524818098647        0.00485110090420
C           -6.69849874428736        2.37500057029449        0.10599347457599
C           -7.17294355477345        1.10371781938482       -0.19459715377395
N           -6.36703110102743       -0.03697156970245       -0.10671105109166
C           -5.03889582634363        0.05983193575240        0.35223901456852
C           -4.77412934223863        0.50831358599320        1.64735054195415
C           -3.47480328878602        0.61943172050143        2.09249955753123
C           -2.41485065025203        0.28232120335559        1.24746926801291
C           -1.05840731527285        0.43041762642585        1.71391772880186
N           -0.67237256051282        0.86791974006817        2.87918301068971
N            0.66819496311481        0.87192144002366        2.88073025000548
C            1.05953703864090        0.43612997010700        1.71673205055260
C            2.41804377716455        0.29036218135461        1.25502355691493
C            2.68810016600576       -0.22090845703067       -0.01544543550050
C            3.99112945913934       -0.33410103230101       -0.45248238127181
C            5.04440104401344        0.06260641912916        0.37033758522398
N            6.37367917764095       -0.04066533956253       -0.08585388599292
C            7.15883799570216        1.10436003811815       -0.25841336233555
C            6.67513552131755        2.38339142900609       -0.01047072099555
C            7.47882767096792        3.49753652032295       -0.20015696442619
C            8.77538786776974        3.35515017347759       -0.65201043029694
C            9.26383618059912        2.08782203821155       -0.93437958449597
C            8.46554917440991        0.97414250229973       -0.74772998068400
O            9.01230244026102       -0.24314555650414       -1.08136717026682
C            8.22824043537460       -1.35870985276362       -0.90407604544199
C            8.79477616178323       -2.57839892723083       -1.22621005816279
C            8.07923812435779       -3.75289224750005       -1.04396047493962
C            6.80300028061964       -3.69667227974367       -0.52071513987915
C            6.23009536190279       -2.47550660931719       -0.19863203982495
C            6.92055859408682       -1.28731472858159       -0.40576474277513
C            4.77407759045413        0.56597195058341        1.64345940428981
C            3.47300715259293        0.67845747568216        2.08401772278384
O            0.00240983399174        0.13329842872563        0.92388274939772
C           -2.67892347506013       -0.17619131754975       -0.04421934894307
C           -3.98036830533186       -0.28513493090682       -0.48721427856979
H           -8.47630678257257       -4.64292387244059       -1.58116386474114
H           -6.16765810673606       -4.56924386094847       -0.68376369237210
H           -5.18693714590968       -2.44181736143659        0.01664782278545
H           -9.79134848463428       -2.53706448529592       -1.71636566958857
H          -10.32227287489039        1.94863655093717       -1.09872180882322
H           -9.48041607564798        4.20641681573562       -0.48646412431678
H           -7.12737102655236        4.45855413071214        0.25104540485537
H           -5.67323678587999        2.50206776686144        0.41516105755115
H           -5.59656780999172        0.76344269221491        2.29855142557394
H           -3.25412078437572        0.96128301099695        3.09103558035558
H            1.87236955394107       -0.51730554007645       -0.65737946362237
H            4.20319057403070       -0.72142759636668       -1.43786400593402
H            5.65885404130388        2.51314374525657        0.32610530165723
H            7.07647528181155        4.47747486481735        0.00599091913450
H            9.40656231470947        4.21751068841788       -0.79801249377536
H           10.26503877490220        1.94078816539269       -1.30809929286682
H            9.80130249256060       -2.58710262438958       -1.61417643253237
H            8.52865120825252       -4.69918941796923       -1.30065780981111
H            6.24111441778200       -4.60272325244256       -0.35320914737287
H            5.23864871936244       -2.44741412059778        0.22512995769629
H            5.59281900760386        0.86162554497124        2.28198789601699
H            3.24748963543001        1.06142842279437        3.06640499817441
H           -1.85958497518123       -0.43219334489492       -0.69882661421196
H           -4.18653665791605       -0.62715117626935       -1.49043664383047

          :  Hamiltonian                  GFN2-xTB          :
         :: gradient norm              0.000058400775 Eh/a0 ::
         :: HOMO-LUMO gap              1.500659283679 eV    ::
         :: SCC energy              -119.547574418032 Eh    ::
         :: -> dispersion             -0.092270035874 Eh    ::
         :: -> Gsolv                  -0.048998312433 Eh    ::
         :: repulsion energy           1.944810297011 Eh    ::

    * Orbital Energies and Occupations

         #    Occupation            Energy/Eh            Energy/eV
      -------------------------------------------------------------
         1        2.0000           -0.7752163             -21.0947
       ...           ...                  ...                  ...
        95        2.0000           -0.4281592             -11.6508
        96        2.0000           -0.4253359             -11.5740
        97        2.0000           -0.4252091             -11.5705
        98        2.0000           -0.4186435             -11.3919
        99        2.0000           -0.4185264             -11.3887
       100        2.0000           -0.4156712             -11.3110
       101        2.0000           -0.4156028             -11.3091
       102        2.0000           -0.4050108             -11.0209
       103        2.0000           -0.3958073             -10.7705
       104        2.0000           -0.3935790             -10.7098
       105        2.0000           -0.3928437             -10.6898
       106        2.0000           -0.3478833              -9.4664
       107        2.0000           -0.3468939              -9.4395 (HOMO)
       108                         -0.2917457              -7.9388 (LUMO)
       109                         -0.2687669              -7.3135
       110                         -0.2465511              -6.7090
       111                         -0.2463487              -6.7035
       112                         -0.2413774              -6.5682
       113                         -0.2412218              -6.5640
       114                         -0.2327064              -6.3323
       115                         -0.2325985              -6.3293
       116                         -0.2200454              -5.9877
       117                         -0.2191081              -5.9622
       118                         -0.2045022              -5.5648
       ...                                ...                  ...
       204                          0.6707737              18.2527
      -------------------------------------------------------------
                  HL-Gap            0.0551482 Eh            1.5007 eV

     #   Z          covCN         q      C6AA      α(0)
     1   6 C        2.919    -0.040    28.998     8.831
     2   6 C        2.919    -0.039    28.962     8.825
     3   6 C        2.924    -0.060    29.499     8.907
     4   6 C        2.921     0.041    27.071     8.532
     5   6 C        2.883     0.123    25.294     8.245
     6   6 C        2.919    -0.057    29.426     8.895
     7   8 O        1.708    -0.270    18.470     5.803
     8   6 C        2.883     0.123    25.295     8.245
     9   6 C        2.920    -0.057    29.424     8.895
    10   6 C        2.919    -0.040    28.993     8.830
    11   6 C        2.919    -0.038    28.955     8.824
    12   6 C        2.924    -0.060    29.496     8.906
    13   6 C        2.921     0.041    27.074     8.533
    14   7 N        2.750    -0.068    22.556     7.054
    15   6 C        2.920     0.072    26.400     8.426
    16   6 C        2.920    -0.036    28.892     8.815
    17   6 C        2.923    -0.027    28.670     8.781
    18   6 C        2.974    -0.011    28.295     8.725
    19   6 C        3.163     0.217    23.155     7.865
    20   7 N        2.044    -0.214    26.406     7.622
    21   7 N        2.044    -0.214    26.401     7.622
    22   6 C        3.163     0.217    23.155     7.865
    23   6 C        2.974    -0.011    28.288     8.724
    24   6 C        2.922    -0.026    28.643     8.777
    25   6 C        2.920    -0.038    28.945     8.823
    26   6 C        2.920     0.072    26.396     8.425
    27   7 N        2.751    -0.069    22.569     7.056
    28   6 C        2.921     0.041    27.070     8.532
    29   6 C        2.924    -0.060    29.503     8.907
    30   6 C        2.919    -0.038    28.956     8.824
    31   6 C        2.919    -0.040    28.998     8.831
    32   6 C        2.919    -0.057    29.424     8.895
    33   6 C        2.883     0.123    25.298     8.246
    34   8 O        1.708    -0.270    18.476     5.803
    35   6 C        2.882     0.123    25.295     8.245
    36   6 C        2.919    -0.057    29.428     8.896
    37   6 C        2.919    -0.040    29.001     8.831
    38   6 C        2.919    -0.039    28.962     8.825
    39   6 C        2.924    -0.060    29.496     8.906
    40   6 C        2.921     0.042    27.070     8.532
    41   6 C        2.920    -0.036    28.888     8.814
    42   6 C        2.923    -0.027    28.669     8.781
    43   8 O        1.721    -0.231    17.829     5.701
    44   6 C        2.922    -0.026    28.645     8.777
    45   6 C        2.920    -0.038    28.954     8.824
    46   1 H        0.926     0.043     2.405     2.425
    47   1 H        0.926     0.042     2.420     2.433
    48   1 H        0.926     0.040     2.452     2.449
    49   1 H        0.926     0.049     2.331     2.387
    50   1 H        0.926     0.049     2.329     2.386
    51   1 H        0.926     0.044     2.402     2.423
    52   1 H        0.926     0.043     2.413     2.429
    53   1 H        0.926     0.040     2.444     2.445
    54   1 H        0.926     0.058     2.223     2.331
    55   1 H        0.926     0.064     2.152     2.294
    56   1 H        0.926     0.054     2.271     2.357
    57   1 H        0.926     0.055     2.260     2.351
    58   1 H        0.926     0.040     2.446     2.446
    59   1 H        0.926     0.043     2.416     2.430
    60   1 H        0.926     0.043     2.404     2.425
    61   1 H        0.926     0.049     2.331     2.387
    62   1 H        0.926     0.049     2.332     2.388
    63   1 H        0.926     0.043     2.407     2.426
    64   1 H        0.926     0.042     2.422     2.434
    65   1 H        0.926     0.039     2.460     2.453
    66   1 H        0.926     0.058     2.217     2.329
    67   1 H        0.926     0.064     2.150     2.293
    68   1 H        0.926     0.054     2.273     2.358
    69   1 H        0.926     0.055     2.256     2.349

molecular dipole:
                 x           y           z       tot (Debye)
 q only:       -0.026      -0.207      -0.577
   full:       -0.025      -0.402      -1.064       2.892

 projected vibrational frequencies (cm⁻¹)
eigval :       -0.00    -0.00    -0.00     0.00     0.00     0.00
eigval :        5.96    12.35    15.52    25.08    27.79    37.29
eigval :       43.50    50.11    60.03    65.87    69.47    93.55
eigval :      105.71   107.71   118.15   121.92   125.39   178.33
eigval :      186.67   193.62   202.95   242.86   249.16   253.21
eigval :      254.76   270.09   274.40   281.23   333.02   353.82
eigval :      368.71   371.59   373.78   376.58   388.86   399.67
eigval :      401.51   422.03   423.51   429.30   431.06   432.55
eigval :      445.30   449.01   465.75   488.81   499.01   501.56
eigval :      509.47   510.04   522.11   523.00   548.36   551.56
eigval :      586.59   586.98   590.41   602.16   608.34   609.08
eigval :      652.75   658.13   660.34   661.14   661.90   665.76
eigval :      677.09   679.76   709.11   715.23   722.91   727.76
eigval :      776.76   777.42   778.36   780.19   799.20   800.85
eigval :      820.49   825.10   853.38   853.57   861.56   862.36
eigval :      864.70   865.74   868.99   875.55   896.61   897.01
eigval :      897.81   898.01   908.18   912.45   912.92   913.88
eigval :      914.60   915.86   916.48   917.37   923.34   924.51
eigval :      930.03   933.83   970.24   973.11  1007.97  1017.63
eigval :     1081.17  1089.94  1090.30  1091.13  1091.27  1094.30
eigval :     1106.23  1106.47  1117.58  1117.68  1126.41  1127.74
eigval :     1168.83  1169.31  1173.65  1174.37  1174.98  1177.98
eigval :     1180.18  1185.60  1187.38  1198.60  1198.69  1216.71
eigval :     1219.02  1241.60  1241.71  1256.58  1258.58  1260.00
eigval :     1260.42  1273.67  1295.03  1303.71  1303.74  1312.36
eigval :     1314.09  1317.56  1322.45  1333.08  1333.34  1352.08
eigval :     1352.28  1405.20  1405.99  1422.03  1422.22  1440.06
eigval :     1440.20  1457.80  1458.22  1478.99  1479.24  1500.13
eigval :     1500.80  1530.21  1532.71  1555.30  1557.65  1566.42
eigval :     1566.80  1578.60  1578.76  1580.42  1580.78  1588.33
eigval :     1588.57  1601.13  1601.30  3087.80  3087.91  3088.57
eigval :     3089.15  3089.32  3089.40  3094.31  3095.04  3096.11
eigval :     3097.07  3097.13  3097.17  3099.03  3100.12  3104.23
eigval :     3105.37  3105.98  3106.16  3109.04  3109.87  3110.78
eigval :     3111.32  3113.65  3114.42

   temp. (K)  partition function   enthalpy   heat capacity  entropy
                                   cal/mol     cal/K/mol   cal/K/mol   J/K/mol
 298.15  VIB  0.977E+16            20002.611    127.340    124.623
         ROT  0.108E+09              888.752      2.981     39.736
         INT  0.105E+25            20891.363    130.321    164.359
         TR   0.137E+29             1481.254      4.968     44.961
         TOT                       22372.6169   135.2894   209.3204   875.7964

       T/K    H(0)-H(T)+PV         H(T)/Eh          T*S/Eh         G(T)/Eh
   ------------------------------------------------------------------------
    298.15    0.356530E-01    0.547395E+00    0.994549E-01    0.447940E+00
   ------------------------------------------------------------------------

         :::::::::::::::::::::::::::::::::::::::::::::::::::::
         ::                  THERMODYNAMIC                  ::
         :::::::::::::::::::::::::::::::::::::::::::::::::::::
         :: total free energy        -117.154824037980 Eh   ::
         ::.................................................::
         :: total energy             -117.602764122602 Eh   ::
         :: zero point energy           0.511741910747 Eh   ::
         :: G(RRHO) w/o ZPVE           -0.063801826125 Eh   ::
         :: G(RRHO) contrib.            0.447940084621 Eh   ::
         :::::::::::::::::::::::::::::::::::::::::::::::::::::

           -------------------------------------------------
          | TOTAL ENERGY             -117.602764122602 Eh   |
          | TOTAL ENTHALPY           -117.055369177417 Eh   |
          | TOTAL FREE ENERGY        -117.154824037980 Eh   |
          | GRADIENT NORM               0.000058396744 Eh/α |
          | HOMO-LUMO GAP               1.500659769485 eV   |
           -------------------------------------------------

 * finished run on 2025/09/14 at 13:33:21.958
