   * xtb version 6.7.1 (edcfbbe) compiled by 'albert@albert-system' on 2024-07-22

   ID    Z sym.   atoms
    1    7 N      1, 14, 24
    2    6 C      2-13, 15-23, 25-36
    3    1 H      37-55

          program call               : xtb data2507/gas/ACRFLCN/ACRFLCN.xyz --gfn 2 --ohess vtight --parallel 40 --molden --ceasefiles --namespace data2507/gas/ACRFLCN/ACRFLCN_gas_S0_preOpt
          :  Hamiltonian                  GFN2-xTB          :
 * total energy  :   -89.0650463 Eh     change       -0.4342866E-08 Eh
 * total energy  :   -89.0787896 Eh     change       -0.1374330E-01 Eh
 * total energy  :   -89.0824124 Eh     change       -0.3622763E-02 Eh
 * total energy  :   -89.0827184 Eh     change       -0.3060657E-03 Eh
 * total energy  :   -89.0828157 Eh     change       -0.9724189E-04 Eh
 * total energy  :   -89.0828309 Eh     change       -0.1525448E-04 Eh
 * total energy  :   -89.0827953 Eh     change        0.3562901E-04 Eh
 * total energy  :   -89.0828385 Eh     change       -0.4317665E-04 Eh
 * total energy  :   -89.0828452 Eh     change       -0.6762230E-05 Eh
 * total energy  :   -89.0828472 Eh     change       -0.1992511E-05 Eh
 * total energy  :   -89.0828384 Eh     change        0.8809062E-05 Eh
 * total energy  :   -89.0828486 Eh     change       -0.1013646E-04 Eh
 * total energy  :   -89.0828488 Eh     change       -0.2831374E-06 Eh
 * total energy  :   -89.0828490 Eh     change       -0.2107488E-06 Eh
 * total energy  :   -89.0828491 Eh     change       -0.1782303E-07 Eh
   *** GEOMETRY OPTIMIZATION CONVERGED AFTER 15 ITERATIONS ***

 final structure:
================
55
 xtb: 6.7.1 (edcfbbe)
N           -2.21764990908135       -5.93462198563156        0.00009232206023
C           -2.44150494620963       -4.81001736714524        0.00003022456090
C           -2.71680637341906       -3.42404698934986        0.00003009258638
C           -4.04442546198016       -2.98625672204685        0.00002354580492
C           -4.33703690353048       -1.63559750227495        0.00001852904680
C           -3.28918335773177       -0.72613849497845        0.00002105606222
C           -1.95643591357175       -1.17044598006298        0.00002037528535
C           -1.65639278500156       -2.51119619921317        0.00002457884117
C           -0.99479996479496       -0.00000133705442        0.00000638113147
C           -1.95642622349912        1.17045272133311       -0.00001478374446
C           -1.65636982767899        2.51119766146090       -0.00006074355211
C           -2.71677225946392        3.42406739131082       -0.00008258716186
C           -2.44146432610614        4.81003042383154       -0.00014554293272
N           -2.21761709812755        5.93464151077290       -0.00019438995803
C           -4.04439712261704        2.98628171969003       -0.00006162416352
C           -4.33702104797000        1.63562742403664       -0.00001702638398
C           -3.28917701590507        0.72615663970398        0.00000035120273
C           -0.15671735639093        0.00000940559924        1.25809877448931
C           -0.80082281237837        0.00002509963465        2.48643482283507
C           -0.08784295461309        0.00003608264630        3.67036478645408
C            1.29609903300477        0.00002988668535        3.62497958259697
C            1.95343890242330        0.00001187852684        2.41239109493761
C            1.23961673139642        0.00000246821888        1.21030249714158
N            1.91063203274980       -0.00001675120567        0.00001140408389
C            3.33593647150621       -0.00001137061071        0.00001467789540
C            4.02812534276768       -1.20384441712472       -0.00000293302345
C            5.41179323658652       -1.20000620320097       -0.00000089153104
C            6.10344859705559        0.00000159194660        0.00001984477626
C            5.41178212951518        1.20000299013987        0.00003751407803
C            4.02811430709910        1.20382807419961        0.00003552420291
C            1.23962138549447       -0.00002601462659       -1.21028207528951
C            1.95344751749026       -0.00004211422580       -2.41236900248785
C            1.29611124988146       -0.00005039541016       -3.62495924841152
C           -0.08783054490083       -0.00004178156672       -3.67034839422407
C           -0.80081386283754       -0.00002695000055       -2.48642038307280
C           -0.15671231478271       -0.00001943067319       -1.25808260363347
H           -4.83900401388824       -3.71784156164455        0.00002602521869
H           -5.36271413055198       -1.29897629047153        0.00001051147302
H           -0.63444999711191       -2.86067795448658        0.00002558562902
H           -0.63442472015871        2.86067223004652       -0.00007764516714
H           -4.83896565447288        3.71787770528965       -0.00008057791153
H           -5.36270176705915        1.29901609672864        0.00001215014089
H           -1.88157122572758        0.00002956577247        2.51005847876133
H           -0.60636317873308        0.00004655719449        4.61629064996179
H            1.87001096228468        0.00003562542326        4.53937398186497
H            3.03238867807444        0.00000479160054        2.38898666579583
H            3.47791015644487       -2.13319119542355       -0.00001990580054
H            5.95028565144758       -2.13576240057375       -0.00001688634895
H            7.18298249744903        0.00000661493542        0.00002166578202
H            5.95026565536726        2.13576429377068        0.00005593947847
H            3.47789023037523        2.13316962710778        0.00005152277210
H            3.03239716278967       -0.00004815373733       -2.38896077180207
H            1.87002618854795       -0.00006167482631       -4.53935178172351
H           -0.60634790736120       -0.00004384953189       -4.61627559474374
H           -1.88156214209459       -0.00001599050868       -2.51004676388356

          :  Hamiltonian                  GFN2-xTB          :
         :: gradient norm              0.000046187654 Eh/a0 ::
         :: HOMO-LUMO gap              1.652743365487 eV    ::
         :: SCC energy               -90.838294621272 Eh    ::
         :: -> dispersion             -0.082516848390 Eh    ::
         :: repulsion energy           1.755445552313 Eh    ::

    * Orbital Energies and Occupations

         #    Occupation            Energy/Eh            Energy/eV
      -------------------------------------------------------------
         1        2.0000           -0.6848455             -18.6356
       ...           ...                  ...                  ...
        71        2.0000           -0.4385739             -11.9342
        72        2.0000           -0.4350175             -11.8374
        73        2.0000           -0.4259134             -11.5897
        74        2.0000           -0.4242004             -11.5431
        75        2.0000           -0.4239147             -11.5353
        76        2.0000           -0.4232452             -11.5171
        77        2.0000           -0.4226884             -11.5019
        78        2.0000           -0.4157635             -11.3135
        79        2.0000           -0.4153163             -11.3013
        80        2.0000           -0.4137919             -11.2599
        81        2.0000           -0.4044970             -11.0069
        82        2.0000           -0.4025127             -10.9529
        83        2.0000           -0.3588055              -9.7636 (HOMO)
        84                         -0.2980684              -8.1109 (LUMO)
        85                         -0.2590976              -7.0504
        86                         -0.2505446              -6.8177
        87                         -0.2484759              -6.7614
        88                         -0.2454337              -6.6786
        89                         -0.2441065              -6.6425
        90                         -0.2342212              -6.3735
        91                         -0.2335872              -6.3562
        92                         -0.2299507              -6.2573
        93                         -0.2094661              -5.6999
        94                         -0.2084157              -5.6713
       ...                                ...                  ...
       163                          1.1677771              31.7768
      -------------------------------------------------------------
                  HL-Gap            0.0607371 Eh            1.6527 eV

     #   Z          covCN         q      C6AA      α(0)
     1   7 N        0.911    -0.233    26.094     7.388
     2   6 C        1.913     0.112    28.328     8.596
     3   6 C        2.977     0.019    27.588     8.616
     4   6 C        2.929    -0.023    28.573     8.766
     5   6 C        2.913    -0.030    28.749     8.792
     6   6 C        3.034     0.008    27.806     8.649
     7   6 C        3.059     0.009    27.764     8.641
     8   6 C        2.921    -0.023    28.574     8.766
     9   6 C        3.949     0.015    20.259     6.396
    10   6 C        3.059     0.009    27.764     8.641
    11   6 C        2.921    -0.023    28.574     8.766
    12   6 C        2.977     0.019    27.588     8.616
    13   6 C        1.913     0.112    28.328     8.596
    14   7 N        0.911    -0.233    26.094     7.388
    15   6 C        2.929    -0.023    28.573     8.766
    16   6 C        2.913    -0.030    28.749     8.792
    17   6 C        3.034     0.008    27.806     8.649
    18   6 C        2.983    -0.013    28.322     8.730
    19   6 C        2.926    -0.035    28.879     8.813
    20   6 C        2.917    -0.042    29.040     8.837
    21   6 C        2.920    -0.030    28.746     8.792
    22   6 C        2.924    -0.056    29.398     8.892
    23   6 C        2.926     0.061    26.641     8.464
    24   7 N        2.754    -0.070    22.595     7.060
    25   6 C        2.929     0.068    26.480     8.439
    26   6 C        2.922    -0.037    28.914     8.818
    27   6 C        2.920    -0.027    28.670     8.781
    28   6 C        2.920    -0.029    28.723     8.789
    29   6 C        2.920    -0.027    28.670     8.781
    30   6 C        2.922    -0.037    28.914     8.818
    31   6 C        2.926     0.061    26.641     8.464
    32   6 C        2.924    -0.056    29.398     8.892
    33   6 C        2.920    -0.030    28.746     8.792
    34   6 C        2.917    -0.042    29.040     8.837
    35   6 C        2.926    -0.035    28.879     8.813
    36   6 C        2.983    -0.013    28.322     8.730
    37   1 H        0.926     0.044     2.394     2.420
    38   1 H        0.926     0.041     2.436     2.441
    39   1 H        0.926     0.039     2.459     2.452
    40   1 H        0.926     0.039     2.459     2.452
    41   1 H        0.926     0.044     2.394     2.420
    42   1 H        0.926     0.041     2.436     2.441
    43   1 H        0.926     0.024     2.671     2.556
    44   1 H        0.926     0.032     2.562     2.503
    45   1 H        0.926     0.034     2.531     2.488
    46   1 H        0.926     0.030     2.587     2.515
    47   1 H        0.926     0.042     2.426     2.436
    48   1 H        0.926     0.041     2.433     2.439
    49   1 H        0.926     0.040     2.445     2.445
    50   1 H        0.926     0.041     2.433     2.439
    51   1 H        0.926     0.042     2.426     2.436
    52   1 H        0.926     0.030     2.587     2.515
    53   1 H        0.926     0.034     2.531     2.488
    54   1 H        0.926     0.032     2.562     2.503
    55   1 H        0.926     0.024     2.671     2.556

molecular dipole:
                 x           y           z       tot (Debye)
 q only:        0.726      -0.000       0.000
   full:        0.516      -0.000       0.000       1.311

 projected vibrational frequencies (cm⁻¹)
eigval :       -0.00    -0.00    -0.00     0.00     0.00     0.00
eigval :        4.71     9.77    32.69    34.39    42.41    44.01
eigval :       59.30    68.57    77.89    84.67   110.87   124.77
eigval :      156.72   157.80   158.05   171.87   198.25   233.88
eigval :      245.01   250.16   251.11   261.12   298.44   316.41
eigval :      370.55   373.16   380.08   387.51   399.13   412.81
eigval :      421.72   432.50   435.71   442.55   457.12   476.46
eigval :      483.34   487.88   504.76   511.30   541.14   556.42
eigval :      574.05   592.09   592.25   594.48   608.41   608.85
eigval :      609.51   630.44   646.08   671.21   675.41   675.47
eigval :      689.81   705.23   732.15   732.83   749.20   765.07
eigval :      778.28   784.84   820.65   835.33   857.09   866.24
eigval :      866.25   875.92   876.08   877.66   896.09   905.87
eigval :      910.39   910.42   910.91   911.35   913.76   921.87
eigval :      922.14   929.46   934.30   949.66   958.24   978.23
eigval :      997.30  1008.12  1078.25  1088.33  1107.39  1108.66
eigval :     1113.75  1126.50  1140.35  1144.78  1158.05  1158.29
eigval :     1180.41  1182.93  1184.34  1185.20  1191.33  1207.61
eigval :     1220.34  1233.75  1234.52  1251.85  1257.10  1267.51
eigval :     1272.91  1272.91  1292.41  1309.71  1321.70  1324.06
eigval :     1326.49  1336.00  1346.67  1358.47  1412.35  1427.77
eigval :     1432.77  1436.81  1437.77  1440.22  1461.17  1470.11
eigval :     1483.71  1496.01  1561.13  1573.40  1574.84  1584.05
eigval :     1586.09  1590.38  1591.37  1594.89  1596.02  1604.37
eigval :     2371.67  2373.46  3074.02  3074.35  3082.13  3083.67
eigval :     3084.95  3084.98  3085.00  3086.96  3090.19  3090.44
eigval :     3090.85  3094.94  3095.93  3097.48  3097.51  3097.75
eigval :     3101.25  3103.58  3104.12

   temp. (K)  partition function   enthalpy   heat capacity  entropy
                                   cal/mol     cal/K/mol   cal/K/mol   J/K/mol
 298.15  VIB  0.597E+13            15978.361    101.342    100.133
         ROT  0.128E+08              888.752      2.981     35.506
         INT  0.765E+20            16867.114    104.322    135.639
         TR   0.947E+28             1481.254      4.968     44.231
         TOT                       18348.3676   109.2906   179.8698   752.5752

       T/K    H(0)-H(T)+PV         H(T)/Eh          T*S/Eh         G(T)/Eh
   ------------------------------------------------------------------------
    298.15    0.292400E-01    0.438214E+00    0.854619E-01    0.352752E+00
   ------------------------------------------------------------------------

         :::::::::::::::::::::::::::::::::::::::::::::::::::::
         ::                  THERMODYNAMIC                  ::
         :::::::::::::::::::::::::::::::::::::::::::::::::::::
         :: total free energy         -88.730096585989 Eh   ::
         ::.................................................::
         :: total energy              -89.082849068966 Eh   ::
         :: zero point energy           0.408974436752 Eh   ::
         :: G(RRHO) w/o ZPVE           -0.056221953775 Eh   ::
         :: G(RRHO) contrib.            0.352752482976 Eh   ::
         :::::::::::::::::::::::::::::::::::::::::::::::::::::

           -------------------------------------------------
          | TOTAL ENERGY              -89.082849068966 Eh   |
          | TOTAL ENTHALPY            -88.644634647287 Eh   |
          | TOTAL FREE ENERGY         -88.730096585989 Eh   |
          | GRADIENT NORM               0.000046336057 Eh/α |
          | HOMO-LUMO GAP               1.652741564688 eV   |
           -------------------------------------------------

 * finished run on 2025/07/17 at 05:03:05.820
