   * xtb version 6.7.1 (edcfbbe) compiled by 'albert@albert-system' on 2024-07-22

   ID    Z sym.   atoms
    1    7 N      1, 14, 24
    2    6 C      2-13, 15-23, 25-36
    3    1 H      37-55

          program call               : xtb data2507/gas/ACRFLCN/ACRFLCN_gas_T1_crest.xyz --gfn 2 --spinpol --tblite --uhf 2 --ohess vtight --parallel 40 --molden --ceasefiles --namespace data2507/gas/ACRFLCN/ACRFLCN_gas_T1_finalOpt
 * total energy  :   -88.9991372 Eh     change       -0.3432788E-08 Eh
 * total energy  :   -88.9991439 Eh     change       -0.6752324E-05 Eh
 * total energy  :   -88.9991265 Eh     change        0.1743435E-04 Eh
 * total energy  :   -88.9991451 Eh     change       -0.1860234E-04 Eh
 * total energy  :   -88.9991457 Eh     change       -0.6181542E-06 Eh
 * total energy  :   -88.9991430 Eh     change        0.2745885E-05 Eh
 * total energy  :   -88.9991486 Eh     change       -0.5659369E-05 Eh
 * total energy  :   -88.9991471 Eh     change        0.1500716E-05 Eh
 * total energy  :   -88.9991494 Eh     change       -0.2317541E-05 Eh
 * total energy  :   -88.9991478 Eh     change        0.1647975E-05 Eh
 * total energy  :   -88.9991505 Eh     change       -0.5432963E-06 Eh
 * total energy  :   -88.9991519 Eh     change       -0.1376104E-05 Eh
 * total energy  :   -88.9991528 Eh     change       -0.9075601E-06 Eh
 * total energy  :   -88.9991530 Eh     change       -0.1965522E-06 Eh
 * total energy  :   -88.9991530 Eh     change        0.3255568E-07 Eh
 * total energy  :   -88.9991531 Eh     change       -0.1487708E-06 Eh
 * total energy  :   -88.9991531 Eh     change        0.2548950E-07 Eh
 * total energy  :   -88.9991532 Eh     change       -0.1040914E-06 Eh
 * total energy  :   -88.9991533 Eh     change       -0.8342845E-07 Eh
   *** GEOMETRY OPTIMIZATION CONVERGED AFTER 20 ITERATIONS ***

 final structure:
================
55
 xtb: 6.7.1 (edcfbbe)
N            0.15893040769018       -5.97632136334612       -0.07690407012603
C           -0.46503751136735       -5.00444419995411       -0.06395379251117
C           -1.20338753960540       -3.82543204045355       -0.04779460151020
C           -2.62591128582214       -3.86501842260539       -0.04544928463576
C           -3.36575642893106       -2.72294780053100       -0.02968805457064
C           -2.70618092662176       -1.46408780661572       -0.01514361284178
C           -1.26866511280133       -1.43863087619129       -0.01727845009806
C           -0.52900466556265       -2.57238217694099       -0.03320047823400
C           -0.77371832043167        0.00416870217544        0.00023297818254
C           -2.08766521953614        0.76526099117834        0.01104783616819
C           -2.27271970227839        2.10698172284412        0.02711137220468
C           -3.60352025373302        2.61145906333437        0.03478061266552
C           -3.82339312601149        3.98556967529489        0.05091969068467
N           -4.00084526479783        5.12655934909176        0.06386767246937
C           -4.70468904220439        1.71060846550864        0.02571175984597
C           -4.51639661426272        0.36251567083420        0.00962054509860
C           -3.19335274383178       -0.15580155919305        0.00158217480528
C            0.01953206429606        0.24266038313157        1.25426329180399
C           -0.62439429167699        0.20989725345754        2.48258427328027
C            0.07731188697146        0.37105403218650        3.66226918879176
C            1.45144686785277        0.56223287566165        3.62092803875844
C            2.11166819534308        0.59795272985428        2.41236448801892
C            1.40717736900637        0.44154026597996        1.21203359620262
N            2.07286341365173        0.49307870954988        0.00341845270202
C            3.49255251900515        0.63030614695685        0.00539177810107
C            4.28915565419145       -0.50580580100539        0.04487142611053
C            5.66687731145081       -0.37435094643093        0.04747789424007
C            6.24569208727361        0.88331559071845        0.01070596246637
C            5.44748292717756        2.01496956022641       -0.02852816783269
C            4.06928829394845        1.89337333032235       -0.03109919761670
C            1.40578437937231        0.46676843268490       -1.20522151817222
C            2.10957260147572        0.63780736838730       -2.40396392435094
C            1.44689894123467        0.63015705365166       -3.61170012810742
C            0.07119959611599        0.45088485702806       -3.65405232898708
C           -0.62899552726637        0.26862543494495       -2.47655477246785
C            0.01738472317492        0.27273204927811       -1.24909684339411
H           -3.10572949432297       -4.83299887862487       -0.05664989103274
H           -4.44444729869489       -2.75963358756502       -0.02808877820948
H            0.55179341055127       -2.55422951522044       -0.03530780317531
H           -1.44333764551657        2.79980175771397        0.03419905801174
H           -5.70118358385710        2.12811741226179        0.03192710872116
H           -5.35571042883110       -0.31599423588205        0.00278732558035
H           -1.69231383039278        0.05204892759788        2.50674132261070
H           -0.44069674414859        0.34399694129885        4.60792573680060
H            2.01011479305127        0.68488566994636        4.53603916309396
H            3.17961312301607        0.75007537101065        2.38812038622274
H            3.82706212133482       -1.48121829364259        0.07364827864110
H            6.28738074222629       -1.25677166265742        0.07809809003741
H            7.32034242136998        0.98220490102252        0.01272859423762
H            5.89750550135801        2.99557141699506       -0.05694075312748
H            3.43578879241783        2.76741595029339       -0.06135968292999
H            3.17918306872110        0.77740391068889       -2.37948418393657
H            2.00508650099791        0.76447612602817       -4.52546744191765
H           -0.44881291597741        0.44670403785453       -4.59898352792725
H           -1.69760926379263        0.11571644886602       -2.50186977784564

 projected vibrational frequencies (cm⁻¹)
eigval :       -0.00    -0.00    -0.00     0.00     0.00     0.00
eigval :        4.21    14.65    28.99    33.94    43.58    46.30
eigval :       62.45    69.18    77.81    78.15   108.32   123.28
eigval :      134.39   152.39   157.02   174.83   199.33   219.57
eigval :      239.60   240.37   248.91   262.56   285.84   312.95
eigval :      324.85   371.66   379.97   384.30   389.71   394.76
eigval :      405.48   409.67   421.70   429.95   443.36   447.24
eigval :      473.97   482.96   494.03   515.94   517.94   541.30
eigval :      560.85   572.67   590.46   590.66   592.52   597.13
eigval :      601.23   608.90   644.13   652.87   670.43   671.89
eigval :      676.87   699.12   700.52   720.83   738.62   764.67
eigval :      774.06   776.75   781.27   798.28   828.18   843.30
eigval :      855.65   868.14   868.50   875.37   892.77   898.24
eigval :      900.45   904.32   908.58   912.81   913.30   922.88
eigval :      922.97   929.35   931.33   934.48   938.74   939.37
eigval :      978.10   994.93  1067.43  1077.93  1100.21  1101.56
eigval :     1104.02  1114.33  1126.01  1137.88  1148.36  1156.64
eigval :     1179.38  1180.09  1181.30  1184.49  1187.32  1193.87
eigval :     1198.51  1226.40  1232.45  1237.74  1249.33  1258.12
eigval :     1271.84  1273.10  1296.91  1306.95  1308.95  1311.08
eigval :     1313.46  1326.42  1331.43  1337.21  1368.86  1372.87
eigval :     1396.48  1418.43  1431.18  1432.82  1449.14  1463.45
eigval :     1474.50  1481.82  1482.98  1533.61  1541.79  1549.29
eigval :     1564.35  1574.99  1582.74  1587.74  1593.34  1620.66
eigval :     2248.52  2282.40  3073.41  3077.95  3080.21  3081.71
eigval :     3086.99  3088.78  3089.99  3090.07  3092.30  3092.67
eigval :     3092.73  3094.45  3094.93  3099.77  3102.35  3102.75
eigval :     3106.30  3108.20  3108.29

   temp. (K)  partition function   enthalpy   heat capacity  entropy
                                   cal/mol     cal/K/mol   cal/K/mol   J/K/mol
 298.15  VIB  0.785E+13            16305.378    103.119    102.034
         ROT  0.254E+08              888.752      2.981     36.867
         INT  0.200E+21            17194.130    106.100    138.901
         TR   0.947E+28             1481.254      4.968     44.231
         TOT                       18675.3841   111.0679   183.1317   766.2231

       T/K    H(0)-H(T)+PV         H(T)/Eh          T*S/Eh         G(T)/Eh
   ------------------------------------------------------------------------
    298.15    0.297611E-01    0.434889E+00    0.870118E-01    0.347877E+00
   ------------------------------------------------------------------------

         :::::::::::::::::::::::::::::::::::::::::::::::::::::
         ::                  THERMODYNAMIC                  ::
         :::::::::::::::::::::::::::::::::::::::::::::::::::::
         :: total free energy         -88.651276504417 Eh   ::
         ::.................................................::
         :: total energy              -88.999153299957 Eh   ::
         :: zero point energy           0.405127462018 Eh   ::
         :: G(RRHO) w/o ZPVE           -0.057250666478 Eh   ::
         :: G(RRHO) contrib.            0.347876795540 Eh   ::
         :::::::::::::::::::::::::::::::::::::::::::::::::::::

           -------------------------------------------------
          | TOTAL ENERGY              -88.999153299957 Eh   |
          | TOTAL ENTHALPY            -88.564264718952 Eh   |
          | TOTAL FREE ENERGY         -88.651276504417 Eh   |
          | GRADIENT NORM               0.000166808181 Eh/α |
           -------------------------------------------------

 * finished run on 2025/07/17 at 05:08:11.398
