   * xtb version 6.7.1 (edcfbbe) compiled by 'albert@albert-system' on 2024-07-22

   ID    Z sym.   atoms
    1    7 N      1, 14, 24
    2    6 C      2-13, 15-23, 25-36
    3    1 H      37-55

          program call               : xtb data2507/gas/ACRFLCN/ACRFLCN_gas_S0_finalOpt.xtbopt.xyz --gfn 2 --spinpol --tblite --uhf 2 --ohess vtight --parallel 40 --molden --ceasefiles --namespace data2507/gas/ACRFLCN/ACRFLCN_gas_T1_preOpt
 * total energy  :   -88.9908056 Eh     change       -0.1117186E-08 Eh
 * total energy  :   -88.9975152 Eh     change       -0.6709609E-02 Eh
 * total energy  :   -88.9990972 Eh     change       -0.1582019E-02 Eh
 * total energy  :   -88.9991348 Eh     change       -0.3758823E-04 Eh
 * total energy  :   -88.9991363 Eh     change       -0.1475796E-05 Eh
 * total energy  :   -88.9991322 Eh     change        0.4050913E-05 Eh
 * total energy  :   -88.9991443 Eh     change       -0.1205882E-04 Eh
 * total energy  :   -88.9991457 Eh     change       -0.1374493E-05 Eh
 * total energy  :   -88.9991462 Eh     change       -0.5914867E-06 Eh
 * total energy  :   -88.9991461 Eh     change        0.1563929E-06 Eh
 * total energy  :   -88.9991471 Eh     change       -0.1366458E-06 Eh
 * total energy  :   -88.9991472 Eh     change       -0.1074039E-06 Eh
 * total energy  :   -88.9991473 Eh     change       -0.1231149E-06 Eh
 * total energy  :   -88.9991475 Eh     change       -0.1665212E-06 Eh
 * total energy  :   -88.9991476 Eh     change       -0.1754169E-06 Eh
 * total energy  :   -88.9991478 Eh     change       -0.2111088E-06 Eh
 * total energy  :   -88.9991480 Eh     change       -0.1758267E-06 Eh
 * total energy  :   -88.9991482 Eh     change       -0.1838900E-06 Eh
 * total energy  :   -88.9991482 Eh     change       -0.3810484E-08 Eh
   *** GEOMETRY OPTIMIZATION CONVERGED AFTER 22 ITERATIONS ***

 final structure:
================
55
 xtb: 6.7.1 (edcfbbe)
N           -2.21752701147657       -5.87440218753217       -0.00756968730784
C           -2.40818106870518       -4.73531120157856       -0.00673707319788
C           -2.62919388248621       -3.36153422883665       -0.00543925184860
C           -3.95628065381272       -2.84825627045859       -0.00477627086132
C           -4.19728512051052       -1.50872532365541       -0.00321700711122
C           -3.10171327345615       -0.60345214995013       -0.00227677406552
C           -1.76497799644574       -1.13503081822724       -0.00316279442757
C           -1.52199411408918       -2.46706261499917       -0.00462234455521
C           -0.75151761217891        0.00031697834180       -0.00201612781286
C           -1.67074137699222        1.21416308055205       -0.00034326095567
C           -1.32128484055690        2.52222971607811        0.00114415526659
C           -2.35289211957811        3.50288030209968        0.00279492876711
C           -2.02154574783045        4.85424001418996        0.00448134020790
N           -1.73853749181963        5.97398995418252        0.00603571583152
C           -3.71695755102424        3.09786487676625        0.00276185305227
C           -4.06481549123175        1.78207530535937        0.00113593160717
C           -3.04564026523692        0.79154264845746       -0.00049273423258
C            0.07777755867790       -0.03094122498421        1.25084637437174
C           -0.56285163599940       -0.02959264551105        2.48170357264189
C            0.15498105241329       -0.05567115635001        3.66207224609149
C            1.54207094152560       -0.08564699781507        3.61855727537625
C            2.19906880473385       -0.08737016411581        2.40789055569364
C            1.47892342663394       -0.05753323930613        1.20666053218610
N            2.14500708480068       -0.05869897786259       -0.00263174338689
C            3.57125832467396       -0.07763144080708       -0.00267720304811
C            4.24531649173619       -1.28989051393126       -0.06807640244301
C            5.62899989350088       -1.30270886945581       -0.06787225695702
C            6.33571467724679       -0.11315224833470       -0.00224511829381
C            5.65976810681872        1.09411629648445        0.06314207641905
C            4.27616633122690        1.11683487566716        0.06292632492588
C            1.47863142360261       -0.04777964588196       -1.21170820319122
C            2.19862863329458       -0.05506677659677       -2.41337309406282
C            1.54119600900136       -0.04813716870638       -3.62378690579187
C            0.15384969098476       -0.03257707454055       -3.66663712726902
C           -0.56370712331547       -0.02002186499605       -2.48587820823094
C            0.07736069503830       -0.02634242452066       -1.25526606584519
H           -4.77308572927262       -3.55549487158261       -0.00550676067736
H           -5.20623621302057       -1.12539600310262       -0.00267590311136
H           -0.51809582504069       -2.86750190424931       -0.00503750658743
H           -0.28844631898556        2.84076597721012        0.00100586248958
H           -4.47426413343572        3.86847044055904        0.00405419942705
H           -5.10131745781898        1.48109779846467        0.00109842784939
H           -1.64218736155865       -0.00764752396558        2.50618747542696
H           -0.36052698350605       -0.05372113451026        4.60945964076041
H            2.11342091586299       -0.10833154694384        4.53378252209386
H            3.27744899180088       -0.11298457822491        2.38259546129074
H            3.68292441862120       -2.21027218834502       -0.11889348554042
H            6.15460305171499       -2.24396011730004       -0.11867987352777
H            7.41481799175281       -0.12703107453291       -0.00204289933099
H            6.20930764124588        2.02157005390410        0.11414447466723
H            3.73772576996967        2.05141254600484        0.11365301307818
H            3.27727473992352       -0.06528472258053       -2.38864619960502
H            2.11242855718366       -0.05436242281504       -4.53934568338150
H           -0.36201811787313       -0.02800945889035       -4.61381997312267
H           -1.64316004115515       -0.00408427637454       -2.50985855508658

 projected vibrational frequencies (cm⁻¹)
eigval :       -0.00     0.00     0.00     0.00     0.00     0.00
eigval :       -2.87    15.08    28.94    34.40    43.79    45.24
eigval :       62.87    69.14    77.58    77.85   108.42   124.76
eigval :      133.35   151.35   156.48   175.25   198.25   220.72
eigval :      239.48   242.40   248.50   259.41   286.50   313.14
eigval :      323.89   371.62   382.03   383.87   388.83   394.28
eigval :      406.93   411.13   419.79   429.80   439.70   448.04
eigval :      473.85   483.19   494.71   515.56   517.44   541.32
eigval :      561.57   572.67   590.29   590.73   592.67   597.81
eigval :      601.17   608.05   644.20   653.68   670.43   671.31
eigval :      675.97   699.96   700.38   721.21   738.71   764.55
eigval :      774.58   776.85   780.81   798.14   828.01   843.51
eigval :      854.95   867.94   868.26   875.22   893.07   898.54
eigval :      900.10   904.31   908.65   913.06   913.60   922.85
eigval :      922.99   929.06   932.05   934.33   938.19   939.68
eigval :      977.76   994.98  1067.54  1077.82  1100.42  1101.62
eigval :     1106.13  1113.98  1126.34  1137.83  1148.87  1154.01
eigval :     1179.25  1180.80  1181.34  1184.48  1187.65  1193.34
eigval :     1197.60  1225.05  1233.55  1237.79  1249.31  1259.51
eigval :     1271.71  1274.25  1296.55  1306.90  1308.88  1311.75
eigval :     1313.53  1326.21  1332.58  1337.55  1368.72  1373.04
eigval :     1396.23  1418.53  1431.56  1432.45  1450.12  1463.86
eigval :     1475.67  1482.00  1483.27  1533.71  1541.71  1549.10
eigval :     1564.98  1575.64  1582.90  1588.15  1593.31  1621.07
eigval :     2247.45  2281.73  3075.47  3075.95  3080.11  3081.39
eigval :     3087.61  3088.36  3089.99  3090.09  3092.44  3092.53
eigval :     3092.54  3094.49  3094.89  3099.80  3102.51  3102.84
eigval :     3105.98  3108.41  3108.51

   temp. (K)  partition function   enthalpy   heat capacity  entropy
                                   cal/mol     cal/K/mol   cal/K/mol   J/K/mol
 298.15  VIB  0.113E+14            16309.793    103.116    102.410
         ROT  0.257E+08              888.752      2.981     36.886
         INT  0.290E+21            17198.545    106.097    139.296
         TR   0.947E+28             1481.254      4.968     44.231
         TOT                       18679.7994   111.0647   183.5269   767.8767

       T/K    H(0)-H(T)+PV         H(T)/Eh          T*S/Eh         G(T)/Eh
   ------------------------------------------------------------------------
    298.15    0.297682E-01    0.434899E+00    0.871996E-01    0.347699E+00
   ------------------------------------------------------------------------

         :::::::::::::::::::::::::::::::::::::::::::::::::::::
         ::                  THERMODYNAMIC                  ::
         :::::::::::::::::::::::::::::::::::::::::::::::::::::
         :: total free energy         -88.651448758754 Eh   ::
         ::.................................................::
         :: total energy              -88.999148194429 Eh   ::
         :: zero point energy           0.405130851078 Eh   ::
         :: G(RRHO) w/o ZPVE           -0.057431415403 Eh   ::
         :: G(RRHO) contrib.            0.347699435675 Eh   ::
         :::::::::::::::::::::::::::::::::::::::::::::::::::::

           -------------------------------------------------
          | TOTAL ENERGY              -88.999148194429 Eh   |
          | TOTAL ENTHALPY            -88.564249188184 Eh   |
          | TOTAL FREE ENERGY         -88.651448758754 Eh   |
          | GRADIENT NORM               0.000059575556 Eh/α |
           -------------------------------------------------

 * finished run on 2025/07/17 at 05:05:18.359
