   * xtb version 6.7.1 (edcfbbe) compiled by 'albert@albert-system' on 2024-07-22

   ID    Z sym.   atoms
    1    7 N      1, 14, 24
    2    6 C      2-13, 15-23, 25-36
    3    1 H      37-55

          program call               : xtb data2507/gas/ACRFLCN/ACRFLCN_gas_S0_crest.xyz --gfn 2 --ohess vtight --parallel 40 --molden --ceasefiles --namespace data2507/gas/ACRFLCN/ACRFLCN_gas_S0_finalOpt
          :  Hamiltonian                  GFN2-xTB          :
 * total energy  :   -89.0828359 Eh     change       -0.1459995E-08 Eh
 * total energy  :   -89.0828368 Eh     change       -0.8984090E-06 Eh
 * total energy  :   -89.0828343 Eh     change        0.2501236E-05 Eh
 * total energy  :   -89.0828387 Eh     change       -0.4463531E-05 Eh
 * total energy  :   -89.0828402 Eh     change       -0.1457307E-05 Eh
 * total energy  :   -89.0828399 Eh     change        0.2852572E-06 Eh
 * total energy  :   -89.0828413 Eh     change       -0.1355262E-05 Eh
 * total energy  :   -89.0828423 Eh     change       -0.1043472E-05 Eh
 * total energy  :   -89.0828430 Eh     change       -0.7230977E-06 Eh
 * total energy  :   -89.0828438 Eh     change       -0.7428989E-06 Eh
 * total energy  :   -89.0828447 Eh     change        0.8411631E-07 Eh
 * total energy  :   -89.0828448 Eh     change       -0.1445146E-06 Eh
 * total energy  :   -89.0828448 Eh     change        0.3830321E-07 Eh
 * total energy  :   -89.0828449 Eh     change       -0.1024901E-06 Eh
 * total energy  :   -89.0828449 Eh     change        0.5320885E-08 Eh
 * total energy  :   -89.0828448 Eh     change        0.7549474E-08 Eh
 * total energy  :   -89.0828449 Eh     change       -0.2170619E-07 Eh
 * total energy  :   -89.0828450 Eh     change       -0.9079207E-07 Eh
 * total energy  :   -89.0828450 Eh     change       -0.4664490E-07 Eh
   *** GEOMETRY OPTIMIZATION CONVERGED AFTER 25 ITERATIONS ***

 final structure:
================
55
 xtb: 6.7.1 (edcfbbe)
N           -2.22107030611463       -5.87817105571953       -0.00524663986606
C           -2.39972833003811       -4.74551006812772       -0.00393521728469
C           -2.61946953763237       -3.34963926132928       -0.00261947657209
C           -3.92864209808806       -2.85942121890673       -0.00185796391747
C           -4.16729433699650       -1.49819326376975       -0.00092228900574
C           -3.08406685609715       -0.63117197954208       -0.00086436109342
C           -1.76994807822440       -1.12805936610217       -0.00155364180657
C           -1.52353771648698       -2.47972024772086       -0.00233272803660
C           -0.76269836113271        0.00309238849809       -0.00129055247999
C           -1.67719958945461        1.21102325349150       -0.00075916006857
C           -1.32412923892652        2.53877997451496       -0.00134833753421
C           -2.34745264426687        3.49301393794793       -0.00149927785544
C           -2.01715464859030        4.86690728698702       -0.00245685394602
N           -1.74812482669514        5.98157129156190       -0.00314625200236
C           -3.69140443634895        3.10827041837304       -0.00098270194251
C           -4.03739094192994        1.77029977535837       -0.00047409770116
C           -3.02646008397856        0.81996662892897       -0.00047563585181
C            0.07517507465087       -0.02888788100604        1.25650961025491
C           -0.56878790588836       -0.02819710635847        2.48493489934959
C            0.14398610353262       -0.05663992568180        3.66863361249972
C            1.52754270583090       -0.08865093641743        3.62287824969213
C            2.18471102010043       -0.08967138451769        2.41020284252188
C            1.47122261953125       -0.05676762007064        1.20834803472322
N            2.14215447872735       -0.05721750575714       -0.00210227807917
C            3.56719459842259       -0.07695069389989       -0.00228434287096
C            4.24365204278707       -1.28721465539923       -0.08134769499713
C            5.62721538746402       -1.30145910095895       -0.08210658121925
C            6.33457333535125       -0.11324671027392       -0.00284715004075
C            5.65867690025080        1.09305332016028        0.07678854490913
C            4.27517066688921        1.11504152482137        0.07662158728420
C            1.47076650741439       -0.04831128605436       -1.21227486276890
C            2.18392171985469       -0.05685206820083       -2.41474579971401
C            1.52608803874390       -0.05067869245178       -3.62704632628974
C            0.14223078122671       -0.03433700239874       -3.67186671603944
C           -0.57005204125202       -0.02006568530264       -2.48762502745522
C            0.07458448510708       -0.02587719561812       -1.25956660551001
H           -4.75168546577859       -3.55882886089330       -0.00203576785520
H           -5.17874192027467       -1.12096649583453       -0.00029509456953
H           -0.51632236493502       -2.86960460038194       -0.00266298181961
H           -0.28912757904107        2.84746491309662       -0.00204779893676
H           -4.45630481888606        3.87083081941654       -0.00117144691389
H           -5.07561885241068        1.47464773286247       -0.00026444797533
H           -1.64927703206941       -0.00488057786522        2.50880967972016
H           -0.37438452714441       -0.05508623690226        4.61464034286791
H            2.10128842838679       -0.11374374424820        4.53703269568059
H            3.26329186205463       -0.11721663827878        2.38662699773328
H            3.68125575041736       -2.20719577283034       -0.14296890102575
H            6.15341689836378       -2.24215849776193       -0.14393854234058
H            7.41401276377581       -0.12741550417451       -0.00313846497380
H            6.20933026462161        2.01965385182778        0.13840655247156
H            3.73724447703924        2.04950292382954        0.13855965981171
H            3.26281504309099       -0.06709560359742       -2.39202972731661
H            2.09959572770897       -0.05803623647700       -4.54166309563830
H           -0.37668066251223       -0.03010106765094       -4.61756599374617
H           -1.65067185394995       -0.00285944279409       -2.51076697095942

          :  Hamiltonian                  GFN2-xTB          :
         :: gradient norm              0.000037696133 Eh/a0 ::
         :: HOMO-LUMO gap              1.652974879026 eV    ::
         :: SCC energy               -90.838267130724 Eh    ::
         :: -> dispersion             -0.082519838428 Eh    ::
         :: repulsion energy           1.755422124538 Eh    ::

    * Orbital Energies and Occupations

         #    Occupation            Energy/Eh            Energy/eV
      -------------------------------------------------------------
         1        2.0000           -0.6848600             -18.6360
       ...           ...                  ...                  ...
        71        2.0000           -0.4385911             -11.9347
        72        2.0000           -0.4350182             -11.8374
        73        2.0000           -0.4259223             -11.5899
        74        2.0000           -0.4242128             -11.5434
        75        2.0000           -0.4239174             -11.5354
        76        2.0000           -0.4231879             -11.5155
        77        2.0000           -0.4226641             -11.5013
        78        2.0000           -0.4157775             -11.3139
        79        2.0000           -0.4153286             -11.3017
        80        2.0000           -0.4137908             -11.2598
        81        2.0000           -0.4045087             -11.0072
        82        2.0000           -0.4025248             -10.9533
        83        2.0000           -0.3588255              -9.7641 (HOMO)
        84                         -0.2980798              -8.1112 (LUMO)
        85                         -0.2591061              -7.0506
        86                         -0.2505630              -6.8182
        87                         -0.2484863              -6.7617
        88                         -0.2454062              -6.6778
        89                         -0.2440511              -6.6410
        90                         -0.2342437              -6.3741
        91                         -0.2335999              -6.3566
        92                         -0.2299620              -6.2576
        93                         -0.2094747              -5.7001
        94                         -0.2084215              -5.6714
       ...                                ...                  ...
       163                          1.1677736              31.7767
      -------------------------------------------------------------
                  HL-Gap            0.0607457 Eh            1.6530 eV

     #   Z          covCN         q      C6AA      α(0)
     1   7 N        0.911    -0.233    26.093     7.388
     2   6 C        1.913     0.112    28.328     8.596
     3   6 C        2.977     0.019    27.588     8.616
     4   6 C        2.929    -0.023    28.573     8.766
     5   6 C        2.913    -0.030    28.750     8.792
     6   6 C        3.034     0.008    27.806     8.649
     7   6 C        3.059     0.009    27.763     8.641
     8   6 C        2.921    -0.023    28.573     8.766
     9   6 C        3.949     0.015    20.259     6.396
    10   6 C        3.059     0.009    27.765     8.641
    11   6 C        2.921    -0.023    28.575     8.766
    12   6 C        2.977     0.019    27.589     8.616
    13   6 C        1.913     0.112    28.328     8.596
    14   7 N        0.911    -0.233    26.094     7.388
    15   6 C        2.929    -0.023    28.573     8.766
    16   6 C        2.913    -0.030    28.748     8.792
    17   6 C        3.034     0.008    27.805     8.649
    18   6 C        2.983    -0.013    28.322     8.730
    19   6 C        2.926    -0.035    28.879     8.813
    20   6 C        2.917    -0.042    29.039     8.837
    21   6 C        2.920    -0.030    28.746     8.792
    22   6 C        2.924    -0.056    29.397     8.891
    23   6 C        2.926     0.061    26.641     8.465
    24   7 N        2.754    -0.070    22.594     7.060
    25   6 C        2.928     0.068    26.481     8.439
    26   6 C        2.922    -0.037    28.915     8.818
    27   6 C        2.920    -0.027    28.671     8.781
    28   6 C        2.920    -0.029    28.723     8.789
    29   6 C        2.920    -0.027    28.670     8.781
    30   6 C        2.922    -0.037    28.914     8.818
    31   6 C        2.926     0.061    26.641     8.465
    32   6 C        2.924    -0.056    29.398     8.892
    33   6 C        2.920    -0.030    28.746     8.792
    34   6 C        2.917    -0.042    29.039     8.837
    35   6 C        2.926    -0.035    28.879     8.813
    36   6 C        2.983    -0.013    28.322     8.730
    37   1 H        0.926     0.044     2.394     2.420
    38   1 H        0.926     0.041     2.437     2.441
    39   1 H        0.926     0.039     2.458     2.452
    40   1 H        0.926     0.039     2.460     2.453
    41   1 H        0.926     0.044     2.394     2.420
    42   1 H        0.926     0.041     2.436     2.441
    43   1 H        0.926     0.024     2.671     2.556
    44   1 H        0.926     0.032     2.562     2.503
    45   1 H        0.926     0.034     2.531     2.488
    46   1 H        0.926     0.030     2.586     2.515
    47   1 H        0.926     0.042     2.426     2.436
    48   1 H        0.926     0.041     2.434     2.440
    49   1 H        0.926     0.040     2.445     2.445
    50   1 H        0.926     0.041     2.433     2.439
    51   1 H        0.926     0.042     2.426     2.436
    52   1 H        0.926     0.030     2.586     2.515
    53   1 H        0.926     0.034     2.531     2.488
    54   1 H        0.926     0.032     2.562     2.503
    55   1 H        0.926     0.024     2.671     2.556

molecular dipole:
                 x           y           z       tot (Debye)
 q only:        0.724      -0.006       0.002
   full:        0.513       0.003       0.002       1.305

 projected vibrational frequencies (cm⁻¹)
eigval :       -0.00    -0.00    -0.00     0.00     0.00     0.00
eigval :        5.28    11.57    32.54    34.19    42.69    43.81
eigval :       58.98    68.71    77.89    84.67   111.12   124.78
eigval :      156.55   157.75   157.94   172.09   198.39   233.83
eigval :      244.96   249.89   251.08   261.09   298.39   316.42
eigval :      370.50   373.23   380.06   387.39   399.16   412.71
eigval :      421.78   432.52   435.78   442.53   457.20   476.40
eigval :      483.28   488.36   504.93   511.33   541.14   556.52
eigval :      574.05   591.53   592.90   594.48   608.29   608.83
eigval :      609.64   630.48   646.07   670.86   675.45   675.51
eigval :      689.73   705.22   732.15   732.83   749.25   765.15
eigval :      778.38   784.89   820.73   835.38   857.08   866.30
eigval :      866.33   875.91   876.22   877.72   896.17   905.94
eigval :      910.39   910.41   910.89   911.38   913.79   921.94
eigval :      922.20   929.47   934.21   949.63   958.24   978.22
eigval :      997.29  1008.11  1078.28  1088.30  1107.46  1108.74
eigval :     1113.80  1126.50  1140.28  1144.81  1157.99  1158.35
eigval :     1180.40  1182.94  1184.37  1185.24  1191.37  1207.61
eigval :     1220.33  1233.79  1234.55  1251.85  1257.09  1267.53
eigval :     1272.59  1273.27  1292.42  1309.79  1321.59  1324.06
eigval :     1326.47  1335.97  1346.52  1358.50  1412.36  1427.77
eigval :     1432.73  1436.79  1437.76  1440.27  1461.16  1470.09
eigval :     1483.62  1495.94  1561.14  1573.39  1574.84  1584.03
eigval :     1586.06  1590.36  1591.37  1594.86  1596.01  1604.35
eigval :     2371.68  2373.47  3074.04  3074.37  3082.12  3083.64
eigval :     3084.99  3085.00  3085.03  3086.96  3090.16  3090.43
eigval :     3090.87  3094.91  3095.93  3097.50  3097.62  3097.85
eigval :     3101.24  3103.65  3104.19

   temp. (K)  partition function   enthalpy   heat capacity  entropy
                                   cal/mol     cal/K/mol   cal/K/mol   J/K/mol
 298.15  VIB  0.457E+13            15975.338    101.334     99.856
         ROT  0.256E+08              888.752      2.981     36.883
         INT  0.117E+21            16864.090    104.315    136.740
         TR   0.947E+28             1481.254      4.968     44.231
         TOT                       18345.3439   109.2827   180.9705   757.1806

       T/K    H(0)-H(T)+PV         H(T)/Eh          T*S/Eh         G(T)/Eh
   ------------------------------------------------------------------------
    298.15    0.292352E-01    0.438217E+00    0.859849E-01    0.352232E+00
   ------------------------------------------------------------------------

         :::::::::::::::::::::::::::::::::::::::::::::::::::::
         ::                  THERMODYNAMIC                  ::
         :::::::::::::::::::::::::::::::::::::::::::::::::::::
         :: total free energy         -88.730612813216 Eh   ::
         ::.................................................::
         :: total energy              -89.082845006189 Eh   ::
         :: zero point energy           0.408981949214 Eh   ::
         :: G(RRHO) w/o ZPVE           -0.056749756241 Eh   ::
         :: G(RRHO) contrib.            0.352232192973 Eh   ::
         :::::::::::::::::::::::::::::::::::::::::::::::::::::

           -------------------------------------------------
          | TOTAL ENERGY              -89.082845006189 Eh   |
          | TOTAL ENTHALPY            -88.644627890515 Eh   |
          | TOTAL FREE ENERGY         -88.730612813216 Eh   |
          | GRADIENT NORM               0.000037806179 Eh/α |
          | HOMO-LUMO GAP               1.652974364373 eV   |
           -------------------------------------------------

 * finished run on 2025/07/17 at 05:05:14.119
