   * xtb version 6.7.1 (edcfbbe) compiled by 'albert@albert-system' on 2024-07-22

   ID    Z sym.   atoms
    1    7 N      1, 27
    2    6 C      2-26, 28-41
    3    1 H      42-65

          program call               : xtb data2507/toluene/3CzAnBzt/3CzAnBzt_toluene_S0_finalOpt.xtbopt.xyz --gfn 2 --uhf 2 --gbsa toluene --ohess vtight --parallel 40 --molden --ceasefiles --namespace data2507/toluene/3CzAnBzt/3CzAnBzt_toluene_T1_preOpt
      * Solvation model:               GBSA
        Solvent                        toluene
        Solvent mass                       9.2140E+01 g/mol
          :  Hamiltonian                  GFN2-xTB          :
 * total energy  :  -101.5613078 Eh     change       -0.1339103E-08 Eh
 * total energy  :  -101.5667401 Eh     change       -0.5432305E-02 Eh
 * total energy  :  -101.5681675 Eh     change       -0.1427460E-02 Eh
 * total energy  :  -101.5683712 Eh     change       -0.2036976E-03 Eh
 * total energy  :  -101.5686399 Eh     change       -0.2686993E-03 Eh
 * total energy  :  -101.5688064 Eh     change       -0.1664938E-03 Eh
 * total energy  :  -101.5690101 Eh     change       -0.2036714E-03 Eh
 * total energy  :  -101.5692278 Eh     change       -0.2177040E-03 Eh
 * total energy  :  -101.5694863 Eh     change       -0.2584396E-03 Eh
 * total energy  :  -101.5696973 Eh     change       -0.2110430E-03 Eh
 * total energy  :  -101.5712934 Eh     change       -0.2319083E-05 Eh
 * total energy  :  -101.5712953 Eh     change       -0.1903325E-05 Eh
 * total energy  :  -101.5712970 Eh     change       -0.1708265E-05 Eh
 * total energy  :  -101.5712986 Eh     change       -0.1549955E-05 Eh
 * total energy  :  -101.5712998 Eh     change       -0.1203644E-05 Eh
 * total energy  :  -101.5713006 Eh     change       -0.8453115E-06 Eh
 * total energy  :  -101.5713012 Eh     change       -0.5216222E-06 Eh
 * total energy  :  -101.5713014 Eh     change       -0.2618658E-06 Eh
 * total energy  :  -101.5713015 Eh     change       -0.8742768E-07 Eh
   *** GEOMETRY OPTIMIZATION CONVERGED AFTER 57 ITERATIONS ***

 final structure:
================
65
 xtb: 6.7.1 (edcfbbe)
N          -10.42857835556486        0.01590778152508        0.00523632785320
C           -9.27694420756632        0.02965592633164        0.01348908106849
C           -7.87373067627009        0.04643573318283        0.02307312451255
C           -7.16950668187376       -0.20667207095619        1.20955439067296
C           -5.79595186628246       -0.20008429788088        1.21070344679008
C           -5.06589680470802        0.07882653207235        0.04169568003946
C           -3.61522464041692        0.09462782197727        0.05152006950815
C           -2.89063860316377       -1.02042556347234        0.58103965685520
C           -3.53768565972922       -2.18777348541709        1.00106508685394
C           -2.84215562285726       -3.23027386045002        1.60370102535334
C           -1.48126545891961       -3.11610914748438        1.80833488449403
C           -0.80281073882841       -1.99791384011000        1.33837155198754
C           -1.46620572394406       -0.96942348505027        0.65796426595232
C           -0.75948416370002        0.12679889032933        0.07677174964129
C            0.69736407212625        0.14459472517850        0.08949427562578
C            1.38974552869128        1.25561603709545        0.61222718536247
C            2.76443233517557        1.31479111715672        0.64914735549185
C            3.48178445964483        0.24568157861159        0.12105999270441
C            2.80928613346101       -0.89008258628073       -0.39434450526391
C            1.42749901871047       -0.94058281976225       -0.40397450837532
C            3.83250542804228       -1.81046696265898       -0.81353659969679
C            3.80360321555654       -3.06890296776291       -1.39811420100537
C            5.00368507027408       -3.68705193158819       -1.69516838911423
C            6.21850566680950       -3.06048263245877       -1.42684232847775
C            6.27178724629898       -1.80778094258541       -0.84355683247058
C            5.07053561084201       -1.19182685793979       -0.52317605428771
N            4.83977147835611        0.05019992517147        0.03944831296834
C            5.82692061395732        0.96735081772865        0.43816561363475
C            5.78216452624001        2.28154194082409       -0.01809109914165
C            6.75379050415085        3.18231735803583        0.37857051511134
C            7.77669860177836        2.77988764534822        1.22184243824523
C            7.82355855568835        1.47094515946087        1.67363972293039
C            6.85152066510680        0.56497892754360        1.28979220754297
C           -1.48095225831376        1.20568269704729       -0.51863470623418
C           -0.82826351270809        2.24717860560843       -1.18936441614475
C           -1.52278549270084        3.34856916895993       -1.67504854012056
C           -2.88912956825426        3.43353487960713       -1.49356787838568
C           -3.57222012021655        2.37718775887735       -0.90109726945292
C           -2.90715280263696        1.22495241450555       -0.46742974229195
C           -5.78656121521063        0.34114481169685       -1.13692864094343
C           -7.15981287835550        0.31581902613426       -1.15398039737551
H           -7.71897703799160       -0.40020518113368        2.11992463023416
H           -5.26168648996274       -0.36915679227100        2.13423091005705
H           -4.60146995147842       -2.29005560103960        0.85073967027921
H           -3.37433741461642       -4.11507785919642        1.92013336072181
H           -0.93541186960888       -3.89812598654258        2.31540593839985
H            0.26031442770197       -1.92119761868557        1.50681718845848
H            0.81434170563335        2.06510271820421        1.03676517738434
H            3.26834345401021        2.16143222789930        1.09026300563962
H            0.91304847628225       -1.79104545085568       -0.82527867567216
H            2.86217327369266       -3.54874363576353       -1.61990145382368
H            5.00376344475687       -4.66648094533667       -2.15043023891798
H            7.13987774590792       -3.56261758931907       -1.68311051028604
H            7.21805727922578       -1.32485111405699       -0.65290008759386
H            4.99457514377460        2.58543761268955       -0.69148816289385
H            6.71554088089492        4.20063423456104        0.02093176098823
H            8.53605445189466        3.48443919619754        1.52597180938830
H            8.61681061193154        1.15444823635193        2.33464499477640
H            6.87279107902083       -0.45041444173165        1.65657705267683
H            0.23937487589993        2.19367439396318       -1.33610343642875
H           -0.98592096746082        4.14133016516024       -2.17500384776128
H           -3.43490713364053        4.30606812935755       -1.82076858090307
H           -4.64051269779315        2.45615670150486       -0.77019920886456
H           -5.24427259746010        0.52202035795488       -2.05351029218547
H           -7.70166621806739        0.49646146874840       -2.07155795199225

          :  Hamiltonian                  GFN2-xTB          :
         :: gradient norm              0.000104105677 Eh/a0 ::
         :: HOMO-LUMO gap              0.801802325078 eV    ::
         :: SCC energy              -103.545068404761 Eh    ::
         :: -> dispersion             -0.092486834751 Eh    ::
         :: -> Gsolv                  -0.046204960499 Eh    ::
         :: repulsion energy           1.973766899205 Eh    ::

    * Orbital Energies and Occupations

         #    Occupation            Energy/Eh            Energy/eV
      -------------------------------------------------------------
         1        2.0000           -0.6840515             -18.6140
       ...           ...                  ...                  ...
        84        2.0000           -0.4186551             -11.3922
        85        2.0000           -0.4180167             -11.3748
        86        2.0000           -0.4159515             -11.3186
        87        2.0000           -0.4143051             -11.2738
        88        2.0000           -0.4103243             -11.1655
        89        2.0000           -0.4085701             -11.1178
        90        2.0000           -0.4029211             -10.9640
        91        2.0000           -0.4023895             -10.9496
        92        2.0000           -0.4003647             -10.8945
        93        2.0000           -0.3850129             -10.4767
        94        2.0000           -0.3702680             -10.0755
        95        1.0000           -0.3514276              -9.5628
        96        1.0000           -0.2929101              -7.9705 (HOMO)
        97        0.0000           -0.2634441              -7.1687 (LUMO)
        98                         -0.2517279              -6.8499
        99                         -0.2380378              -6.4773
       100                         -0.2347429              -6.3877
       101                         -0.2329826              -6.3398
       102                         -0.2303468              -6.2681
       103                         -0.2297628              -6.2522
       104                         -0.2245708              -6.1109
       105                         -0.2038774              -5.5478
       106                         -0.2026824              -5.5153
       107                         -0.1932115              -5.2576
       ...                                ...                  ...
       188                          1.1627136              31.6390
      -------------------------------------------------------------
                  HL-Gap            0.0294660 Eh            0.8018 eV

     #   Z          covCN         q      C6AA      α(0)
     1   7 N        0.911    -0.304    27.814     7.628
     2   6 C        1.911     0.112    28.337     8.597
     3   6 C        2.971     0.003    27.961     8.674
     4   6 C        2.921    -0.024    28.598     8.770
     5   6 C        2.921    -0.031    28.777     8.797
     6   6 C        2.972     0.018    27.599     8.617
     7   6 C        2.972    -0.007    28.187     8.709
     8   6 C        2.977     0.007    27.850     8.657
     9   6 C        2.921    -0.037    28.909     8.817
    10   6 C        2.914    -0.033    28.825     8.804
    11   6 C        2.914    -0.030    28.738     8.791
    12   6 C        2.921    -0.038    28.956     8.824
    13   6 C        2.977     0.009    27.803     8.649
    14   6 C        2.973    -0.012    28.313     8.728
    15   6 C        2.973     0.009    27.809     8.650
    16   6 C        2.927    -0.035    28.873     8.812
    17   6 C        2.907    -0.049    29.217     8.863
    18   6 C        3.076     0.048    26.854     8.496
    19   6 C        3.062    -0.015    28.334     8.729
    20   6 C        2.916    -0.035    28.864     8.810
    21   6 C        3.066    -0.016    28.343     8.730
    22   6 C        2.912    -0.032    28.805     8.801
    23   6 C        2.920    -0.039    28.978     8.828
    24   6 C        2.924    -0.033    28.820     8.804
    25   6 C        2.909    -0.049    29.206     8.862
    26   6 C        3.076     0.047    26.868     8.498
    27   7 N        2.802    -0.033    21.874     6.946
    28   6 C        2.913     0.063    26.596     8.457
    29   6 C        2.922    -0.041    29.012     8.833
    30   6 C        2.920    -0.027    28.672     8.781
    31   6 C        2.919    -0.031    28.770     8.796
    32   6 C        2.920    -0.027    28.672     8.781
    33   6 C        2.922    -0.041    29.011     8.833
    34   6 C        2.977     0.009    27.805     8.650
    35   6 C        2.921    -0.039    28.961     8.825
    36   6 C        2.914    -0.030    28.745     8.792
    37   6 C        2.914    -0.033    28.827     8.804
    38   6 C        2.921    -0.037    28.914     8.818
    39   6 C        2.977     0.007    27.851     8.657
    40   6 C        2.921    -0.031    28.778     8.797
    41   6 C        2.921    -0.024    28.598     8.770
    42   1 H        0.926     0.033     2.539     2.492
    43   1 H        0.926     0.041     2.435     2.440
    44   1 H        0.926     0.033     2.541     2.493
    45   1 H        0.926     0.030     2.581     2.512
    46   1 H        0.926     0.032     2.554     2.499
    47   1 H        0.926     0.037     2.491     2.468
    48   1 H        0.926     0.038     2.471     2.458
    49   1 H        0.926     0.037     2.484     2.465
    50   1 H        0.926     0.039     2.464     2.455
    51   1 H        0.926     0.035     2.520     2.482
    52   1 H        0.926     0.032     2.558     2.501
    53   1 H        0.926     0.034     2.528     2.486
    54   1 H        0.926     0.035     2.517     2.481
    55   1 H        0.926     0.044     2.399     2.422
    56   1 H        0.926     0.042     2.416     2.431
    57   1 H        0.926     0.041     2.432     2.439
    58   1 H        0.926     0.042     2.417     2.431
    59   1 H        0.926     0.044     2.396     2.421
    60   1 H        0.926     0.037     2.492     2.469
    61   1 H        0.926     0.032     2.556     2.500
    62   1 H        0.926     0.030     2.583     2.513
    63   1 H        0.926     0.033     2.543     2.494
    64   1 H        0.926     0.041     2.434     2.440
    65   1 H        0.926     0.033     2.539     2.492

molecular dipole:
                 x           y           z       tot (Debye)
 q only:        4.823       0.383       0.182
   full:        5.196       0.413       0.196      13.257

 projected vibrational frequencies (cm⁻¹)
eigval :       -0.00    -0.00    -0.00     0.00     0.00     0.00
eigval :       12.35    16.59    20.76    37.66    42.16    54.30
eigval :       57.46    64.17    72.92    79.63   105.92   123.27
eigval :      126.89   128.88   136.45   140.75   158.99   181.70
eigval :      207.75   223.11   234.64   236.65   252.76   268.74
eigval :      277.28   314.63   333.11   352.77   367.35   370.07
eigval :      378.24   387.17   392.79   396.69   399.29   413.61
eigval :      424.81   433.34   440.20   457.09   470.74   475.59
eigval :      510.62   527.60   534.59   538.06   542.28   553.20
eigval :      572.46   581.11   582.86   585.60   593.87   606.50
eigval :      614.61   621.35   628.03   643.09   668.09   676.05
eigval :      678.26   686.94   688.57   706.39   718.91   722.99
eigval :      750.22   761.25   762.26   768.09   773.64   792.10
eigval :      812.48   825.32   847.01   852.54   863.73   868.76
eigval :      879.15   881.75   886.90   892.40   894.01   900.12
eigval :      902.12   906.01   907.40   910.30   920.47   921.03
eigval :      921.65   923.04   925.09   929.47   933.31   934.20
eigval :      945.27   961.23   996.53  1008.57  1025.98  1069.74
eigval :     1077.32  1102.71  1105.06  1113.89  1115.50  1117.15
eigval :     1126.75  1134.97  1151.43  1174.84  1177.67  1178.08
eigval :     1179.80  1180.24  1181.96  1185.33  1195.76  1199.13
eigval :     1227.37  1233.87  1241.42  1244.18  1254.28  1263.67
eigval :     1268.34  1271.07  1287.30  1293.34  1305.32  1306.92
eigval :     1313.02  1315.09  1334.55  1337.04  1352.07  1355.67
eigval :     1361.26  1368.87  1379.27  1409.33  1410.16  1416.23
eigval :     1419.37  1427.06  1433.45  1456.39  1459.38  1474.50
eigval :     1475.62  1479.34  1492.14  1498.05  1525.45  1529.19
eigval :     1543.66  1543.96  1564.35  1575.40  1579.90  1586.80
eigval :     1590.48  1603.45  2316.85  3072.30  3073.81  3074.34
eigval :     3074.51  3074.87  3078.55  3079.75  3080.46  3080.82
eigval :     3082.86  3082.98  3085.14  3087.08  3087.44  3088.30
eigval :     3089.32  3091.60  3091.97  3093.55  3094.11  3095.14
eigval :     3097.04  3098.20  3098.65

   temp. (K)  partition function   enthalpy   heat capacity  entropy
                                   cal/mol     cal/K/mol   cal/K/mol   J/K/mol
 298.15  VIB  0.299E+14            18247.732    118.657    112.144
         ROT  0.541E+08              888.752      2.981     38.368
         INT  0.162E+22            19136.484    121.638    150.512
         TR   0.115E+29             1481.254      4.968     44.616
         TOT                       20617.7384   126.6065   195.1273   816.4126

       T/K    H(0)-H(T)+PV         H(T)/Eh          T*S/Eh         G(T)/Eh
   ------------------------------------------------------------------------
    298.15    0.328565E-01    0.524438E+00    0.927113E-01    0.431726E+00
   ------------------------------------------------------------------------

         :::::::::::::::::::::::::::::::::::::::::::::::::::::
         ::                  THERMODYNAMIC                  ::
         :::::::::::::::::::::::::::::::::::::::::::::::::::::
         :: total free energy        -101.139575178278 Eh   ::
         ::.................................................::
         :: total energy             -101.571301506533 Eh   ::
         :: zero point energy           0.491581142282 Eh   ::
         :: G(RRHO) w/o ZPVE           -0.059854814027 Eh   ::
         :: G(RRHO) contrib.            0.431726328255 Eh   ::
         :::::::::::::::::::::::::::::::::::::::::::::::::::::

           -------------------------------------------------
          | TOTAL ENERGY             -101.571301506533 Eh   |
          | TOTAL ENTHALPY           -101.046863906755 Eh   |
          | TOTAL FREE ENERGY        -101.139575178278 Eh   |
          | GRADIENT NORM               0.000104021815 Eh/α |
          | HOMO-LUMO GAP               0.801811470410 eV   |
           -------------------------------------------------

 * finished run on 2025/09/09 at 21:58:18.200
