   * xtb version 6.7.1 (edcfbbe) compiled by 'albert@albert-system' on 2024-07-22

   ID    Z sym.   atoms
    1    7 N      1, 27
    2    6 C      2-26, 28-41
    3    1 H      42-65

          program call               : xtb data2507/toluene/3CzAnBzt/3CzAnBzt_toluene_S0_crest.xyz --gfn 2 --gbsa toluene --ohess vtight --parallel 40 --molden --ceasefiles --namespace data2507/toluene/3CzAnBzt/3CzAnBzt_toluene_S0_finalOpt
      * Solvation model:               GBSA
        Solvent                        toluene
        Solvent mass                       9.2140E+01 g/mol
          :  Hamiltonian                  GFN2-xTB          :
 * total energy  :  -101.6372790 Eh     change       -0.1618275E-08 Eh
 * total energy  :  -101.6373004 Eh     change       -0.2132042E-04 Eh
 * total energy  :  -101.6373083 Eh     change       -0.7930570E-05 Eh
 * total energy  :  -101.6373130 Eh     change       -0.4682268E-05 Eh
 * total energy  :  -101.6373183 Eh     change       -0.5287363E-05 Eh
 * total energy  :  -101.6373233 Eh     change       -0.5016053E-05 Eh
 * total energy  :  -101.6373282 Eh     change       -0.4957245E-05 Eh
 * total energy  :  -101.6373324 Eh     change       -0.4181154E-05 Eh
 * total energy  :  -101.6373345 Eh     change       -0.2097583E-05 Eh
 * total energy  :  -101.6373359 Eh     change       -0.1419801E-05 Eh
 * total energy  :  -101.6373439 Eh     change       -0.1847518E-05 Eh
 * total energy  :  -101.6373456 Eh     change       -0.1720335E-05 Eh
 * total energy  :  -101.6373475 Eh     change       -0.1937921E-05 Eh
 * total energy  :  -101.6373496 Eh     change       -0.2067593E-05 Eh
 * total energy  :  -101.6373510 Eh     change       -0.1435523E-05 Eh
 * total energy  :  -101.6373516 Eh     change       -0.5157311E-06 Eh
 * total energy  :  -101.6373518 Eh     change       -0.2069536E-06 Eh
 * total energy  :  -101.6373520 Eh     change       -0.2103901E-06 Eh
 * total energy  :  -101.6373520 Eh     change       -0.2117076E-08 Eh
   *** GEOMETRY OPTIMIZATION CONVERGED AFTER 22 ITERATIONS ***

 final structure:
================
65
 xtb: 6.7.1 (edcfbbe)
N          -10.41852530131931        0.00241141715406        0.03641802901265
C           -9.27026313231071        0.01948940647696        0.04334936112094
C           -7.85928285725803        0.04006222778087        0.05150886618409
C           -7.17196211268018        0.35187143155386        1.22695014608182
C           -5.79215105462661        0.36530044195272        1.22889714646884
C           -5.07612220230981        0.07575646640984        0.06817937883490
C           -3.59739296361505        0.09224395293991        0.07715733161984
C           -2.89409465370733       -0.92806821753319        0.73306841541753
C           -3.56220567722377       -2.00664767983783        1.37178820737124
C           -2.86978828254399       -2.97962630291751        2.02456307000770
C           -1.46249736940765       -2.93102066548158        2.08515460636193
C           -0.78352038238875       -1.92605525583302        1.46752788045293
C           -1.46427047639257       -0.90433689565952        0.75354489602560
C           -0.77237427402923        0.12159835561885        0.09209742378271
C            0.70668041480028        0.13710300598797        0.09861681282824
C            1.38875126968969        1.13424947535302        0.80785360459298
C            2.76750967649922        1.19082695942240        0.84333087899647
C            3.47792887460950        0.22892365330768        0.13794601961965
C            2.80561560134627       -0.79698454889633       -0.56677433685829
C            1.41879977523463       -0.83757341403541       -0.58529239269853
C            3.82380606836741       -1.63446552568269       -1.13652708234369
C            3.79082212867616       -2.76994179618721       -1.93619461587817
C            4.98683615492521       -3.33042314209592       -2.33833193193017
C            6.20476858228198       -2.76480509172173       -1.96460106685990
C            6.26303608208565       -1.63631899195399       -1.16920972957745
C            5.06450173642127       -1.08037819637055       -0.74346413343182
N            4.84035982632980        0.04475800740296        0.02477963821187
C            5.83061399912525        0.86839987682504        0.58554467033592
C            5.79698222911899        2.24363255180572        0.37395597467168
C            6.77190006862573        3.05165824277735        0.93019834382887
C            7.78954839222398        2.49715029374709        1.68918774862938
C            7.82652546216128        1.12791973782447        1.89678710361675
C            6.84965642394603        0.31312731432385        1.35374719652439
C           -1.47873834070902        1.13294447431847       -0.57626692288011
C           -0.81144749492880        2.16847223301448       -1.28291490929169
C           -1.50414160479802        3.15982903130809       -1.90722656079066
C           -2.91274581657921        3.17936483679594       -1.86174248983998
C           -3.59199500161392        2.19195938235796       -1.21682491357112
C           -2.90869322247633        1.12725639092601       -0.57104737880306
C           -5.77058633554551       -0.23057741984407       -1.10131265504167
C           -7.15017903786658       -0.25284527370554       -1.11583812553431
H           -7.72688343835926        0.57970703517813        2.12546882932854
H           -5.25622099957376        0.60631999121907        2.13521122221290
H           -4.64079769589400       -2.04528223898140        1.32955894722676
H           -3.39344297412586       -3.79312283956118        2.50559749446351
H           -0.92857104164894       -3.70022305250192        2.62408207352803
H            0.29460429673466       -1.89025188436143        1.51371544669343
H            0.81227059953772        1.87033404961872        1.34967934511174
H            3.27330308014195        1.95653632283210        1.41189156309491
H            0.89789978692477       -1.61346129628408       -1.12685838333941
H            2.84698586316877       -3.19927227894525       -2.23810998069062
H            4.98383002567019       -4.21475693423091       -2.95879574379625
H            7.12416346711368       -3.21719890481489       -2.30720136985564
H            7.21133209472913       -1.19691040848253       -0.89859116952427
H            5.01420003726863        2.66983163359876       -0.23588279301881
H            6.74090035060611        4.11827480721734        0.76251085535350
H            8.55192381365536        3.13031788272667        2.11773059400205
H            8.61565262290477        0.69167347645826        2.49143894928308
H            6.86386218191120       -0.75234986356450        1.52988126003969
H            0.26757726174264        2.15334615317309       -1.31788141810204
H           -0.98081292185168        3.94029790303232       -2.44035621767717
H           -3.44780605126893        3.98228420088118       -2.34795912832634
H           -4.67155428923676        2.20777992985987       -1.18654314813070
H           -5.21769756554565       -0.45768999448910       -2.00101863957472
H           -7.68828634544212       -0.49472010140702       -2.02087939406980

          :  Hamiltonian                  GFN2-xTB          :
         :: gradient norm              0.000058071735 Eh/a0 ::
         :: HOMO-LUMO gap              2.017819674303 eV    ::
         :: SCC energy              -103.630560710691 Eh    ::
         :: -> dispersion             -0.092255112924 Eh    ::
         :: -> Gsolv                  -0.045026050313 Eh    ::
         :: repulsion energy           1.993208729603 Eh    ::

    * Orbital Energies and Occupations

         #    Occupation            Energy/Eh            Energy/eV
      -------------------------------------------------------------
         1        2.0000           -0.6775267             -18.4364
       ...           ...                  ...                  ...
        83        2.0000           -0.4225644             -11.4986
        84        2.0000           -0.4212183             -11.4619
        85        2.0000           -0.4187670             -11.3952
        86        2.0000           -0.4128721             -11.2348
        87        2.0000           -0.4115683             -11.1993
        88        2.0000           -0.4098666             -11.1530
        89        2.0000           -0.4086288             -11.1194
        90        2.0000           -0.4050909             -11.0231
        91        2.0000           -0.4028163             -10.9612
        92        2.0000           -0.4011256             -10.9152
        93        2.0000           -0.3799564             -10.3391
        94        2.0000           -0.3655903              -9.9482
        95        2.0000           -0.3582315              -9.7480 (HOMO)
        96                         -0.2840780              -7.7302 (LUMO)
        97                         -0.2721216              -7.4048
        98                         -0.2475722              -6.7368
        99                         -0.2422332              -6.5915
       100                         -0.2342316              -6.3738
       101                         -0.2329804              -6.3397
       102                         -0.2317002              -6.3049
       103                         -0.2240280              -6.0961
       104                         -0.2222130              -6.0467
       105                         -0.2131003              -5.7988
       106                         -0.1948242              -5.3014
       ...                                ...                  ...
       188                          1.1586022              31.5272
      -------------------------------------------------------------
                  HL-Gap            0.0741535 Eh            2.0178 eV

     #   Z          covCN         q      C6AA      α(0)
     1   7 N        0.911    -0.277    27.145     7.535
     2   6 C        1.912     0.118    28.191     8.575
     3   6 C        2.974     0.013    27.713     8.635
     4   6 C        2.924    -0.019    28.480     8.752
     5   6 C        2.922    -0.027    28.675     8.781
     6   6 C        2.976     0.029    27.338     8.577
     7   6 C        2.977    -0.010    28.256     8.719
     8   6 C        2.983     0.007    27.862     8.659
     9   6 C        2.917    -0.036    28.902     8.816
    10   6 C        2.914    -0.030    28.745     8.792
    11   6 C        2.914    -0.031    28.771     8.796
    12   6 C        2.917    -0.034    28.840     8.806
    13   6 C        2.983     0.006    27.886     8.662
    14   6 C        2.977    -0.002    28.075     8.691
    15   6 C        2.976     0.003    27.963     8.674
    16   6 C        2.928    -0.037    28.918     8.819
    17   6 C        2.908    -0.052    29.294     8.875
    18   6 C        3.076     0.046    26.885     8.501
    19   6 C        3.066    -0.019    28.413     8.741
    20   6 C        2.917    -0.037    28.925     8.819
    21   6 C        3.067    -0.019    28.404     8.739
    22   6 C        2.912    -0.035    28.861     8.809
    23   6 C        2.920    -0.043    29.056     8.840
    24   6 C        2.924    -0.035    28.865     8.811
    25   6 C        2.909    -0.052    29.284     8.873
    26   6 C        3.077     0.048    26.851     8.496
    27   7 N        2.802    -0.046    22.126     6.986
    28   6 C        2.913     0.064    26.567     8.452
    29   6 C        2.922    -0.042    29.046     8.838
    30   6 C        2.920    -0.028    28.699     8.785
    31   6 C        2.919    -0.033    28.815     8.803
    32   6 C        2.920    -0.028    28.699     8.785
    33   6 C        2.922    -0.042    29.044     8.838
    34   6 C        2.983     0.006    27.888     8.662
    35   6 C        2.917    -0.034    28.840     8.806
    36   6 C        2.914    -0.031    28.773     8.796
    37   6 C        2.914    -0.030    28.747     8.792
    38   6 C        2.917    -0.036    28.900     8.815
    39   6 C        2.983     0.007    27.864     8.659
    40   6 C        2.922    -0.027    28.674     8.781
    41   6 C        2.924    -0.019    28.480     8.752
    42   1 H        0.926     0.043     2.410     2.428
    43   1 H        0.926     0.046     2.365     2.405
    44   1 H        0.926     0.029     2.598     2.521
    45   1 H        0.926     0.031     2.575     2.509
    46   1 H        0.926     0.031     2.573     2.508
    47   1 H        0.926     0.034     2.527     2.486
    48   1 H        0.926     0.031     2.573     2.509
    49   1 H        0.926     0.032     2.561     2.502
    50   1 H        0.926     0.031     2.577     2.510
    51   1 H        0.926     0.030     2.583     2.513
    52   1 H        0.926     0.027     2.622     2.532
    53   1 H        0.926     0.030     2.589     2.516
    54   1 H        0.926     0.030     2.586     2.515
    55   1 H        0.926     0.041     2.433     2.439
    56   1 H        0.926     0.040     2.448     2.447
    57   1 H        0.926     0.039     2.462     2.454
    58   1 H        0.926     0.040     2.450     2.448
    59   1 H        0.926     0.041     2.433     2.439
    60   1 H        0.926     0.034     2.525     2.485
    61   1 H        0.926     0.031     2.571     2.508
    62   1 H        0.926     0.031     2.574     2.509
    63   1 H        0.926     0.029     2.599     2.521
    64   1 H        0.926     0.046     2.366     2.405
    65   1 H        0.926     0.043     2.411     2.428

molecular dipole:
                 x           y           z       tot (Debye)
 q only:        2.555       0.431       0.288
   full:        2.963       0.456       0.304       7.660

 projected vibrational frequencies (cm⁻¹)
eigval :       -0.00    -0.00    -0.00    -0.00     0.00     0.00
eigval :       12.31    17.62    19.96    36.86    42.18    44.53
eigval :       61.45    62.78    63.40    75.05   101.39   109.86
eigval :      118.08   129.71   135.97   137.87   146.65   184.43
eigval :      204.44   213.77   215.92   235.83   250.85   261.54
eigval :      270.71   315.95   335.37   354.17   361.06   379.87
eigval :      385.71   390.63   397.46   398.94   410.69   428.80
eigval :      431.51   446.96   450.22   458.85   461.40   476.37
eigval :      512.55   533.53   534.14   537.69   543.44   560.21
eigval :      580.62   583.16   586.81   588.72   599.39   609.42
eigval :      620.12   627.82   640.11   648.44   669.10   682.22
eigval :      685.70   692.86   698.13   708.80   723.52   739.77
eigval :      762.57   770.02   773.25   774.35   775.74   797.61
eigval :      816.31   821.89   868.39   871.32   872.05   874.00
eigval :      878.13   881.99   888.50   897.76   900.08   905.71
eigval :      912.32   916.93   917.89   919.56   920.37   921.42
eigval :      924.09   926.66   928.11   929.61   931.72   932.29
eigval :      933.38   963.55   997.35  1017.63  1029.71  1069.77
eigval :     1079.32  1080.81  1081.71  1116.72  1118.14  1130.40
eigval :     1133.62  1136.25  1154.73  1175.90  1179.64  1179.99
eigval :     1181.27  1182.88  1184.34  1193.77  1199.68  1206.04
eigval :     1228.12  1234.48  1241.59  1244.10  1258.31  1259.71
eigval :     1263.83  1273.46  1279.08  1302.01  1306.25  1315.51
eigval :     1323.58  1342.58  1348.57  1356.99  1359.20  1377.35
eigval :     1383.21  1391.23  1416.06  1417.40  1427.12  1429.77
eigval :     1434.79  1442.79  1465.91  1479.02  1480.35  1486.30
eigval :     1492.20  1524.90  1527.35  1540.09  1544.74  1562.73
eigval :     1581.40  1582.57  1584.79  1593.50  1596.30  1606.82
eigval :     1612.34  1621.06  2360.47  3070.04  3070.10  3070.38
eigval :     3075.14  3075.70  3076.43  3076.65  3076.81  3078.24
eigval :     3079.73  3081.04  3082.19  3084.34  3086.35  3086.73
eigval :     3086.91  3089.11  3090.45  3090.67  3091.69  3092.13
eigval :     3092.33  3093.90  3096.97

   temp. (K)  partition function   enthalpy   heat capacity  entropy
                                   cal/mol     cal/K/mol   cal/K/mol   J/K/mol
 298.15  VIB  0.513E+14            18243.330    117.563    112.700
         ROT  0.539E+08              888.752      2.981     38.360
         INT  0.276E+22            19132.082    120.544    151.060
         TR   0.115E+29             1481.254      4.968     44.616
         TOT                       20613.3361   125.5121   195.6759   818.7078

       T/K    H(0)-H(T)+PV         H(T)/Eh          T*S/Eh         G(T)/Eh
   ------------------------------------------------------------------------
    298.15    0.328494E-01    0.526698E+00    0.929719E-01    0.433726E+00
   ------------------------------------------------------------------------

         :::::::::::::::::::::::::::::::::::::::::::::::::::::
         ::                  THERMODYNAMIC                  ::
         :::::::::::::::::::::::::::::::::::::::::::::::::::::
         :: total free energy        -101.203625622953 Eh   ::
         ::.................................................::
         :: total energy             -101.637351978260 Eh   ::
         :: zero point energy           0.493848832896 Eh   ::
         :: G(RRHO) w/o ZPVE           -0.060122477589 Eh   ::
         :: G(RRHO) contrib.            0.433726355307 Eh   ::
         :::::::::::::::::::::::::::::::::::::::::::::::::::::

           -------------------------------------------------
          | TOTAL ENERGY             -101.637351978260 Eh   |
          | TOTAL ENTHALPY           -101.110653703403 Eh   |
          | TOTAL FREE ENERGY        -101.203625622953 Eh   |
          | GRADIENT NORM               0.000058065279 Eh/α |
          | HOMO-LUMO GAP               2.017819544968 eV   |
           -------------------------------------------------

 * finished run on 2025/09/09 at 21:58:12.557
