   * xtb version 6.7.1 (edcfbbe) compiled by 'albert@albert-system' on 2024-07-22

   ID    Z sym.   atoms
    1    7 N      1, 27
    2    6 C      2-26, 28-41
    3    1 H      42-65

          program call               : xtb data2507/toluene/3CzAnBzt/3CzAnBzt_toluene_T1_crest.xyz --gfn 2 --uhf 2 --gbsa toluene --ohess vtight --parallel 40 --molden --ceasefiles --namespace data2507/toluene/3CzAnBzt/3CzAnBzt_toluene_T1_finalOpt
      * Solvation model:               GBSA
        Solvent                        toluene
        Solvent mass                       9.2140E+01 g/mol
          :  Hamiltonian                  GFN2-xTB          :
 * total energy  :  -101.5712171 Eh     change       -0.3669015E-08 Eh
 * total energy  :  -101.5712476 Eh     change       -0.3057467E-04 Eh
 * total energy  :  -101.5712550 Eh     change       -0.7336027E-05 Eh
 * total energy  :  -101.5712571 Eh     change       -0.2134693E-05 Eh
 * total energy  :  -101.5712577 Eh     change       -0.5644247E-06 Eh
 * total energy  :  -101.5712590 Eh     change       -0.1312929E-05 Eh
 * total energy  :  -101.5712598 Eh     change       -0.8647610E-06 Eh
 * total energy  :  -101.5712608 Eh     change       -0.9345573E-06 Eh
 * total energy  :  -101.5712613 Eh     change       -0.5628543E-06 Eh
 * total energy  :  -101.5712616 Eh     change       -0.2344352E-06 Eh
 * total energy  :  -101.5712617 Eh     change       -0.1607763E-06 Eh
 * total energy  :  -101.5712619 Eh     change       -0.1836441E-06 Eh
 * total energy  :  -101.5712621 Eh     change       -0.1658621E-06 Eh
 * total energy  :  -101.5712622 Eh     change       -0.1347810E-06 Eh
 * total energy  :  -101.5712624 Eh     change       -0.1291551E-06 Eh
 * total energy  :  -101.5712625 Eh     change       -0.1318379E-06 Eh
 * total energy  :  -101.5712626 Eh     change       -0.8200470E-07 Eh
   *** GEOMETRY OPTIMIZATION CONVERGED AFTER 17 ITERATIONS ***

 final structure:
================
65
 xtb: 6.7.1 (edcfbbe)
N          -10.42707439128747        0.00948491527292        0.05642167067505
C           -9.27545576707965        0.02604336566701        0.05772512688820
C           -7.87225683265060        0.04593652463639        0.05877518907408
C           -7.15975800608694       -0.27312133908650        1.22419448739513
C           -5.78618778156201       -0.26455681270260        1.21618123907469
C           -5.06500323828930        0.08283766312784        0.06016394038049
C           -3.61412327090449        0.10017684593680        0.06101951239545
C           -2.88551214103462       -1.04479866748547        0.51530345216758
C           -3.52925892167185       -2.23686866454143        0.86499595852456
C           -2.82939877940841       -3.31351970913154        1.39864779443475
C           -1.46781483903134       -3.20981940688557        1.60396333920094
C           -0.79307265806233       -2.06316840430399        1.20183997725604
C           -1.46080854264074       -0.99622157781979        0.58822610126441
C           -0.75869018385724        0.13483754107664        0.07138537176995
C            0.69804300844143        0.15230782815963        0.07690717911785
C            1.39413569387224        1.22981144162298        0.66128705872600
C            2.76907232345833        1.28350740472123        0.69849125367225
C            3.48279254782698        0.24470363496275        0.10864266846366
C            2.80648255798054       -0.85663042738051       -0.47238053893471
C            1.42463522155909       -0.90308221991982       -0.48235012601579
C            3.82648260794130       -1.75506790563952       -0.94380631308125
C            3.79319240648100       -2.97776729942807       -1.59962110071031
C            4.99120123554029       -3.58291847991147       -1.92991431705496
C            6.20818823627745       -2.97757904978807       -1.62509450618056
C            6.26591395198817       -1.76058445254136       -0.97086850886200
C            5.06662592541920       -1.15937170715374       -0.61676781747041
N            4.84007593061358        0.04912691830394        0.01616344061279
C            5.83070902314781        0.93180444513791        0.47899168387754
C            6.84493119390586        0.46708745728780        1.31114490930589
C            7.82005865023799        1.33855140104621        1.76111122732257
C            7.78645503078206        2.67436587473772        1.39478843305433
C            6.77406822023585        3.13841505848327        0.57070377906827
C            5.79926178632444        2.27296812186370        0.10839047849863
C           -1.48479462003045        1.24739836432526       -0.45226008587337
C           -0.83756545302265        2.32873568278319       -1.06237450703103
C           -1.53650810743831        3.45693174196354       -1.47497089367332
C           -2.90181242917921        3.52838495222933       -1.28051668708415
C           -3.58001407175025        2.43693160344175       -0.74921887648780
C           -2.91069129323407        1.26149942077390       -0.39099291520199
C           -5.79381694130004        0.41155296197885       -1.09648404876425
C           -7.16715586314461        0.38373158597700       -1.10586573637655
H           -7.70294291286655       -0.51958409115953        2.12551754929551
H           -5.24492636515138       -0.48670313898233        2.12430706873920
H           -4.59368716791830       -2.33094792024452        0.71387177506026
H           -3.35877965615196       -4.21714467366084        1.66227271810968
H           -0.91843698668108       -4.02027455053141        2.06001538821537
H            0.27054940776609       -1.99518774672473        1.37106809435534
H            0.82165694144053        2.01452900194525        1.13363320415370
H            3.27597647000297        2.10191510905216        1.18694787271887
H            0.90696938835274       -1.72587363827277       -0.95191019763763
H            2.85011634619460       -3.44019835541347       -1.84955415022956
H            4.98796338132768       -4.53492862442046       -2.43998706289302
H            7.12779156112714       -3.46807225442817       -1.90883100865930
H            7.21394330910216       -1.29342979142503       -0.75178841063070
H            6.85531354545416       -0.57034320755309        1.61082113064853
H            8.60511621039026        0.97391970497565        2.40693848517906
H            8.54781800870116        3.35197871709239        1.75075746175444
H            6.74647014066701        4.17805611237035        0.27961771441050
H            5.01976993148096        2.62603079640225       -0.55033016495534
H            0.22913005110171        2.28597956956567       -1.21923277896943
H           -1.00375520897060        4.27897943241860       -1.92997765231514
H           -3.45069194586535        4.41816339980224       -1.55128573801309
H           -4.64762826012250        2.50578843350365       -0.60761102972528
H           -5.25779650168369        0.64691161778975       -2.00435870822266
H           -7.71576883666495        0.61558923640051       -2.00778906880840

          :  Hamiltonian                  GFN2-xTB          :
         :: gradient norm              0.000053813891 Eh/a0 ::
         :: HOMO-LUMO gap              0.798740519225 eV    ::
         :: SCC energy              -103.544989281510 Eh    ::
         :: -> dispersion             -0.092489188759 Eh    ::
         :: -> Gsolv                  -0.046161906842 Eh    ::
         :: repulsion energy           1.973726712074 Eh    ::

    * Orbital Energies and Occupations

         #    Occupation            Energy/Eh            Energy/eV
      -------------------------------------------------------------
         1        2.0000           -0.6840497             -18.6139
       ...           ...                  ...                  ...
        84        2.0000           -0.4186704             -11.3926
        85        2.0000           -0.4180387             -11.3754
        86        2.0000           -0.4159606             -11.3189
        87        2.0000           -0.4143313             -11.2745
        88        2.0000           -0.4103400             -11.1659
        89        2.0000           -0.4085681             -11.1177
        90        2.0000           -0.4028911             -10.9632
        91        2.0000           -0.4023799             -10.9493
        92        2.0000           -0.4003393             -10.8938
        93        2.0000           -0.3850158             -10.4768
        94        2.0000           -0.3702801             -10.0758
        95        1.0000           -0.3513875              -9.5617
        96        1.0000           -0.2928604              -7.9691 (HOMO)
        97        0.0000           -0.2635073              -7.1704 (LUMO)
        98                         -0.2517199              -6.8496
        99                         -0.2380292              -6.4771
       100                         -0.2347513              -6.3879
       101                         -0.2330324              -6.3411
       102                         -0.2303581              -6.2684
       103                         -0.2297577              -6.2520
       104                         -0.2245543              -6.1104
       105                         -0.2039039              -5.5485
       106                         -0.2027017              -5.5158
       107                         -0.1932008              -5.2573
       ...                                ...                  ...
       188                          1.1627065              31.6389
      -------------------------------------------------------------
                  HL-Gap            0.0293531 Eh            0.7987 eV

     #   Z          covCN         q      C6AA      α(0)
     1   7 N        0.911    -0.304    27.812     7.627
     2   6 C        1.911     0.112    28.337     8.597
     3   6 C        2.972     0.003    27.960     8.673
     4   6 C        2.921    -0.024    28.598     8.770
     5   6 C        2.921    -0.031    28.776     8.797
     6   6 C        2.972     0.018    27.598     8.617
     7   6 C        2.972    -0.007    28.189     8.709
     8   6 C        2.977     0.007    27.850     8.657
     9   6 C        2.921    -0.037    28.908     8.817
    10   6 C        2.914    -0.033    28.825     8.804
    11   6 C        2.914    -0.030    28.739     8.791
    12   6 C        2.921    -0.038    28.956     8.824
    13   6 C        2.977     0.009    27.803     8.649
    14   6 C        2.973    -0.012    28.314     8.728
    15   6 C        2.973     0.009    27.809     8.650
    16   6 C        2.927    -0.035    28.873     8.812
    17   6 C        2.907    -0.049    29.217     8.863
    18   6 C        3.075     0.048    26.854     8.496
    19   6 C        3.063    -0.015    28.334     8.729
    20   6 C        2.916    -0.035    28.863     8.810
    21   6 C        3.066    -0.016    28.343     8.730
    22   6 C        2.912    -0.032    28.805     8.801
    23   6 C        2.920    -0.039    28.978     8.828
    24   6 C        2.924    -0.033    28.820     8.804
    25   6 C        2.909    -0.049    29.205     8.861
    26   6 C        3.076     0.047    26.869     8.498
    27   7 N        2.802    -0.033    21.874     6.946
    28   6 C        2.913     0.063    26.596     8.457
    29   6 C        2.922    -0.041    29.011     8.833
    30   6 C        2.920    -0.027    28.671     8.781
    31   6 C        2.919    -0.031    28.770     8.796
    32   6 C        2.920    -0.027    28.672     8.781
    33   6 C        2.922    -0.041    29.012     8.833
    34   6 C        2.977     0.009    27.805     8.650
    35   6 C        2.921    -0.039    28.962     8.825
    36   6 C        2.914    -0.030    28.745     8.792
    37   6 C        2.914    -0.033    28.827     8.804
    38   6 C        2.921    -0.037    28.914     8.818
    39   6 C        2.977     0.007    27.851     8.657
    40   6 C        2.921    -0.031    28.777     8.797
    41   6 C        2.921    -0.024    28.598     8.770
    42   1 H        0.926     0.033     2.539     2.492
    43   1 H        0.926     0.041     2.436     2.441
    44   1 H        0.926     0.033     2.543     2.494
    45   1 H        0.926     0.030     2.581     2.512
    46   1 H        0.926     0.032     2.554     2.499
    47   1 H        0.926     0.037     2.491     2.468
    48   1 H        0.926     0.038     2.470     2.458
    49   1 H        0.926     0.037     2.484     2.465
    50   1 H        0.926     0.039     2.464     2.454
    51   1 H        0.926     0.035     2.520     2.482
    52   1 H        0.926     0.032     2.558     2.501
    53   1 H        0.926     0.034     2.528     2.486
    54   1 H        0.926     0.035     2.517     2.481
    55   1 H        0.926     0.044     2.397     2.421
    56   1 H        0.926     0.042     2.417     2.431
    57   1 H        0.926     0.041     2.432     2.439
    58   1 H        0.926     0.042     2.416     2.431
    59   1 H        0.926     0.044     2.398     2.422
    60   1 H        0.926     0.037     2.492     2.469
    61   1 H        0.926     0.032     2.556     2.500
    62   1 H        0.926     0.030     2.584     2.514
    63   1 H        0.926     0.033     2.544     2.494
    64   1 H        0.926     0.041     2.435     2.440
    65   1 H        0.926     0.033     2.538     2.491

molecular dipole:
                 x           y           z       tot (Debye)
 q only:        4.823       0.372       0.184
   full:        5.195       0.401       0.200      13.253

 projected vibrational frequencies (cm⁻¹)
eigval :       -0.00    -0.00     0.00     0.00     0.00     0.00
eigval :       11.50    16.86    21.46    37.05    42.00    57.24
eigval :       62.55    65.87    71.99    77.83   106.57   122.95
eigval :      126.54   129.31   136.68   141.06   160.53   181.36
eigval :      207.33   221.36   232.79   236.26   252.01   268.74
eigval :      276.89   314.72   332.91   352.80   367.11   370.75
eigval :      378.35   387.41   392.83   397.06   399.37   413.75
eigval :      424.73   434.29   440.80   457.36   470.07   476.61
eigval :      510.46   527.95   534.63   537.01   542.11   553.15
eigval :      572.07   581.20   583.11   585.37   593.88   606.53
eigval :      614.99   621.76   628.14   642.78   668.02   676.02
eigval :      678.27   687.01   688.58   707.03   718.75   723.15
eigval :      750.55   762.28   762.60   768.28   772.75   792.23
eigval :      817.30   830.12   848.35   853.28   868.43   868.72
eigval :      881.55   886.81   887.78   893.26   894.53   900.05
eigval :      901.74   906.51   909.44   911.49   920.43   920.79
eigval :      921.21   926.10   928.97   933.63   935.55   937.13
eigval :      945.26   961.32   996.59  1008.28  1026.75  1069.15
eigval :     1078.98  1102.82  1105.21  1114.57  1116.90  1117.62
eigval :     1127.21  1134.39  1151.55  1175.05  1177.48  1178.80
eigval :     1180.74  1181.30  1182.74  1186.02  1196.14  1200.40
eigval :     1228.18  1233.98  1242.00  1244.10  1254.61  1263.20
eigval :     1268.76  1273.25  1287.21  1293.25  1305.26  1306.80
eigval :     1312.88  1315.03  1334.71  1337.15  1352.16  1355.71
eigval :     1361.27  1369.24  1379.68  1409.09  1410.60  1416.16
eigval :     1419.10  1427.81  1433.68  1456.06  1459.29  1474.64
eigval :     1476.13  1479.44  1492.24  1497.98  1525.70  1529.08
eigval :     1543.77  1543.96  1564.28  1575.56  1579.80  1586.75
eigval :     1590.71  1603.43  2316.85  3072.52  3073.48  3073.90
eigval :     3074.17  3075.12  3078.05  3079.69  3080.71  3080.99
eigval :     3082.27  3082.81  3085.33  3087.30  3087.91  3088.44
eigval :     3089.77  3091.76  3092.64  3093.55  3094.38  3095.19
eigval :     3096.81  3098.02  3098.40

   temp. (K)  partition function   enthalpy   heat capacity  entropy
                                   cal/mol     cal/K/mol   cal/K/mol   J/K/mol
 298.15  VIB  0.278E+14            18233.280    118.693    112.086
         ROT  0.541E+08              888.752      2.981     38.368
         INT  0.150E+22            19122.032    121.674    150.454
         TR   0.115E+29             1481.254      4.968     44.616
         TOT                       20603.2863   126.6422   195.0698   816.1722

       T/K    H(0)-H(T)+PV         H(T)/Eh          T*S/Eh         G(T)/Eh
   ------------------------------------------------------------------------
    298.15    0.328334E-01    0.524572E+00    0.926840E-01    0.431888E+00
   ------------------------------------------------------------------------

         :::::::::::::::::::::::::::::::::::::::::::::::::::::
         ::                  THERMODYNAMIC                  ::
         :::::::::::::::::::::::::::::::::::::::::::::::::::::
         :: total free energy        -101.139374108974 Eh   ::
         ::.................................................::
         :: total energy             -101.571262570621 Eh   ::
         :: zero point energy           0.491739012133 Eh   ::
         :: G(RRHO) w/o ZPVE           -0.059850550485 Eh   ::
         :: G(RRHO) contrib.            0.431888461647 Eh   ::
         :::::::::::::::::::::::::::::::::::::::::::::::::::::

           -------------------------------------------------
          | TOTAL ENERGY             -101.571262570621 Eh   |
          | TOTAL ENTHALPY           -101.046690131764 Eh   |
          | TOTAL FREE ENERGY        -101.139374108974 Eh   |
          | GRADIENT NORM               0.000053860320 Eh/α |
          | HOMO-LUMO GAP               0.798738012600 eV   |
           -------------------------------------------------

 * finished run on 2025/09/09 at 22:01:15.685
