   * xtb version 6.7.1 (edcfbbe) compiled by 'albert@albert-system' on 2024-07-22

   ID    Z sym.   atoms
    1    7 N      1, 27
    2    6 C      2-26, 28-41
    3    1 H      42-65

          program call               : xtb data2507/toluene/3CzAnBzt/3CzAnBzt.xyz --gfn 2 --gbsa toluene --ohess vtight --parallel 40 --molden --ceasefiles --namespace data2507/toluene/3CzAnBzt/3CzAnBzt_toluene_S0_preOpt
      * Solvation model:               GBSA
        Solvent                        toluene
        Solvent mass                       9.2140E+01 g/mol
          :  Hamiltonian                  GFN2-xTB          :
 * total energy  :  -101.6181740 Eh     change       -0.2065136E-08 Eh
 * total energy  :  -101.6326018 Eh     change       -0.1442784E-01 Eh
 * total energy  :  -101.6359753 Eh     change       -0.3373449E-02 Eh
 * total energy  :  -101.6363981 Eh     change       -0.4228701E-03 Eh
 * total energy  :  -101.6366341 Eh     change       -0.2359729E-03 Eh
 * total energy  :  -101.6367047 Eh     change       -0.7059271E-04 Eh
 * total energy  :  -101.6367666 Eh     change       -0.6193591E-04 Eh
 * total energy  :  -101.6368102 Eh     change       -0.4358599E-04 Eh
 * total energy  :  -101.6368464 Eh     change       -0.3614539E-04 Eh
 * total energy  :  -101.6368861 Eh     change       -0.3976625E-04 Eh
 * total energy  :  -101.6369699 Eh     change       -0.1052705E-05 Eh
 * total energy  :  -101.6369709 Eh     change       -0.1047572E-05 Eh
 * total energy  :  -101.6369718 Eh     change       -0.8932217E-06 Eh
 * total energy  :  -101.6369725 Eh     change       -0.6440220E-06 Eh
 * total energy  :  -101.6369730 Eh     change       -0.4673903E-06 Eh
 * total energy  :  -101.6369734 Eh     change       -0.4346421E-06 Eh
 * total energy  :  -101.6369738 Eh     change       -0.4310875E-06 Eh
 * total energy  :  -101.6369741 Eh     change       -0.2904598E-06 Eh
 * total energy  :  -101.6369742 Eh     change       -0.5679435E-07 Eh
   *** GEOMETRY OPTIMIZATION CONVERGED AFTER 40 ITERATIONS ***

 final structure:
================
65
 xtb: 6.7.1 (edcfbbe)
N          -10.70642124554655       -0.08120155810053       -0.14957979161938
C           -9.55822951177566       -0.08976065494487       -0.13685023997849
C           -8.14675968540381       -0.09951794296096       -0.12175419806448
C           -7.44935059937302       -1.13840858351122       -0.74246642382800
C           -6.06923269191754       -1.14036302195475       -0.72636124696489
C           -5.36554786395093       -0.11592950583508       -0.09650619633005
C           -3.88390320357566       -0.12123327865263       -0.08621542925701
C           -3.18130196091182        0.48788483366203       -1.13357095187934
C           -3.84973163746956        1.11666919457723       -2.21753751044604
C           -3.15355688911418        1.70426008156647       -3.22861372842504
C           -1.74335368505992        1.70037890917018       -3.21886659526563
C           -1.06509847286050        1.10929180388010       -2.19775932936370
C           -1.75149634423602        0.48501737537175       -1.12276435829916
C           -1.06321163200115       -0.12574246207717       -0.06651072093321
C            0.41987122010291       -0.12823486767941       -0.05647912310551
C            1.11361760027668       -1.19114803016075       -0.64629852782083
C            2.49351090609414       -1.23942420519013       -0.66235916624093
C            3.18874697720007       -0.19801353537469       -0.06328351493029
C            2.50236806880532        0.89322740057192        0.51894467367250
C            1.11452684547558        0.92186330754824        0.52305486773556
C            3.50878242409201        1.79919191253191        0.99709159961508
C            3.45985482071711        3.01776587995117        1.66245580384982
C            4.64765793720355        3.63326204657358        2.00348507936215
C            5.87341320970265        3.04217386538535        1.70142063584820
C            5.94776830279944        1.83082808635285        1.04084462841950
C            4.75732562078752        1.21737186963450        0.67513031079482
N            4.54912492305942        0.01121665784885        0.03687784645154
C            5.55123070930082       -0.85485300990536       -0.43171285777303
C            5.53979461715203       -2.19870728602756       -0.06994758829371
C            6.52701529759470       -3.04738772915324       -0.53708214794198
C            7.53406701852233       -2.56396311532531       -1.35639291819121
C            7.54890269049730       -1.22545575635081       -1.71344570739473
C            6.56001355328073       -0.37153387164422       -1.25980412258960
C           -1.76828091200693       -0.73400280430686        0.97994243022778
C           -1.09876796056036       -1.35870987353214        2.06526610804376
C           -1.79287174672961       -1.94706567684461        3.07723700362858
C           -3.20312018491048       -1.94797862167902        3.06652415464044
C           -3.88346111837414       -1.35931084529471        2.04533661927641
C           -3.19812013725091       -0.73267270450445        0.97073162737001
C           -6.06852295603425        0.91601022793013        0.52185721606383
C           -7.44856371668593        0.93044336264754        0.51278737249341
H           -7.99637256647001       -1.93215301939191       -1.23019852755896
H           -5.52449599140470       -1.94070322009406       -1.20524720079145
H           -4.93014951097625        1.12039753983329       -2.22537887724752
H           -3.67559799882437        2.17888577795458       -4.04691721453374
H           -1.20788948943728        2.17152449876400       -4.03035375742308
H            0.01498246824957        1.10454769619391       -2.18678554543325
H            0.54697008214379       -1.98965654085133       -1.10354596182087
H            3.01129005304254       -2.05938034317513       -1.13663923579607
H            0.58063784815255        1.74945176379614        0.96654936831508
H            2.51002748316635        3.46829164005943        1.90962339550529
H            4.63211747600986        4.58228102931912        2.51933359319186
H            6.78613212918886        3.54101649786796        1.99373419127073
H            6.90216127481145        1.37426609816869        0.82562944301872
H            4.76405566114954       -2.56765245618917        0.58468940140264
H            6.51356376288035       -4.08940691902284       -0.25295587372809
H            8.30571517210214       -3.22833057597541       -1.71547811071670
H            8.33008056166214       -0.84493249579329       -2.35508189695239
H            6.55680372005085        0.66840572957155       -1.55139433067244
H           -0.01861640336446       -1.35525797705133        2.06979413351844
H           -1.27037225182334       -2.41809183079586        3.89722824451070
H           -3.73787501631524       -2.42037556290910        3.87786640513806
H           -4.96389923102988       -1.36018766815125        2.03787054409757
H           -5.52309106554324        1.71009592084827        1.01029578269180
H           -7.99486675433899        1.73072754283020        0.99053844745208

          :  Hamiltonian                  GFN2-xTB          :
         :: gradient norm              0.000096292429 Eh/a0 ::
         :: HOMO-LUMO gap              2.187004624984 eV    ::
         :: SCC energy              -103.631231758874 Eh    ::
         :: -> dispersion             -0.091985230026 Eh    ::
         :: -> Gsolv                  -0.045275929721 Eh    ::
         :: repulsion energy           1.994257593338 Eh    ::

    * Orbital Energies and Occupations

         #    Occupation            Energy/Eh            Energy/eV
      -------------------------------------------------------------
         1        2.0000           -0.6771582             -18.4264
       ...           ...                  ...                  ...
        83        2.0000           -0.4227062             -11.5024
        84        2.0000           -0.4212020             -11.4615
        85        2.0000           -0.4184314             -11.3861
        86        2.0000           -0.4127585             -11.2317
        87        2.0000           -0.4115548             -11.1990
        88        2.0000           -0.4099901             -11.1564
        89        2.0000           -0.4082028             -11.1078
        90        2.0000           -0.4062435             -11.0544
        91        2.0000           -0.4026974             -10.9580
        92        2.0000           -0.4013891             -10.9224
        93        2.0000           -0.3796834             -10.3317
        94        2.0000           -0.3623920              -9.8612
        95        2.0000           -0.3618305              -9.8459 (HOMO)
        96                         -0.2814595              -7.6589 (LUMO)
        97                         -0.2748266              -7.4784
        98                         -0.2474046              -6.7322
        99                         -0.2427875              -6.6066
       100                         -0.2340918              -6.3700
       101                         -0.2331819              -6.3452
       102                         -0.2316032              -6.3022
       103                         -0.2233879              -6.0787
       104                         -0.2225470              -6.0558
       105                         -0.2134342              -5.8078
       106                         -0.1921043              -5.2274
       ...                                ...                  ...
       188                          1.1582916              31.5187
      -------------------------------------------------------------
                  HL-Gap            0.0803709 Eh            2.1870 eV

     #   Z          covCN         q      C6AA      α(0)
     1   7 N        0.911    -0.276    27.121     7.532
     2   6 C        1.912     0.118    28.188     8.574
     3   6 C        2.974     0.014    27.706     8.634
     4   6 C        2.924    -0.019    28.471     8.750
     5   6 C        2.922    -0.027    28.671     8.781
     6   6 C        2.977     0.030    27.323     8.574
     7   6 C        2.978    -0.009    28.243     8.717
     8   6 C        2.984     0.007    27.865     8.659
     9   6 C        2.917    -0.035    28.882     8.813
    10   6 C        2.914    -0.030    28.739     8.791
    11   6 C        2.914    -0.030    28.759     8.794
    12   6 C        2.917    -0.033    28.819     8.803
    13   6 C        2.984     0.006    27.883     8.662
    14   6 C        2.978    -0.002    28.075     8.691
    15   6 C        2.977     0.003    27.954     8.673
    16   6 C        2.928    -0.037    28.926     8.820
    17   6 C        2.908    -0.052    29.289     8.874
    18   6 C        3.076     0.046    26.893     8.502
    19   6 C        3.066    -0.019    28.410     8.740
    20   6 C        2.917    -0.038    28.937     8.821
    21   6 C        3.067    -0.019    28.407     8.740
    22   6 C        2.912    -0.035    28.862     8.809
    23   6 C        2.920    -0.043    29.061     8.840
    24   6 C        2.924    -0.035    28.867     8.811
    25   6 C        2.909    -0.052    29.287     8.874
    26   6 C        3.077     0.048    26.850     8.495
    27   7 N        2.802    -0.047    22.141     6.989
    28   6 C        2.913     0.064    26.565     8.452
    29   6 C        2.922    -0.042    29.045     8.838
    30   6 C        2.920    -0.028    28.700     8.785
    31   6 C        2.919    -0.033    28.816     8.803
    32   6 C        2.920    -0.028    28.699     8.785
    33   6 C        2.922    -0.042    29.044     8.838
    34   6 C        2.984     0.006    27.883     8.662
    35   6 C        2.917    -0.033    28.818     8.803
    36   6 C        2.914    -0.030    28.760     8.794
    37   6 C        2.914    -0.030    28.740     8.791
    38   6 C        2.917    -0.035    28.881     8.813
    39   6 C        2.984     0.007    27.865     8.659
    40   6 C        2.922    -0.027    28.671     8.781
    41   6 C        2.924    -0.018    28.470     8.750
    42   1 H        0.926     0.043     2.403     2.424
    43   1 H        0.926     0.046     2.369     2.407
    44   1 H        0.926     0.028     2.610     2.526
    45   1 H        0.926     0.031     2.568     2.506
    46   1 H        0.926     0.031     2.567     2.505
    47   1 H        0.926     0.033     2.547     2.496
    48   1 H        0.926     0.029     2.595     2.519
    49   1 H        0.926     0.032     2.564     2.504
    50   1 H        0.926     0.029     2.601     2.522
    51   1 H        0.926     0.030     2.587     2.515
    52   1 H        0.926     0.027     2.625     2.534
    53   1 H        0.926     0.030     2.592     2.518
    54   1 H        0.926     0.030     2.590     2.517
    55   1 H        0.926     0.041     2.433     2.439
    56   1 H        0.926     0.040     2.449     2.447
    57   1 H        0.926     0.039     2.462     2.454
    58   1 H        0.926     0.040     2.450     2.448
    59   1 H        0.926     0.041     2.435     2.440
    60   1 H        0.926     0.033     2.546     2.495
    61   1 H        0.926     0.031     2.566     2.505
    62   1 H        0.926     0.031     2.568     2.506
    63   1 H        0.926     0.028     2.609     2.526
    64   1 H        0.926     0.046     2.371     2.408
    65   1 H        0.926     0.043     2.403     2.424

molecular dipole:
                 x           y           z       tot (Debye)
 q only:        2.453      -0.445      -0.214
   full:        2.865      -0.467      -0.224       7.400

 projected vibrational frequencies (cm⁻¹)
eigval :       -0.00    -0.00    -0.00     0.00     0.00     0.00
eigval :      -15.09    10.08    11.53    16.64    34.74    45.40
eigval :       57.63    62.62    64.79    75.79    99.31   106.56
eigval :      113.48   129.75   131.80   138.09   146.26   181.85
eigval :      204.80   207.04   214.37   233.74   250.05   256.49
eigval :      263.68   316.32   331.73   353.77   358.93   378.45
eigval :      386.69   389.81   395.34   397.18   412.45   429.71
eigval :      435.56   446.82   447.56   459.00   459.74   476.84
eigval :      511.48   531.71   533.71   535.73   543.33   559.92
eigval :      580.73   583.15   586.37   588.49   599.56   609.83
eigval :      621.84   626.45   642.55   648.76   668.36   681.04
eigval :      685.69   693.07   698.07   707.86   723.41   741.23
eigval :      761.29   771.77   772.79   778.91   779.50   798.02
eigval :      816.22   825.02   868.01   873.22   875.07   876.73
eigval :      878.55   883.57   888.31   897.93   899.79   904.57
eigval :      915.04   919.53   920.31   921.09   921.55   921.59
eigval :      924.15   929.97   931.90   932.04   932.48   932.83
eigval :      933.82   963.31   996.92  1017.89  1030.16  1069.90
eigval :     1077.27  1078.35  1079.15  1117.06  1118.48  1130.27
eigval :     1134.42  1136.68  1155.11  1176.72  1179.00  1179.53
eigval :     1181.13  1182.93  1184.23  1193.76  1200.47  1205.48
eigval :     1225.51  1234.54  1241.20  1244.10  1256.56  1262.25
eigval :     1263.42  1273.97  1279.07  1302.17  1303.97  1315.15
eigval :     1325.95  1341.68  1348.76  1357.66  1359.22  1377.99
eigval :     1383.77  1390.41  1416.92  1417.77  1428.31  1429.98
eigval :     1434.71  1445.53  1466.34  1479.88  1480.58  1488.31
eigval :     1495.25  1525.26  1532.31  1542.78  1545.06  1563.64
eigval :     1581.43  1582.75  1586.67  1593.28  1597.47  1607.20
eigval :     1613.35  1621.99  2361.33  3070.45  3070.54  3071.13
eigval :     3074.50  3075.21  3075.42  3075.50  3076.43  3077.44
eigval :     3080.06  3081.26  3081.47  3083.34  3083.67  3084.17
eigval :     3086.26  3089.46  3089.84  3089.97  3090.96  3091.42
eigval :     3092.26  3092.96  3096.38

   temp. (K)  partition function   enthalpy   heat capacity  entropy
                                   cal/mol     cal/K/mol   cal/K/mol   J/K/mol
 298.15  VIB  0.367E+15            18341.970    117.158    114.460
         ROT  0.539E+08              888.752      2.981     38.360
         INT  0.198E+23            19230.722    120.139    152.820
         TR   0.115E+29             1481.254      4.968     44.616
         TOT                       20711.9761   125.1070   197.4359   826.0718

       T/K    H(0)-H(T)+PV         H(T)/Eh          T*S/Eh         G(T)/Eh
   ------------------------------------------------------------------------
    298.15    0.330066E-01    0.526752E+00    0.938082E-01    0.432944E+00
   ------------------------------------------------------------------------

         :::::::::::::::::::::::::::::::::::::::::::::::::::::
         ::                  THERMODYNAMIC                  ::
         :::::::::::::::::::::::::::::::::::::::::::::::::::::
         :: total free energy        -101.204030312283 Eh   ::
         ::.................................................::
         :: total energy             -101.636974165872 Eh   ::
         :: zero point energy           0.493745379975 Eh   ::
         :: G(RRHO) w/o ZPVE           -0.060801526386 Eh   ::
         :: G(RRHO) contrib.            0.432943853589 Eh   ::
         :::::::::::::::::::::::::::::::::::::::::::::::::::::

           -------------------------------------------------
          | TOTAL ENERGY             -101.636974165872 Eh   |
          | TOTAL ENTHALPY           -101.110222151000 Eh   |
          | TOTAL FREE ENERGY        -101.204030312283 Eh   |
          | GRADIENT NORM               0.000096270380 Eh/α |
          | HOMO-LUMO GAP               2.187004643901 eV   |
           -------------------------------------------------

 * finished run on 2025/09/09 at 21:55:21.427
