   * xtb version 6.7.1 (edcfbbe) compiled by 'albert@albert-system' on 2024-07-22

   ID    Z sym.   atoms
    1    6 C      1-12, 14-19, 23-28, 30-41
    2    7 N      13, 29
    3   16 S      20
    4    8 O      21, 22
    5    1 H      42-65

          program call               : xtb data250606/gas/CzS2/CzS2_gas_S0_crest.xyz --gfn 2 --ohess vtight --parallel 14 --molden --ceasefiles --namespace data250606/gas/CzS2/CzS2_gas_S0_finalOpt
          :  Hamiltonian                  GFN2-xTB          :
 * total energy  :  -106.5885040 Eh     change       -0.2995080E-09 Eh
 * total energy  :  -106.5885045 Eh     change       -0.5511761E-06 Eh
 * total energy  :  -106.5885050 Eh     change       -0.4783367E-06 Eh
 * total energy  :  -106.5885056 Eh     change       -0.6007699E-06 Eh
 * total energy  :  -106.5885060 Eh     change       -0.4288845E-06 Eh
 * total energy  :  -106.5885063 Eh     change       -0.2367240E-06 Eh
 * total energy  :  -106.5885064 Eh     change       -0.8296992E-07 Eh
   *** GEOMETRY OPTIMIZATION CONVERGED AFTER 7 ITERATIONS ***

 final structure:
================
65
 xtb: 6.7.1 (edcfbbe)
C           -5.27052313651931        4.23785378570195        0.88929902862889
C           -4.05746423806123        3.69570715303337        1.30621577631853
C           -3.72108772530301        2.38308039118605        1.03290554711159
C           -4.63807363139384        1.61135280951045        0.33473866568999
C           -5.85824209164227        2.16154893498984       -0.11747199954427
C           -6.17454517237114        3.48277468462489        0.16901487069726
C           -6.53219363841125        1.12207897652424       -0.84561485708421
C           -7.75822440430888        1.05502200678272       -1.49396172791942
C           -8.12764562931070       -0.13546148724759       -2.08745575777731
C           -7.29970649147739       -1.25354837398223       -2.02414595354757
C           -6.07500716696266       -1.21051343617343       -1.38461626108307
C           -5.68626938532477       -0.00884723450494       -0.81138518923833
N           -4.54272505914272        0.29830895619076       -0.09314148160484
C           -3.48122372921539       -0.56929351190027        0.16522064312347
C           -2.91613053365388       -1.31391738039763       -0.87165221999488
C           -1.86843970560266       -2.17561836288759       -0.61003530817706
C           -1.38454092892336       -2.28995599228833        0.67954820844357
C           -1.93144759129859       -1.55697752631852        1.71592470401853
C           -2.98460669472546       -0.69947866772479        1.46341142994189
S            0.01660395238354       -3.36421232731756        1.00139450702150
O            0.02256585108026       -4.42162055112888        0.02602094244312
O            0.01970724166678       -3.70900875962212        2.39802797589046
C            1.40445134248262       -2.27432327503279        0.67397354438140
C            1.98223386188004       -2.26424289073723       -0.58130547863420
C            3.02161121522510       -1.39363159474837       -0.84721237805288
C            3.48384508497500       -0.53510187677374        0.15161446235540
C            2.89211990514999       -0.55949330558969        1.41597969652875
C            1.84812430459049       -1.42691937932525        1.67200195395295
N            4.53853629833086        0.33983217327395       -0.10993004725490
C            4.56653544211632        1.69002828412566        0.19395194344546
C            3.57858191791596        2.49392575307328        0.74310118039808
C            3.85864751633893        3.83714721624213        0.91101941562231
C            5.08589763499949        4.37707708491606        0.53473925138482
C            6.06232649752044        3.58715243739197       -0.03868580814813
C            5.80348369558640        2.23483249290540       -0.21746021683672
C            6.55844433814913        1.15372485189575       -0.78853352403959
C            7.83229893253226        1.06590059867948       -1.33407414082378
C            8.27698516750811       -0.16270419083466       -1.77987020235410
C            7.47565752148794       -1.29646488816409       -1.67004668567819
C            6.20452580900920       -1.23336435166854       -1.13065619727204
C            5.74184246891804        0.00381986805809       -0.70756742894774
H           -5.49797952911421        5.26643486010923        1.12576775653838
H           -3.36154207940904        4.31535392124654        1.85206275430156
H           -2.76866318847933        1.98037909226724        1.34322917968402
H           -7.10676030037917        3.90734692325279       -0.17105841957445
H           -8.40747937576178        1.91672859494086       -1.52519100054948
H           -9.07553460106337       -0.20889619966676       -2.59905666569938
H           -7.62304497233024       -2.17701383434671       -2.48091150957266
H           -5.45280335727158       -2.09033852239727       -1.32308611377362
H           -3.29329157084198       -1.19892682416976       -1.87623105266633
H           -1.42335357339148       -2.77278432625180       -1.39001034933860
H           -1.54293039381050       -1.69344676153874        2.71275472559562
H           -3.44446360282055       -0.14458102906463        2.26675373943059
H            1.61464373841325       -2.94863505012515       -1.32942894125057
H            3.47131242818057       -1.36038491268652       -1.82767602881582
H            3.27232462988743        0.08537605582352        2.19335705123014
H            1.38924116923142       -1.48110065673500        2.64646249260521
H            2.61565768324366        2.09128261716507        1.01929510042559
H            3.10659015697432        4.48261989827289        1.33995845472676
H            5.26753429243601        5.43059370619770        0.68554667754824
H            7.00676223542282        4.00810345774047       -0.34818891729278
H            8.45968906849484        1.94170179511001       -1.40045343560516
H            9.26315443289450       -0.25305271698096       -2.20989326705240
H            7.85690525284227       -2.24794119894080       -2.00960659598078
H            5.60228656385374       -2.12345379965998       -1.03037387139906

          :  Hamiltonian                  GFN2-xTB          :
         :: gradient norm              0.000046709943 Eh/a0 ::
         :: HOMO-LUMO gap              2.669492461658 eV    ::
         :: SCC energy              -108.462364908782 Eh    ::
         :: -> dispersion             -0.090288010194 Eh    ::
         :: repulsion energy           1.873858536720 Eh    ::

    * Orbital Energies and Occupations

         #    Occupation            Energy/Eh            Energy/eV
      -------------------------------------------------------------
         1        2.0000           -0.7705326             -20.9673
       ...           ...                  ...                  ...
        86        2.0000           -0.4289518             -11.6724
        87        2.0000           -0.4284634             -11.6591
        88        2.0000           -0.4256592             -11.5828
        89        2.0000           -0.4256275             -11.5819
        90        2.0000           -0.4250431             -11.5660
        91        2.0000           -0.4248960             -11.5620
        92        2.0000           -0.4131028             -11.2411
        93        2.0000           -0.4127774             -11.2322
        94        2.0000           -0.4066178             -11.0646
        95        2.0000           -0.3863250             -10.5124
        96        2.0000           -0.3862901             -10.5115
        97        2.0000           -0.3734877             -10.1631
        98        2.0000           -0.3724564             -10.1351 (HOMO)
        99                         -0.2743542              -7.4656 (LUMO)
       100                         -0.2586439              -7.0381
       101                         -0.2548752              -6.9355
       102                         -0.2535642              -6.8998
       103                         -0.2514062              -6.8411
       104                         -0.2494063              -6.7867
       105                         -0.2294560              -6.2438
       106                         -0.2294216              -6.2429
       107                         -0.2024982              -5.5103
       108                         -0.1999662              -5.4414
       109                         -0.1934106              -5.2630
       ...                                ...                  ...
       193                          1.2034705              32.7481
      -------------------------------------------------------------
                  HL-Gap            0.0981021 Eh            2.6695 eV

     #   Z          covCN         q      C6AA      α(0)
     1   6 C        2.920    -0.039    28.977     8.827
     2   6 C        2.924    -0.033    28.811     8.802
     3   6 C        2.910    -0.051    29.272     8.872
     4   6 C        3.071     0.045    26.910     8.506
     5   6 C        3.067    -0.015    28.305     8.724
     6   6 C        2.913    -0.032    28.793     8.799
     7   6 C        3.067    -0.015    28.312     8.725
     8   6 C        2.913    -0.032    28.795     8.799
     9   6 C        2.920    -0.039    28.970     8.826
    10   6 C        2.924    -0.032    28.795     8.800
    11   6 C        2.910    -0.051    29.259     8.870
    12   6 C        3.071     0.046    26.901     8.504
    13   7 N        2.802    -0.041    22.023     6.970
    14   6 C        2.913     0.072    26.388     8.423
    15   6 C        2.924    -0.040    29.001     8.831
    16   6 C        2.956    -0.027    28.670     8.782
    17   6 C        2.970    -0.081    30.022     8.988
    18   6 C        2.955    -0.027    28.668     8.782
    19   6 C        2.924    -0.040    28.994     8.830
    20  16 S        3.815     0.942   108.342    17.519
    21   8 O        0.860    -0.538    24.635     6.655
    22   8 O        0.860    -0.538    24.634     6.654
    23   6 C        2.970    -0.081    30.022     8.988
    24   6 C        2.955    -0.026    28.660     8.781
    25   6 C        2.924    -0.040    29.000     8.831
    26   6 C        2.913     0.072    26.388     8.423
    27   6 C        2.924    -0.040    28.993     8.830
    28   6 C        2.956    -0.027    28.677     8.783
    29   7 N        2.802    -0.041    22.023     6.970
    30   6 C        3.071     0.045    26.910     8.506
    31   6 C        2.910    -0.051    29.271     8.872
    32   6 C        2.924    -0.033    28.811     8.802
    33   6 C        2.920    -0.039    28.977     8.827
    34   6 C        2.913    -0.032    28.793     8.799
    35   6 C        3.067    -0.015    28.305     8.724
    36   6 C        3.067    -0.015    28.312     8.725
    37   6 C        2.913    -0.032    28.795     8.799
    38   6 C        2.920    -0.039    28.970     8.826
    39   6 C        2.924    -0.032    28.794     8.800
    40   6 C        2.910    -0.051    29.259     8.870
    41   6 C        3.071     0.046    26.901     8.504
    42   1 H        0.926     0.032     2.560     2.502
    43   1 H        0.926     0.032     2.559     2.502
    44   1 H        0.926     0.026     2.643     2.543
    45   1 H        0.926     0.035     2.520     2.483
    46   1 H        0.926     0.034     2.524     2.485
    47   1 H        0.926     0.032     2.555     2.500
    48   1 H        0.926     0.034     2.534     2.490
    49   1 H        0.926     0.030     2.583     2.513
    50   1 H        0.926     0.058     2.222     2.331
    51   1 H        0.926     0.062     2.180     2.309
    52   1 H        0.926     0.064     2.158     2.297
    53   1 H        0.926     0.058     2.216     2.328
    54   1 H        0.926     0.064     2.150     2.293
    55   1 H        0.926     0.058     2.219     2.330
    56   1 H        0.926     0.058     2.220     2.330
    57   1 H        0.926     0.061     2.190     2.314
    58   1 H        0.926     0.026     2.646     2.544
    59   1 H        0.926     0.032     2.560     2.502
    60   1 H        0.926     0.032     2.560     2.502
    61   1 H        0.926     0.035     2.520     2.482
    62   1 H        0.926     0.034     2.524     2.485
    63   1 H        0.926     0.032     2.555     2.500
    64   1 H        0.926     0.034     2.534     2.489
    65   1 H        0.926     0.030     2.582     2.513

molecular dipole:
                 x           y           z       tot (Debye)
 q only:       -0.009       2.082      -0.691
   full:       -0.010       1.927      -0.636       5.156

 projected vibrational frequencies (cm⁻¹)
eigval :       -0.00    -0.00     0.00     0.00     0.00     0.00
eigval :       -1.42     6.81     9.92    28.63    39.92    43.02
eigval :       46.69    72.49    78.87   100.27   101.79   110.06
eigval :      118.37   133.22   138.20   143.10   148.65   159.27
eigval :      183.25   235.84   241.67   242.89   249.24   271.67
eigval :      272.06   276.61   307.56   345.23   375.39   378.01
eigval :      379.08   380.76   391.20   395.53   397.03   402.08
eigval :      420.54   424.08   425.00   438.51   439.93   471.66
eigval :      490.59   517.87   517.99   525.51   533.20   534.63
eigval :      541.20   541.24   549.18   580.75   581.50   592.06
eigval :      593.25   610.82   612.70   648.29   658.36   673.86
eigval :      673.90   682.68   686.06   708.45   708.56   734.64
eigval :      745.00   758.04   759.38   770.28   770.66   781.73
eigval :      781.87   814.04   821.00   867.20   868.07   874.79
eigval :      875.34   881.71   884.71   897.70   897.88   903.32
eigval :      903.90   904.10   904.50   917.79   919.01   921.09
eigval :      921.88   925.28   926.20   929.54   929.71   931.63
eigval :      933.36  1004.24  1006.94  1012.08  1012.16  1071.19
eigval :     1071.24  1074.82  1074.92  1086.77  1107.94  1114.19
eigval :     1116.35  1120.00  1121.17  1133.15  1152.63  1152.89
eigval :     1168.70  1172.42  1176.93  1177.28  1180.83  1181.00
eigval :     1196.61  1197.81  1234.61  1234.88  1240.00  1244.32
eigval :     1244.54  1245.08  1253.53  1298.62  1299.03  1299.41
eigval :     1299.46  1322.18  1323.51  1356.21  1356.30  1359.57
eigval :     1359.71  1361.85  1364.14  1397.96  1399.70  1423.62
eigval :     1425.48  1427.42  1427.56  1474.24  1475.06  1475.14
eigval :     1477.06  1487.19  1487.24  1572.23  1573.33  1574.65
eigval :     1575.92  1578.28  1579.42  1589.58  1589.73  1599.44
eigval :     1599.57  1613.71  1613.98  3078.28  3078.42  3080.39
eigval :     3080.45  3083.68  3083.81  3085.47  3085.51  3090.38
eigval :     3090.58  3092.75  3092.82  3095.92  3096.43  3096.70
eigval :     3097.30  3098.20  3098.31  3099.79  3099.87  3107.12
eigval :     3107.69  3109.36  3109.63

   temp. (K)  partition function   enthalpy   heat capacity  entropy
                                   cal/mol     cal/K/mol   cal/K/mol   J/K/mol
 298.15  VIB  0.297E+16            18596.525    119.561    117.459
         ROT  0.685E+08              888.752      2.981     38.835
         INT  0.204E+24            19485.277    122.542    156.293
         TR   0.124E+29             1481.254      4.968     44.772
         TOT                       20966.5314   127.5104   201.0652   841.2570

       T/K    H(0)-H(T)+PV         H(T)/Eh          T*S/Eh         G(T)/Eh
   ------------------------------------------------------------------------
    298.15    0.334123E-01    0.522082E+00    0.955326E-01    0.426549E+00
   ------------------------------------------------------------------------

         :::::::::::::::::::::::::::::::::::::::::::::::::::::
         ::                  THERMODYNAMIC                  ::
         :::::::::::::::::::::::::::::::::::::::::::::::::::::
         :: total free energy        -106.161957293517 Eh   ::
         ::.................................................::
         :: total energy             -106.588506372063 Eh   ::
         :: zero point energy           0.488669371135 Eh   ::
         :: G(RRHO) w/o ZPVE           -0.062120292589 Eh   ::
         :: G(RRHO) contrib.            0.426549078546 Eh   ::
         :::::::::::::::::::::::::::::::::::::::::::::::::::::

           -------------------------------------------------
          | TOTAL ENERGY             -106.588506372063 Eh   |
          | TOTAL ENTHALPY           -106.066424706409 Eh   |
          | TOTAL FREE ENERGY        -106.161957293517 Eh   |
          | GRADIENT NORM               0.000046696806 Eh/α |
          | HOMO-LUMO GAP               2.669494292438 eV   |
           -------------------------------------------------

 * finished run on 2025/06/06 at 21:34:27.587
