   * xtb version 6.7.1 (edcfbbe) compiled by 'albert@albert-system' on 2024-07-22

   ID    Z sym.   atoms
    1    6 C      1-12, 14-19, 23-28, 30-41
    2    7 N      13, 29
    3   16 S      20
    4    8 O      21, 22
    5    1 H      42-65

          program call               : xtb data250606/gas/CzS2/CzS2.xyz --gfn 2 --ohess vtight --parallel 14 --molden --ceasefiles --namespace data250606/gas/CzS2/CzS2_gas_S0_preOpt
          :  Hamiltonian                  GFN2-xTB          :
 * total energy  :  -106.5713964 Eh     change       -0.1951491E-08 Eh
 * total energy  :  -106.5847965 Eh     change       -0.1340008E-01 Eh
 * total energy  :  -106.5874271 Eh     change       -0.2630612E-02 Eh
 * total energy  :  -106.5877645 Eh     change       -0.3373778E-03 Eh
 * total energy  :  -106.5879985 Eh     change       -0.2340631E-03 Eh
 * total energy  :  -106.5880939 Eh     change       -0.9533007E-04 Eh
 * total energy  :  -106.5881914 Eh     change       -0.9751886E-04 Eh
 * total energy  :  -106.5882687 Eh     change       -0.7732918E-04 Eh
 * total energy  :  -106.5883334 Eh     change       -0.6467089E-04 Eh
 * total energy  :  -106.5883796 Eh     change       -0.4623618E-04 Eh
 * total energy  :  -106.5884506 Eh     change       -0.1188064E-05 Eh
 * total energy  :  -106.5884516 Eh     change       -0.1027234E-05 Eh
 * total energy  :  -106.5884525 Eh     change       -0.9408381E-06 Eh
 * total energy  :  -106.5884535 Eh     change       -0.9872473E-06 Eh
 * total energy  :  -106.5884547 Eh     change       -0.1219773E-05 Eh
 * total energy  :  -106.5884563 Eh     change       -0.1577126E-05 Eh
 * total energy  :  -106.5884582 Eh     change       -0.1888642E-05 Eh
 * total energy  :  -106.5884603 Eh     change       -0.2095570E-05 Eh
 * total energy  :  -106.5884603 Eh     change       -0.5626262E-08 Eh
   *** GEOMETRY OPTIMIZATION CONVERGED AFTER 44 ITERATIONS ***

 final structure:
================
65
 xtb: 6.7.1 (edcfbbe)
C           -5.23453787149917        3.82688653869319       -1.64047875101316
C           -3.94849614402137        3.30055180816165       -1.73168696110953
C           -3.65653724564455        2.02527704259510       -1.28505633396815
C           -4.69178024365923        1.27417269416139       -0.74844467303561
C           -5.99314281223641        1.81066025896879       -0.62607617363549
C           -6.26262405044550        3.09429402700478       -1.08136839772404
C           -6.79402954866792        0.80336455138376        0.01329353736657
C           -8.13371967532133        0.73833056908608        0.37265669394015
C           -8.60496051347008       -0.41879660524924        0.95994761839855
C           -7.76259103556872       -1.50723307990848        1.17283527853633
C           -6.42573978753042       -1.46538721690417        0.82390083848560
C           -5.94048433583273       -0.29490527414485        0.25974583251163
N           -4.66980126343516        0.00116441536603       -0.20543496846736
C           -3.56526626857035       -0.84941489022743       -0.15181008150273
C           -2.78877894861575       -1.06345187401606       -1.29248013081717
C           -1.70588696823611       -1.91932302698192       -1.23896039915716
C           -1.40535402707440       -2.56578662157694       -0.05444247083681
C           -2.16130558549511       -2.36065803541489        1.08378890972535
C           -3.24092022339704       -1.49938726765450        1.03999707264042
S            0.00000763480892       -3.68127048070716        0.00000159493290
O            0.05320686762870       -4.41511461167248       -1.23645951749495
O           -0.05318795506863       -4.41511246787659        1.23646415795253
C            1.40536419854157       -2.56577991600951        0.05444392661826
C            2.16132469170230       -2.36066201830498       -1.08378340404077
C            3.24093657417353       -1.49938774104209       -1.03999216509235
C            3.56526953579512       -0.84939966562974        0.15180987929427
C            2.78877267771512       -1.06342503613159        1.29247552625091
C            1.70588469889531       -1.91930130229572        1.23895681991118
N            4.66980129536856        0.00118412789339        0.20543429299477
C            4.69177047417311        1.27419986928579        0.74842670758464
C            3.65651980099421        2.02530833728593        1.28501758197508
C            3.94847099750583        3.30058898218956        1.73163665143646
C            5.23451422042623        3.82692259969895        1.64044348780210
C            6.26260947993254        3.09432391673249        1.08135781687820
C            5.99313465952715        1.81068675168509        0.62607147456866
C            6.79402725117755        0.80339111774542       -0.01329106791732
C            8.13371900848505        0.73835998780589       -0.37264838722538
C            8.60497065220047       -0.41877561653263       -0.95991399662647
C            7.76260929292271       -1.50722128945360       -1.17278622894438
C            6.42575495273028       -1.46537613189685       -0.82386332410513
C            5.94048992280623       -0.29488795809227       -0.25972965156782
H           -5.42298554201061        4.82593541206797       -2.00385783851354
H           -3.15984245046270        3.90309281561494       -2.15737521640836
H           -2.65103459779856        1.63629051561509       -1.34257746933298
H           -7.25567159705943        3.50786748918888       -0.99315225703250
H           -8.78990745255690        1.57535007260361        0.18863168533317
H           -9.64267204732031       -0.48999929753150        1.24927752185134
H           -8.16301619863644       -2.40659552936422        1.61641627923058
H           -5.78897568279065       -2.32397269927856        0.97338164667202
H           -3.05819519797292       -0.57769880235738       -2.21776517829050
H           -1.10649904377331       -2.11901550724745       -2.11311881512641
H           -1.89654265371359       -2.89064839799429        1.98524800078136
H           -3.83147890148561       -1.31553846421053        1.92438653548027
H            1.89657031302659       -2.89066286889431       -1.98523882980259
H            3.83150163687791       -1.31554658719851       -1.92437900225763
H            3.05817977616353       -0.57766076711545        2.21775740641397
H            1.10649069321557       -2.11898596634171        2.11311284087246
H            2.65101976494404        1.63631570776495        1.34254339555163
H            3.15981369563257        3.90312881752424        2.15731987333093
H            5.42295389039673        4.82597886179901        2.00380648505950
H            7.25565208818142        3.50790644634247        0.99312869219217
H            8.78990631669546        1.57537740749576       -0.18861179753761
H            9.64268654214426       -0.48998070940115       -1.24922813781221
H            8.16303931093805       -2.40658477014800       -1.61636096323036
H            5.78899295363436       -2.32396264695299       -0.97334747294614

          :  Hamiltonian                  GFN2-xTB          :
         :: gradient norm              0.000058529638 Eh/a0 ::
         :: HOMO-LUMO gap              2.703007362408 eV    ::
         :: SCC energy              -108.461952129732 Eh    ::
         :: -> dispersion             -0.090226121396 Eh    ::
         :: repulsion energy           1.873491824308 Eh    ::

    * Orbital Energies and Occupations

         #    Occupation            Energy/Eh            Energy/eV
      -------------------------------------------------------------
         1        2.0000           -0.7702884             -20.9606
       ...           ...                  ...                  ...
        86        2.0000           -0.4288289             -11.6690
        87        2.0000           -0.4283666             -11.6564
        88        2.0000           -0.4254910             -11.5782
        89        2.0000           -0.4254542             -11.5772
        90        2.0000           -0.4248963             -11.5620
        91        2.0000           -0.4246608             -11.5556
        92        2.0000           -0.4129540             -11.2371
        93        2.0000           -0.4126211             -11.2280
        94        2.0000           -0.4067568             -11.0684
        95        2.0000           -0.3861395             -10.5074
        96        2.0000           -0.3861367             -10.5073
        97        2.0000           -0.3732941             -10.1578
        98        2.0000           -0.3723832             -10.1331 (HOMO)
        99                         -0.2730495              -7.4301 (LUMO)
       100                         -0.2597223              -7.0674
       101                         -0.2543781              -6.9220
       102                         -0.2537802              -6.9057
       103                         -0.2511986              -6.8355
       104                         -0.2495746              -6.7913
       105                         -0.2292738              -6.2389
       106                         -0.2292716              -6.2388
       107                         -0.2021759              -5.5015
       108                         -0.2001114              -5.4453
       109                         -0.1932262              -5.2580
       ...                                ...                  ...
       193                          1.2041468              32.7665
      -------------------------------------------------------------
                  HL-Gap            0.0993337 Eh            2.7030 eV

     #   Z          covCN         q      C6AA      α(0)
     1   6 C        2.920    -0.039    28.977     8.827
     2   6 C        2.924    -0.033    28.812     8.803
     3   6 C        2.910    -0.051    29.272     8.872
     4   6 C        3.070     0.045    26.909     8.506
     5   6 C        3.067    -0.015    28.305     8.724
     6   6 C        2.913    -0.032    28.794     8.799
     7   6 C        3.067    -0.015    28.311     8.725
     8   6 C        2.913    -0.032    28.795     8.799
     9   6 C        2.920    -0.039    28.969     8.826
    10   6 C        2.924    -0.032    28.793     8.800
    11   6 C        2.910    -0.051    29.258     8.870
    12   6 C        3.071     0.046    26.901     8.504
    13   7 N        2.802    -0.041    22.023     6.970
    14   6 C        2.912     0.072    26.385     8.423
    15   6 C        2.924    -0.040    28.987     8.829
    16   6 C        2.957    -0.027    28.676     8.783
    17   6 C        2.970    -0.080    30.001     8.984
    18   6 C        2.954    -0.026    28.643     8.778
    19   6 C        2.924    -0.040    28.999     8.831
    20  16 S        3.815     0.941   108.366    17.521
    21   8 O        0.860    -0.539    24.658     6.658
    22   8 O        0.860    -0.539    24.658     6.658
    23   6 C        2.970    -0.080    30.001     8.984
    24   6 C        2.954    -0.026    28.643     8.778
    25   6 C        2.924    -0.040    28.999     8.831
    26   6 C        2.912     0.072    26.385     8.423
    27   6 C        2.924    -0.040    28.987     8.829
    28   6 C        2.957    -0.027    28.676     8.783
    29   7 N        2.802    -0.041    22.023     6.970
    30   6 C        3.070     0.045    26.909     8.506
    31   6 C        2.910    -0.051    29.272     8.872
    32   6 C        2.924    -0.033    28.812     8.803
    33   6 C        2.920    -0.039    28.977     8.827
    34   6 C        2.913    -0.032    28.794     8.799
    35   6 C        3.067    -0.015    28.305     8.724
    36   6 C        3.067    -0.015    28.311     8.725
    37   6 C        2.913    -0.032    28.795     8.799
    38   6 C        2.920    -0.039    28.969     8.826
    39   6 C        2.924    -0.032    28.793     8.800
    40   6 C        2.910    -0.051    29.258     8.870
    41   6 C        3.071     0.046    26.901     8.504
    42   1 H        0.926     0.032     2.561     2.503
    43   1 H        0.926     0.032     2.561     2.502
    44   1 H        0.926     0.026     2.645     2.543
    45   1 H        0.926     0.035     2.520     2.483
    46   1 H        0.926     0.034     2.525     2.485
    47   1 H        0.926     0.032     2.555     2.500
    48   1 H        0.926     0.034     2.533     2.489
    49   1 H        0.926     0.030     2.581     2.512
    50   1 H        0.926     0.058     2.222     2.331
    51   1 H        0.926     0.057     2.233     2.337
    52   1 H        0.926     0.067     2.118     2.276
    53   1 H        0.926     0.059     2.215     2.327
    54   1 H        0.926     0.067     2.118     2.276
    55   1 H        0.926     0.059     2.215     2.327
    56   1 H        0.926     0.058     2.222     2.331
    57   1 H        0.926     0.057     2.233     2.337
    58   1 H        0.926     0.026     2.645     2.543
    59   1 H        0.926     0.032     2.561     2.502
    60   1 H        0.926     0.032     2.561     2.503
    61   1 H        0.926     0.035     2.520     2.483
    62   1 H        0.926     0.034     2.525     2.485
    63   1 H        0.926     0.032     2.555     2.500
    64   1 H        0.926     0.034     2.533     2.489
    65   1 H        0.926     0.030     2.581     2.512

molecular dipole:
                 x           y           z       tot (Debye)
 q only:        0.000       2.153      -0.000
   full:        0.000       2.000      -0.000       5.084

 projected vibrational frequencies (cm⁻¹)
eigval :       -0.00    -0.00    -0.00     0.00     0.00     0.00
eigval :        2.80     7.17     7.77    29.02    39.32    44.32
eigval :       45.31    73.87    75.83    99.22   101.98   106.52
eigval :      123.68   128.28   138.85   143.37   148.39   160.83
eigval :      186.89   234.96   237.24   245.45   246.96   271.76
eigval :      272.06   279.15   306.71   352.34   359.44   375.78
eigval :      377.02   388.89   390.85   395.56   395.84   406.66
eigval :      421.90   424.58   424.97   438.51   439.87   474.46
eigval :      489.15   517.86   518.04   525.37   533.35   534.68
eigval :      541.22   541.25   549.13   580.84   581.44   592.56
eigval :      592.83   611.15   612.33   647.86   659.33   673.89
eigval :      673.91   682.47   686.05   708.48   708.59   734.39
eigval :      745.39   757.99   759.50   770.58   770.65   781.90
eigval :      781.96   814.94   819.80   867.75   867.99   874.98
eigval :      875.16   882.82   884.28   897.76   897.81   903.44
eigval :      903.46   904.73   904.78   917.93   918.27   921.81
eigval :      922.21   925.20   926.24   928.48   929.87   933.31
eigval :      933.81  1004.20  1007.05  1012.08  1012.09  1071.22
eigval :     1071.23  1074.83  1074.94  1086.79  1108.47  1114.94
eigval :     1116.28  1119.58  1121.68  1131.81  1152.80  1152.82
eigval :     1168.99  1172.21  1177.09  1177.26  1180.88  1180.92
eigval :     1196.82  1197.57  1234.70  1234.80  1239.38  1244.36
eigval :     1244.43  1245.66  1252.78  1298.65  1298.69  1299.34
eigval :     1299.35  1322.36  1323.11  1356.22  1356.26  1359.49
eigval :     1359.50  1362.00  1364.06  1398.12  1399.34  1423.72
eigval :     1425.41  1427.44  1427.48  1474.26  1474.97  1475.23
eigval :     1476.93  1487.14  1487.14  1572.45  1573.19  1574.57
eigval :     1575.81  1578.45  1579.20  1589.55  1589.69  1599.45
eigval :     1599.49  1613.69  1613.92  3078.24  3078.29  3080.45
eigval :     3080.46  3083.61  3083.66  3085.50  3085.53  3090.35
eigval :     3090.45  3092.79  3092.82  3095.76  3096.07  3096.40
eigval :     3096.88  3098.16  3098.21  3099.80  3099.84  3106.46
eigval :     3106.71  3107.64  3107.74

   temp. (K)  partition function   enthalpy   heat capacity  entropy
                                   cal/mol     cal/K/mol   cal/K/mol   J/K/mol
 298.15  VIB  0.189E+16            18600.132    119.532    117.024
         ROT  0.345E+08              888.752      2.981     37.472
         INT  0.651E+23            19488.884    122.513    154.496
         TR   0.124E+29             1481.254      4.968     44.772
         TOT                       20970.1383   127.4810   199.2681   833.7377

       T/K    H(0)-H(T)+PV         H(T)/Eh          T*S/Eh         G(T)/Eh
   ------------------------------------------------------------------------
    298.15    0.334180E-01    0.522070E+00    0.946787E-01    0.427392E+00
   ------------------------------------------------------------------------

         :::::::::::::::::::::::::::::::::::::::::::::::::::::
         ::                  THERMODYNAMIC                  ::
         :::::::::::::::::::::::::::::::::::::::::::::::::::::
         :: total free energy        -106.161068639643 Eh   ::
         ::.................................................::
         :: total energy             -106.588460305424 Eh   ::
         :: zero point energy           0.488652329632 Eh   ::
         :: G(RRHO) w/o ZPVE           -0.061260663851 Eh   ::
         :: G(RRHO) contrib.            0.427391665781 Eh   ::
         :::::::::::::::::::::::::::::::::::::::::::::::::::::

           -------------------------------------------------
          | TOTAL ENERGY             -106.588460305424 Eh   |
          | TOTAL ENTHALPY           -106.066389933209 Eh   |
          | TOTAL FREE ENERGY        -106.161068639643 Eh   |
          | GRADIENT NORM               0.000058524601 Eh/α |
          | HOMO-LUMO GAP               2.703007751159 eV   |
           -------------------------------------------------

 * finished run on 2025/06/06 at 21:21:33.480
