   * xtb version 6.7.1 (edcfbbe) compiled by 'albert@albert-system' on 2024-07-22

   ID    Z sym.   atoms
    1    6 C      1-12, 14-19, 23-28, 30-41
    2    7 N      13, 29
    3   16 S      20
    4    8 O      21, 22
    5    1 H      42-65

          program call               : xtb data250606/gas/CzS2/CzS2_gas_T1_crest.xyz --gfn 2 --spinpol --tblite --uhf 2 --ohess vtight --parallel 14 --molden --ceasefiles --namespace data250606/gas/CzS2/CzS2_gas_T1_finalOpt
 * total energy  :  -106.4919255 Eh     change       -0.5269101E-08 Eh
 * total energy  :  -106.4919546 Eh     change       -0.2914520E-04 Eh
 * total energy  :  -106.4919703 Eh     change       -0.1569472E-04 Eh
 * total energy  :  -106.4919761 Eh     change       -0.5758586E-05 Eh
 * total energy  :  -106.4919810 Eh     change       -0.4942448E-05 Eh
 * total energy  :  -106.4919854 Eh     change       -0.4371243E-05 Eh
 * total energy  :  -106.4919904 Eh     change       -0.5074961E-05 Eh
 * total energy  :  -106.4919945 Eh     change       -0.4090284E-05 Eh
 * total energy  :  -106.4919958 Eh     change       -0.1220673E-05 Eh
 * total energy  :  -106.4919962 Eh     change       -0.4533235E-06 Eh
 * total energy  :  -106.4919983 Eh     change       -0.4952685E-06 Eh
 * total energy  :  -106.4919989 Eh     change       -0.5420118E-06 Eh
 * total energy  :  -106.4919993 Eh     change       -0.4653291E-06 Eh
 * total energy  :  -106.4919997 Eh     change       -0.3934585E-06 Eh
 * total energy  :  -106.4920001 Eh     change       -0.3439446E-06 Eh
 * total energy  :  -106.4920003 Eh     change       -0.2360990E-06 Eh
 * total energy  :  -106.4920006 Eh     change       -0.3305869E-06 Eh
 * total energy  :  -106.4920010 Eh     change       -0.3324272E-06 Eh
 * total energy  :  -106.4920010 Eh     change       -0.2945498E-07 Eh
   *** GEOMETRY OPTIMIZATION CONVERGED AFTER 22 ITERATIONS ***

 final structure:
================
65
 xtb: 6.7.1 (edcfbbe)
C            2.97235013868955        5.01312875626526       -0.51264194161739
C            1.60583473477628        5.27134533273752       -0.61333714549533
C            0.66590915196890        4.34521342214897       -0.19968755295705
C            1.12386756353240        3.13731400917103        0.31054274370779
C            2.51229289127375        2.88575458567014        0.45515470427383
C            3.43634788777978        3.82915406509957        0.03113492812536
C            2.63098371089855        1.59627338639131        1.07233653935693
C            3.71445907533383        0.81073270771299        1.43743510946060
C            3.47514934812399       -0.43845458922742        1.98053678431329
C            2.17654851752364       -0.91503245207867        2.13782394540551
C            1.08054241909197       -0.14626190189266        1.78419716744562
C            1.31130602451032        1.12076663650716        1.26902618082793
N            0.40948951921574        2.06398114043547        0.80440684204997
C           -0.96296618805923        1.87601909576422        0.72312770428251
C           -1.66077800127668        2.18065695504113       -0.46862366644800
C           -2.96999423658407        1.81730593686178       -0.60844714160696
C           -3.64583849448787        1.16133320221327        0.44179069047227
C           -2.98597589961492        0.97323432113591        1.67457491092547
C           -1.67235693011327        1.31975943240036        1.81188105025253
S           -4.92209000226599        0.01153048444117        0.00476175090520
O           -5.65327250208623        0.45145907815003       -1.15268101801272
O           -5.65301037695563       -0.42524200475440        1.16356355218455
C           -3.65164959229550       -1.14382100323112       -0.43458713402875
C           -2.99304304711881       -0.95848912461199       -1.66845550061380
C           -1.68128017091598       -1.31108429935956       -1.80810420136625
C           -0.97261895237404       -1.87091291802712       -0.72073137865195
C           -1.66975519837067       -2.17245457570288        0.47220258391022
C           -2.97701683136273       -1.80302387301211        0.61437869372361
N            0.39876527991588       -2.06554195629959       -0.80450799512476
C            1.30438502595188       -1.12671811228097       -1.27061332325054
C            1.07897235619256        0.14153771373824       -1.78513746307454
C            2.17812761326559        0.90489473377695       -2.14072538222924
C            3.47463181753821        0.42183403703692       -1.98595559889330
C            3.70873441217299       -0.82861377847304       -1.44347796307465
C            2.62205168602911       -1.60880834560968       -1.07647291878158
C            2.49810991419910       -2.89781532444680       -0.45932365429871
C            3.41825651699571       -3.84587873095919       -0.03722320397245
C            2.94939998813485       -5.02766991686827        0.50714163871920
C            1.58181155021247       -5.27912801763633        0.61030097468184
C            0.64572823010726       -4.34825213220432        0.19860101653665
C            1.10872551683793       -3.14250856818946       -0.31219464632921
H            3.67568748334156        5.75893600220076       -0.85116943820793
H            1.27473376257435        6.21644491783444       -1.01593215523485
H           -0.38845817886878        4.56704604178089       -0.25487288433980
H            4.49441818958594        3.64144438019945        0.13061624232082
H            4.72207449522998        1.16947054485444        1.29489871655163
H            4.30418522883824       -1.06498546506717        2.27234002420157
H            2.02110892458513       -1.90489816507125        2.53983167196898
H            0.07847728314695       -0.53134647660715        1.88923376195939
H           -1.12961208101821        2.64054931828494       -1.28826479299727
H           -3.50932264064527        1.99218141987245       -1.52556198302285
H           -3.54725050762877        0.54643994007781        2.49035371361359
H           -1.16536812062675        1.20300089209565        2.75810479730922
H           -3.55373944193961       -0.52894501527095       -2.48318822559171
H           -1.17538654339292       -1.19642300643970       -2.75517166567508
H           -1.13931349100771       -2.63500177421746        1.29081935448719
H           -3.51554706744129       -1.97550944194374        1.53241755936665
H            0.07864212065877        0.53162458201478       -1.88824327643538
H            2.02685895156359        1.89557475382155       -2.54231619350257
H            4.30622888192599        1.04425913451072       -2.27925261234488
H            4.71481876779885       -1.19239213551703       -1.30290096235665
H            4.47706112645507       -3.66339637905324       -0.13860729990588
H            3.64965525214331       -5.77703033303120        0.84420769589275
H            1.24676755868991       -6.22267215906287        1.01328330129661
H           -0.40962124426398       -4.56487373510073        0.25567158291297

 projected vibrational frequencies (cm⁻¹)
eigval :       -0.00    -0.00     0.00     0.00     0.00     0.00
eigval :       18.40    24.68    39.94    42.40    52.76    63.79
eigval :       81.54    86.50    89.05   107.74   108.14   123.07
eigval :      135.48   138.24   148.47   158.42   170.88   175.44
eigval :      186.64   235.37   236.08   241.42   255.08   271.29
eigval :      275.80   275.84   286.67   314.88   362.80   372.72
eigval :      375.94   385.65   385.82   392.48   395.86   400.40
eigval :      413.51   419.31   420.28   425.82   432.71   439.22
eigval :      440.63   511.88   513.49   515.97   521.87   531.23
eigval :      531.70   545.39   547.41   567.96   574.75   583.43
eigval :      584.94   602.37   606.07   624.80   628.11   653.69
eigval :      660.79   668.14   670.06   702.77   703.39   708.63
eigval :      724.61   754.39   755.52   763.89   768.40   774.63
eigval :      774.72   777.48   800.52   834.23   835.46   866.80
eigval :      869.72   870.53   870.79   891.83   892.66   894.78
eigval :      897.21   900.27   901.13   904.78   907.31   910.36
eigval :      910.46   912.89   913.17   919.64   921.08   923.95
eigval :      924.48   961.58   973.89  1000.71  1008.68  1009.08
eigval :     1026.57  1066.52  1066.79  1071.43  1073.66  1104.69
eigval :     1108.57  1113.53  1119.00  1122.57  1139.52  1140.44
eigval :     1152.57  1170.36  1173.12  1175.32  1175.40  1176.89
eigval :     1196.63  1198.85  1223.94  1224.70  1226.68  1228.05
eigval :     1236.38  1239.90  1245.04  1271.62  1273.86  1285.40
eigval :     1291.87  1316.95  1327.34  1330.65  1333.93  1334.64
eigval :     1340.53  1356.40  1368.64  1370.33  1393.20  1399.18
eigval :     1399.30  1406.10  1406.41  1417.43  1435.75  1443.46
eigval :     1447.77  1459.32  1460.04  1468.92  1480.28  1480.37
eigval :     1532.35  1551.02  1553.21  1562.11  1569.49  1570.26
eigval :     1574.38  1581.51  1584.18  3081.99  3082.19  3083.97
eigval :     3084.00  3084.21  3084.35  3085.17  3085.20  3089.71
eigval :     3090.17  3091.06  3091.58  3096.96  3097.25  3098.39
eigval :     3100.91  3102.78  3103.10  3103.54  3103.73  3104.03
eigval :     3104.20  3107.98  3107.99

   temp. (K)  partition function   enthalpy   heat capacity  entropy
                                   cal/mol     cal/K/mol   cal/K/mol   J/K/mol
 298.15  VIB  0.250E+13            18536.481    123.406    111.679
         ROT  0.161E+08              888.752      2.981     35.964
         INT  0.404E+20            19425.233    126.387    147.642
         TR   0.124E+29             1481.254      4.968     44.772
         TOT                       20906.4869   131.3550   192.4141   805.0606

       T/K    H(0)-H(T)+PV         H(T)/Eh          T*S/Eh         G(T)/Eh
   ------------------------------------------------------------------------
    298.15    0.333166E-01    0.517490E+00    0.914221E-01    0.426068E+00
   ------------------------------------------------------------------------

         :::::::::::::::::::::::::::::::::::::::::::::::::::::
         ::                  THERMODYNAMIC                  ::
         :::::::::::::::::::::::::::::::::::::::::::::::::::::
         :: total free energy        -106.065933451229 Eh   ::
         ::.................................................::
         :: total energy             -106.492001003535 Eh   ::
         :: zero point energy           0.484173093529 Eh   ::
         :: G(RRHO) w/o ZPVE           -0.058105541223 Eh   ::
         :: G(RRHO) contrib.            0.426067552306 Eh   ::
         :::::::::::::::::::::::::::::::::::::::::::::::::::::

           -------------------------------------------------
          | TOTAL ENERGY             -106.492001003535 Eh   |
          | TOTAL ENTHALPY           -105.974511302399 Eh   |
          | TOTAL FREE ENERGY        -106.065933451229 Eh   |
          | GRADIENT NORM               0.000078110322 Eh/α |
           -------------------------------------------------

 * finished run on 2025/06/06 at 21:39:38.384
