   * xtb version 6.7.1 (edcfbbe) compiled by 'albert@albert-system' on 2024-07-22

   ID    Z sym.   atoms
    1    6 C      1-12, 14-19, 23-28, 30-41
    2    7 N      13, 29
    3   16 S      20
    4    8 O      21, 22
    5    1 H      42-65

          program call               : xtb data250606/gas/CzS2/CzS2_gas_S0_finalOpt.xtbopt.xyz --gfn 2 --spinpol --tblite --uhf 2 --ohess vtight --parallel 14 --molden --ceasefiles --namespace data250606/gas/CzS2/CzS2_gas_T1_preOpt
 * total energy  :  -106.4808069 Eh     change        0.7053580E-07 Eh
 * total energy  :  -106.4825245 Eh     change       -0.1717599E-02 Eh
 * total energy  :  -106.4829571 Eh     change       -0.4325200E-03 Eh
 * total energy  :  -106.4830346 Eh     change       -0.7749176E-04 Eh
 * total energy  :  -106.4830867 Eh     change       -0.5209947E-04 Eh
 * total energy  :  -106.4831133 Eh     change       -0.2666729E-04 Eh
 * total energy  :  -106.4831441 Eh     change       -0.3079537E-04 Eh
 * total energy  :  -106.4831743 Eh     change       -0.3022311E-04 Eh
 * total energy  :  -106.4831974 Eh     change       -0.2302978E-04 Eh
 * total energy  :  -106.4832209 Eh     change       -0.2351186E-04 Eh
 * total energy  :  -106.4835302 Eh     change       -0.2193602E-05 Eh
 * total energy  :  -106.4835317 Eh     change       -0.1428245E-05 Eh
 * total energy  :  -106.4835328 Eh     change       -0.1114208E-05 Eh
 * total energy  :  -106.4835339 Eh     change       -0.1098645E-05 Eh
 * total energy  :  -106.4835351 Eh     change       -0.1195478E-05 Eh
 * total energy  :  -106.4835362 Eh     change       -0.1119019E-05 Eh
 * total energy  :  -106.4835373 Eh     change       -0.1153167E-05 Eh
 * total energy  :  -106.4835382 Eh     change       -0.8960817E-06 Eh
 * total energy  :  -106.4835383 Eh     change       -0.2006908E-07 Eh
   *** GEOMETRY OPTIMIZATION CONVERGED AFTER 68 ITERATIONS ***

 final structure:
================
65
 xtb: 6.7.1 (edcfbbe)
C           -4.85908243976263        4.34790471225270        0.42809826334184
C           -3.65986852430461        3.80077083938841        0.88182836385332
C           -3.39016079574541        2.44860861589130        0.74412260015144
C           -4.35579062025648        1.65170570248752        0.14704687764045
C           -5.56401493497828        2.20813567857755       -0.35268404161500
C           -5.81412739542843        3.56506959677337       -0.19707717500243
C           -6.28781892496407        1.13073605791201       -0.96069631760118
C           -7.51825563819397        1.04170206772191       -1.59788668917655
C           -7.94544450512756       -0.19695905493650       -2.04479078641907
C           -7.17330799023395       -1.34081429576685       -1.85041466209303
C           -5.93957422739851       -1.27658036701120       -1.22263003408901
C           -5.49084949777275       -0.03425368132083       -0.79933965303458
N           -4.32855092135542        0.29890624667799       -0.12966012109657
C           -3.31404633018254       -0.58264070903690        0.22506188112321
C           -2.81306168564516       -1.50556597810614       -0.71600208045161
C           -1.82429602882839       -2.38364185578692       -0.35625032333955
C           -1.33333827167924       -2.38853737888436        0.95314452890616
C           -1.80927390821074       -1.46294006713910        1.88852616756011
C           -2.78724999984832       -0.57174986216552        1.53334470131689
S            0.01548103126066       -3.45086683876243        1.38463805677285
O            0.02749615190930       -4.59067305422583        0.50260160504792
O            0.01015579271452       -3.67326434590710        2.80863909864110
C            1.35353489012093       -2.37023301280786        0.96563726597283
C            1.85802481679993       -2.36084810825270       -0.33868319118255
C            2.83860748427028       -1.47034568624557       -0.68971510248873
C            3.31779440829275       -0.53922112019210        0.25489352984013
C            2.77680175176316       -0.53292354801297        1.55755213069622
C            1.80704509505953       -1.43634592471404        1.90407425878514
N            4.32503951884286        0.35380664798223       -0.09106462989250
C            4.33447196165336        1.70730727705183        0.18376506413380
C            3.35557473691244        2.49401321335803        0.77268207541527
C            3.60915088208991        3.84926458424310        0.91116028681169
C            4.80549978421900        4.40940940607073        0.46576227847239
C            5.77371063890231        3.63677173740212       -0.15178560666517
C            5.54000940213797        2.27694714185683       -0.30778822911906
C            6.28081319518606        1.20724141162424       -0.90866797485973
C            7.51681901164317        1.13166960044244       -1.53679917676277
C            7.96226111505936       -0.10275756184794       -1.97755084081479
C            7.20282472571553       -1.25550703632865       -1.78566296467176
C            5.96368277229084       -1.20469789762134       -1.16732528183512
C            5.49652997677134        0.03314752787233       -0.75092575778159
H           -5.03739620452491        5.40493500128967        0.55725977466801
H           -2.92555090221579        4.44252768267344        1.34381555998070
H           -2.45070046661896        2.03468355561730        1.07662401014312
H           -6.73285535441697        3.99795498309965       -0.56190942290995
H           -8.12947174048663        1.92068637146198       -1.73380432417044
H           -8.90002704985470       -0.28430372814626       -2.54169346959609
H           -7.54482697705122       -2.29562786632912       -2.18890330511866
H           -5.35837885031996       -2.16969209320235       -1.05383583069878
H           -3.19121920965069       -1.48350686045541       -1.72694853577320
H           -1.42328289032311       -3.09946599392553       -1.05579746648847
H           -1.41979827372761       -1.50532037961829        2.89291157385402
H           -3.20630637180173        0.10675335825043        2.26113825220598
H            1.47390843880435       -3.08322151366681       -1.04097116939044
H            3.22673740043544       -1.44478586001079       -1.69678462559415
H            3.17920936853780        0.15215307167372        2.28855853686005
H            1.40754464485138       -1.48192944167612        2.90437510764678
H            2.41825599695000        2.07012850093492        1.09858171249034
H            2.86435376994940        4.48315245907855        1.36719047593222
H            4.97108144925857        5.46846286198137        0.59533766424731
H            6.69019369134435        4.07953970515895       -0.51035582066879
H            8.11824377804697        2.01769992480890       -1.67053287799993
H            8.92137782963233       -0.17965673329580       -2.46737902722216
H            7.58858174962733       -2.20661555441014       -2.11856088827287
H            5.39238510400429       -2.10447857366072       -1.00022916275369

 projected vibrational frequencies (cm⁻¹)
eigval :       -0.00    -0.00    -0.00     0.00     0.00     0.00
eigval :        5.72     6.11    12.60    28.22    42.01    42.47
eigval :       47.16    69.74    85.95    99.67   100.68   111.22
eigval :      119.64   132.93   136.21   139.54   143.44   155.65
eigval :      173.61   232.53   237.61   239.00   246.18   260.22
eigval :      268.22   271.24   303.41   313.28   361.02   369.37
eigval :      377.20   379.53   380.49   386.87   396.36   397.14
eigval :      414.00   415.00   417.07   428.18   435.95   438.48
eigval :      443.12   495.43   508.79   508.91   513.26   524.00
eigval :      524.17   543.53   543.72   571.31   572.14   583.01
eigval :      583.31   606.17   607.49   639.20   639.67   644.58
eigval :      650.79   664.35   664.48   697.56   698.83   709.34
eigval :      726.39   752.81   753.35   761.30   761.79   766.57
eigval :      767.20   793.39   796.81   814.54   846.70   859.78
eigval :      860.59   860.76   864.42   890.64   892.43   893.26
eigval :      893.91   894.35   896.60   905.50   906.70   907.06
eigval :      907.72   908.40   909.07   911.94   912.38   914.27
eigval :      917.08   942.87   977.82   997.20  1004.85  1004.97
eigval :     1049.69  1062.75  1063.53  1063.88  1069.05  1100.36
eigval :     1103.03  1110.14  1113.97  1120.67  1124.48  1125.05
eigval :     1131.86  1169.77  1171.08  1171.20  1171.48  1174.11
eigval :     1188.64  1197.08  1211.06  1217.60  1218.27  1228.90
eigval :     1233.82  1236.55  1238.48  1261.89  1262.62  1270.45
eigval :     1288.65  1312.76  1313.15  1325.55  1327.86  1328.96
eigval :     1333.30  1367.59  1371.94  1389.04  1392.16  1393.77
eigval :     1395.72  1397.49  1406.56  1412.10  1422.90  1423.87
eigval :     1435.17  1451.80  1451.94  1465.68  1474.43  1474.62
eigval :     1495.28  1525.17  1525.59  1529.96  1558.49  1558.75
eigval :     1562.48  1563.44  1581.13  3083.05  3083.15  3083.83
eigval :     3084.03  3085.30  3085.60  3087.08  3087.38  3089.13
eigval :     3089.43  3091.73  3091.94  3095.34  3095.56  3097.40
eigval :     3097.55  3101.98  3102.27  3104.34  3104.40  3106.05
eigval :     3107.48  3108.75  3110.46

   temp. (K)  partition function   enthalpy   heat capacity  entropy
                                   cal/mol     cal/K/mol   cal/K/mol   J/K/mol
 298.15  VIB  0.999E+15            18993.120    122.386    118.216
         ROT  0.658E+08              888.752      2.981     38.755
         INT  0.657E+23            19881.873    125.367    156.971
         TR   0.124E+29             1481.254      4.968     44.772
         TOT                       21363.1268   130.3347   201.7430   844.0927

       T/K    H(0)-H(T)+PV         H(T)/Eh          T*S/Eh         G(T)/Eh
   ------------------------------------------------------------------------
    298.15    0.340443E-01    0.515935E+00    0.958546E-01    0.420080E+00
   ------------------------------------------------------------------------

         :::::::::::::::::::::::::::::::::::::::::::::::::::::
         ::                  THERMODYNAMIC                  ::
         :::::::::::::::::::::::::::::::::::::::::::::::::::::
         :: total free energy        -106.063458169157 Eh   ::
         ::.................................................::
         :: total energy             -106.483538303910 Eh   ::
         :: zero point energy           0.481890430935 Eh   ::
         :: G(RRHO) w/o ZPVE           -0.061810296183 Eh   ::
         :: G(RRHO) contrib.            0.420080134753 Eh   ::
         :::::::::::::::::::::::::::::::::::::::::::::::::::::

           -------------------------------------------------
          | TOTAL ENERGY             -106.483538303910 Eh   |
          | TOTAL ENTHALPY           -105.967603563468 Eh   |
          | TOTAL FREE ENERGY        -106.063458169157 Eh   |
          | GRADIENT NORM               0.000112714719 Eh/α |
           -------------------------------------------------

 * finished run on 2025/06/06 at 21:34:40.518
