   * xtb version 6.7.1 (edcfbbe) compiled by 'albert@albert-system' on 2024-07-22

   ID    Z sym.   atoms
    1    6 C      1-6, 8-13, 15-18, 22, 23
    2    8 O      7
    3    7 N      14, 19, 21
    4   16 S      20
    5    1 H      24-34

          program call               : xtb data2507/toluene/BTD-PXZ/BTD-PXZ_toluene_S0_crest.xyz --gfn 2 --gbsa toluene --ohess vtight --parallel 40 --molden --ceasefiles --namespace data2507/toluene/BTD-PXZ/BTD-PXZ_toluene_S0_finalOpt
      * Solvation model:               GBSA
        Solvent                        toluene
        Solvent mass                       9.2140E+01 g/mol
          :  Hamiltonian                  GFN2-xTB          :
 * total energy  :   -60.2800592 Eh     change       -0.1163905E-08 Eh
 * total energy  :   -60.2800801 Eh     change       -0.2083099E-04 Eh
 * total energy  :   -60.2800866 Eh     change       -0.6541164E-05 Eh
 * total energy  :   -60.2800885 Eh     change       -0.1864842E-05 Eh
 * total energy  :   -60.2800901 Eh     change       -0.1620675E-05 Eh
 * total energy  :   -60.2800917 Eh     change       -0.1578567E-05 Eh
 * total energy  :   -60.2800935 Eh     change       -0.1864886E-05 Eh
 * total energy  :   -60.2800949 Eh     change       -0.1353794E-05 Eh
 * total energy  :   -60.2800952 Eh     change       -0.3677136E-06 Eh
 * total energy  :   -60.2800954 Eh     change       -0.1086520E-06 Eh
 * total energy  :   -60.2800954 Eh     change       -0.5408679E-07 Eh
   *** GEOMETRY OPTIMIZATION CONVERGED AFTER 11 ITERATIONS ***

 final structure:
================
34
 xtb: 6.7.1 (edcfbbe)
C           -2.71893771601035       -3.73800030369081       -0.12486597539264
C           -1.34843925629264       -3.64580627324753       -0.26370239063906
C           -0.72275176132694       -2.40847583823934       -0.24600825242816
C           -1.45554605317697       -1.23948034616052       -0.08015451033972
C           -2.84927909575072       -1.34327028014913        0.02736928685826
C           -3.46907700522631       -2.57970154847313        0.01289546578451
O           -3.66794817533301       -0.24362772492655        0.13183470473800
C           -3.06739241930926        0.99214058007832        0.16085532817041
C           -3.89799134752514        2.08912322152935        0.30017967274849
C           -3.36378910515022        3.36772337401030        0.36507502411105
C           -1.99454593684027        3.53601046931868        0.31122809860880
C           -1.15797922692055        2.43860865245664        0.17344463933508
C           -1.67854380744115        1.15382104066554        0.07027801050483
N           -0.86129794619868        0.02773113048274       -0.07042495769217
C            0.53087180756848        0.18261920605671       -0.22610367046278
C            1.00587245773857        0.88817765082298       -1.36405428694153
C            2.33765714682545        1.06830828980911       -1.59785842215759
C            3.25346929069385        0.53450548698922       -0.67255818506337
N            4.58455269663894        0.59883991522848       -0.70712936900993
S            5.16962109796143       -0.16659997235885        0.58187768143971
N            3.77720692843900       -0.62197945198997        1.24825954915301
C            2.77543453439305       -0.18532300950846        0.48030662260112
C            1.39979559672418       -0.35062463109261        0.69638499677096
H           -3.21069032014423       -4.69785527499004       -0.13241595662966
H           -0.75080697463516       -4.53540694557646       -0.38994758019021
H            0.34711922116723       -2.35378843971142       -0.37039430473954
H           -4.54342328723080       -2.61150352452398        0.10443492751063
H           -4.96159235667962        1.91948756609108        0.35908947479961
H           -4.01961852051948        4.21751282045970        0.46958214211903
H           -1.56183456041629        4.52199765770252        0.38196271365916
H           -0.08926092510955        2.58339863128500        0.15224879412947
H            0.27642288463167        1.27168338737349       -2.06196267920491
H            2.69880829217798        1.59457740783747       -2.46668115948797
H            1.04873915217755       -0.88354198915844        1.56577840943713

          :  Hamiltonian                  GFN2-xTB          :
         :: gradient norm              0.000115861244 Eh/a0 ::
         :: HOMO-LUMO gap              0.975804944612 eV    ::
         :: SCC energy               -61.226935546543 Eh    ::
         :: -> dispersion             -0.045439111833 Eh    ::
         :: -> Gsolv                  -0.025071605540 Eh    ::
         :: repulsion energy           0.946840133721 Eh    ::

    * Orbital Energies and Occupations

         #    Occupation            Energy/Eh            Energy/eV
      -------------------------------------------------------------
         1        2.0000           -0.7679522             -20.8970
       ...           ...                  ...                  ...
        43        2.0000           -0.4557519             -12.4016
        44        2.0000           -0.4534415             -12.3388
        45        2.0000           -0.4409827             -11.9997
        46        2.0000           -0.4393899             -11.9564
        47        2.0000           -0.4312129             -11.7339
        48        2.0000           -0.4203426             -11.4381
        49        2.0000           -0.4202998             -11.4369
        50        2.0000           -0.4200044             -11.4289
        51        2.0000           -0.4176744             -11.3655
        52        2.0000           -0.4173220             -11.3559
        53        2.0000           -0.4102303             -11.1629
        54        2.0000           -0.3951036             -10.7513
        55        2.0000           -0.3495078              -9.5106 (HOMO)
        56                         -0.3136476              -8.5348 (LUMO)
        57                         -0.2432126              -6.6182
        58                         -0.2373581              -6.4588
        59                         -0.2346610              -6.3855
        60                         -0.2279921              -6.2040
        61                         -0.2213298              -6.0227
        62                         -0.2180661              -5.9339
        63                         -0.2000155              -5.4427
        64                         -0.1447475              -3.9388
        65                         -0.1162387              -3.1630
        66                         -0.1074935              -2.9250
       ...                                ...                  ...
       108                          0.7165626              19.4987
      -------------------------------------------------------------
                  HL-Gap            0.0358602 Eh            0.9758 eV

     #   Z          covCN         q      C6AA      α(0)
     1   6 C        2.919    -0.040    28.982     8.828
     2   6 C        2.919    -0.038    28.947     8.823
     3   6 C        2.924    -0.060    29.481     8.904
     4   6 C        2.920     0.042    27.066     8.531
     5   6 C        2.883     0.123    25.292     8.245
     6   6 C        2.920    -0.057    29.414     8.894
     7   8 O        1.708    -0.267    18.431     5.796
     8   6 C        2.883     0.123    25.289     8.244
     9   6 C        2.919    -0.057    29.419     8.895
    10   6 C        2.919    -0.039    28.978     8.827
    11   6 C        2.919    -0.038    28.955     8.824
    12   6 C        2.924    -0.059    29.474     8.903
    13   6 C        2.922     0.042    27.062     8.531
    14   7 N        2.751    -0.069    22.582     7.058
    15   6 C        2.920     0.066    26.511     8.444
    16   6 C        2.922    -0.039    28.968     8.826
    17   6 C        2.905    -0.042    29.044     8.837
    18   6 C        3.349     0.073    23.778     7.688
    19   7 N        1.852    -0.274    27.961     7.837
    20  16 S        2.680     0.344   127.798    19.027
    21   7 N        1.852    -0.280    28.105     7.857
    22   6 C        3.346     0.076    23.784     7.696
    23   6 C        2.910    -0.058    29.453     8.899
    24   1 H        0.926     0.045     2.377     2.411
    25   1 H        0.926     0.043     2.403     2.424
    26   1 H        0.926     0.037     2.489     2.467
    27   1 H        0.926     0.051     2.304     2.374
    28   1 H        0.926     0.051     2.308     2.376
    29   1 H        0.926     0.045     2.378     2.412
    30   1 H        0.926     0.044     2.399     2.422
    31   1 H        0.926     0.038     2.474     2.460
    32   1 H        0.926     0.057     2.230     2.335
    33   1 H        0.926     0.059     2.207     2.323
    34   1 H        0.926     0.056     2.249     2.345

molecular dipole:
                 x           y           z       tot (Debye)
 q only:        0.264       0.121      -0.155
   full:        0.041       0.165      -0.256       0.781

 projected vibrational frequencies (cm⁻¹)
eigval :       -0.00    -0.00    -0.00    -0.00     0.00     0.00
eigval :       32.24    37.56    50.56    59.16   113.02   152.92
eigval :      166.69   185.71   218.32   249.61   262.63   288.39
eigval :      322.63   345.36   391.86   393.83   411.64   426.66
eigval :      429.28   445.86   503.07   508.49   510.42   518.37
eigval :      525.88   576.51   583.46   630.95   637.71   653.09
eigval :      660.95   664.59   689.11   725.25   777.42   777.77
eigval :      789.55   817.71   834.39   845.25   853.61   861.62
eigval :      865.32   870.83   878.39   895.97   897.58   899.55
eigval :      912.67   914.87   915.51   921.96   983.66  1089.35
eigval :     1090.71  1105.90  1107.67  1144.24  1161.27  1172.38
eigval :     1181.29  1195.66  1198.63  1216.77  1241.99  1259.43
eigval :     1266.34  1293.89  1304.28  1322.67  1328.23  1337.08
eigval :     1350.69  1419.45  1431.38  1441.22  1477.60  1486.04
eigval :     1500.72  1518.22  1566.24  1577.72  1584.38  1589.28
eigval :     1600.17  3089.23  3089.28  3091.38  3097.08  3098.41
eigval :     3103.87  3104.48  3106.21  3108.62  3109.95  3110.71

   temp. (K)  partition function   enthalpy   heat capacity  entropy
                                   cal/mol     cal/K/mol   cal/K/mol   J/K/mol
 298.15  VIB  0.557E+06             8939.602     61.654     52.630
         ROT  0.934E+07              888.752      2.981     34.876
         INT  0.520E+13             9828.354     64.635     87.506
         TR   0.547E+28             1481.254      4.968     43.141
         TOT                       11309.6079    69.6032   130.6469   546.6268

       T/K    H(0)-H(T)+PV         H(T)/Eh          T*S/Eh         G(T)/Eh
   ------------------------------------------------------------------------
    298.15    0.180230E-01    0.260774E+00    0.620746E-01    0.198700E+00
   ------------------------------------------------------------------------

         :::::::::::::::::::::::::::::::::::::::::::::::::::::
         ::                  THERMODYNAMIC                  ::
         :::::::::::::::::::::::::::::::::::::::::::::::::::::
         :: total free energy         -60.081395671820 Eh   ::
         ::.................................................::
         :: total energy              -60.280095414865 Eh   ::
         :: zero point energy           0.242751312615 Eh   ::
         :: G(RRHO) w/o ZPVE           -0.044051569570 Eh   ::
         :: G(RRHO) contrib.            0.198699743046 Eh   ::
         :::::::::::::::::::::::::::::::::::::::::::::::::::::

           -------------------------------------------------
          | TOTAL ENERGY              -60.280095414865 Eh   |
          | TOTAL ENTHALPY            -60.019321094790 Eh   |
          | TOTAL FREE ENERGY         -60.081395671820 Eh   |
          | GRADIENT NORM               0.000115916399 Eh/α |
          | HOMO-LUMO GAP               0.975805485508 eV   |
           -------------------------------------------------

 * finished run on 2025/08/23 at 06:44:23.470
