   * xtb version 6.7.1 (edcfbbe) compiled by 'albert@albert-system' on 2024-07-22

   ID    Z sym.   atoms
    1    6 C      1-6, 8-13, 15-18, 22, 23
    2    8 O      7
    3    7 N      14, 19, 21
    4   16 S      20
    5    1 H      24-34

          program call               : xtb data2507/toluene/BTD-PXZ/BTD-PXZ_toluene_T1_crest.xyz --gfn 2 --uhf 2 --gbsa toluene --ohess vtight --parallel 40 --molden --ceasefiles --namespace data2507/toluene/BTD-PXZ/BTD-PXZ_toluene_T1_finalOpt
      * Solvation model:               GBSA
        Solvent                        toluene
        Solvent mass                       9.2140E+01 g/mol
          :  Hamiltonian                  GFN2-xTB          :
 * total energy  :   -60.2153549 Eh     change       -0.6488165E-08 Eh
 * total energy  :   -60.2154316 Eh     change       -0.7671402E-04 Eh
 * total energy  :   -60.2154696 Eh     change       -0.3796148E-04 Eh
 * total energy  :   -60.2154789 Eh     change       -0.9284451E-05 Eh
 * total energy  :   -60.2154854 Eh     change       -0.6574526E-05 Eh
 * total energy  :   -60.2154904 Eh     change       -0.4956969E-05 Eh
 * total energy  :   -60.2154954 Eh     change       -0.5020394E-05 Eh
 * total energy  :   -60.2154993 Eh     change       -0.3903941E-05 Eh
 * total energy  :   -60.2155011 Eh     change       -0.1795468E-05 Eh
 * total energy  :   -60.2155017 Eh     change       -0.5939858E-06 Eh
 * total energy  :   -60.2155020 Eh     change       -0.3236831E-06 Eh
 * total energy  :   -60.2155021 Eh     change       -0.5501252E-07 Eh
   *** GEOMETRY OPTIMIZATION CONVERGED AFTER 12 ITERATIONS ***

 final structure:
================
34
 xtb: 6.7.1 (edcfbbe)
C           -3.50944573337569       -3.26235602509000        0.41498889732149
C           -2.14534248525740       -3.49920346504393        0.29626404404080
C           -1.26340097904769       -2.45395240089428        0.11282173682313
C           -1.72510267285248       -1.13686700685380        0.03375994138460
C           -3.10475395047135       -0.90622397716743        0.20863784515809
C           -3.98499695694100       -1.96554441163372        0.38551839404366
O           -3.62944360671769        0.34740442761454        0.24073049793978
C           -2.78844788272948        1.40060323167212        0.06590394802309
C           -3.34652682001868        2.67142488970414        0.08560654149004
C           -2.54859389743052        3.77964044824419       -0.12889290325025
C           -1.19518822732173        3.61547933447255       -0.39535220722636
C           -0.63079354115893        2.35609055340134       -0.41799305698311
C           -1.40687993671612        1.22398548102008       -0.15057990173401
N           -0.87385097336338       -0.05620572876115       -0.14853781831803
C            0.50976108287821       -0.24004317985840       -0.31357783979752
C            0.99613508387554       -1.03882133869199       -1.34507641341725
C            2.35572421444989       -1.23127707038944       -1.52052443119172
C            3.25536045514101       -0.64113837312059       -0.61719088505288
N            4.57363868613144       -0.75864847490682       -0.61997849785332
S            5.16698363575468        0.15367799810026        0.65955648155066
N            3.71996815644332        0.68354672498634        1.24045778074998
C            2.74859645583602        0.18464103213839        0.45894675088895
C            1.38789490309842        0.39183995001746        0.60196882320791
H           -4.19538334168046       -4.08326618283202        0.54830984233634
H           -1.76418293977849       -4.50659896402301        0.35127965576414
H           -0.20537144298432       -2.64664416555433        0.04090392549683
H           -5.03292286119812       -1.74247039114516        0.50487475078481
H           -4.40594057421784        2.76115043771196        0.26374606514229
H           -2.98389746322616        4.76577805197233       -0.11032374669499
H           -0.57486792566257        4.47413013566485       -0.59789748864772
H            0.41579813261597        2.23690884411264       -0.64682393440201
H            0.30090264558789       -1.47811017234701       -2.04524894472269
H            2.73397188451251       -1.80586647798967       -2.35081276101341
H            1.00292957532514        0.95338179596919        1.43842097685889

          :  Hamiltonian                  GFN2-xTB          :
         :: gradient norm              0.000183729556 Eh/a0 ::
         :: HOMO-LUMO gap              0.501022867229 eV    ::
         :: SCC energy               -61.148102671890 Eh    ::
         :: -> dispersion             -0.045384738049 Eh    ::
         :: -> Gsolv                  -0.035095849149 Eh    ::
         :: repulsion energy           0.932600576683 Eh    ::

    * Orbital Energies and Occupations

         #    Occupation            Energy/Eh            Energy/eV
      -------------------------------------------------------------
         1        2.0000           -0.7685682             -20.9138
       ...           ...                  ...                  ...
        44        2.0000           -0.4516709             -12.2906
        45        2.0000           -0.4470115             -12.1638
        46        2.0000           -0.4442275             -12.0880
        47        2.0000           -0.4433920             -12.0653
        48        2.0000           -0.4404365             -11.9849
        49        2.0000           -0.4347395             -11.8299
        50        2.0000           -0.4186436             -11.3919
        51        2.0000           -0.3925104             -10.6808
        52        2.0000           -0.3860295             -10.5044
        53        1.9999           -0.3823666             -10.4047
        54        1.9996           -0.3807216             -10.3600
        55        1.0004           -0.3659155              -9.9571
        56        0.9999           -0.2886091              -7.8535 (HOMO)
        57        0.0001           -0.2701972              -7.3524 (LUMO)
        58                         -0.2560016              -6.9662
        59                         -0.2436251              -6.6294
        60                         -0.2273556              -6.1867
        61                         -0.2075221              -5.6470
        62                         -0.2031561              -5.5282
        63                         -0.1968910              -5.3577
        64                         -0.1315478              -3.5796
        65                         -0.1181338              -3.2146
        66                         -0.1048754              -2.8538
        67                         -0.0905704              -2.4645
       ...                                ...                  ...
       108                          0.7025805              19.1182
      -------------------------------------------------------------
                  HL-Gap            0.0184119 Eh            0.5010 eV

     #   Z          covCN         q      C6AA      α(0)
     1   6 C        2.918    -0.022    28.567     8.765
     2   6 C        2.918    -0.025    28.638     8.776
     3   6 C        2.920    -0.044    29.095     8.845
     4   6 C        2.924     0.045    26.985     8.519
     5   6 C        2.888     0.135    25.046     8.205
     6   6 C        2.916    -0.048    29.189     8.860
     7   8 O        1.710    -0.205    17.418     5.635
     8   6 C        2.888     0.135    25.043     8.204
     9   6 C        2.916    -0.049    29.209     8.863
    10   6 C        2.919    -0.022    28.555     8.763
    11   6 C        2.917    -0.026    28.642     8.776
    12   6 C        2.920    -0.043    29.057     8.840
    13   6 C        2.927     0.046    26.960     8.515
    14   7 N        2.752     0.005    21.168     6.833
    15   6 C        2.921     0.037    27.180     8.549
    16   6 C        2.914    -0.059    29.463     8.901
    17   6 C        2.909    -0.069    29.707     8.937
    18   6 C        3.273     0.090    24.752     8.018
    19   7 N        1.846    -0.326    29.307     8.023
    20  16 S        2.563     0.112   136.561    19.668
    21   7 N        1.845    -0.321    29.186     8.007
    22   6 C        3.283     0.085    24.710     7.992
    23   6 C        2.910    -0.076    29.885     8.964
    24   1 H        0.926     0.070     2.090     2.261
    25   1 H        0.926     0.065     2.141     2.288
    26   1 H        0.926     0.062     2.178     2.308
    27   1 H        0.926     0.076     2.025     2.226
    28   1 H        0.926     0.076     2.025     2.226
    29   1 H        0.926     0.070     2.089     2.260
    30   1 H        0.926     0.064     2.149     2.293
    31   1 H        0.926     0.061     2.191     2.315
    32   1 H        0.926     0.037     2.489     2.467
    33   1 H        0.926     0.030     2.580     2.512
    34   1 H        0.926     0.035     2.521     2.483

molecular dipole:
                 x           y           z       tot (Debye)
 q only:       -5.020       0.159      -0.201
   full:       -5.269       0.055      -0.347      13.421

 projected vibrational frequencies (cm⁻¹)
eigval :       -0.00    -0.00    -0.00     0.00     0.00     0.00
eigval :       34.28    37.74    61.75    73.58   114.91   151.48
eigval :      171.46   187.87   210.66   245.31   266.05   287.54
eigval :      302.16   342.81   375.58   393.93   409.04   419.27
eigval :      429.30   439.40   477.22   490.64   499.53   512.81
eigval :      537.99   568.40   571.05   605.20   627.87   635.65
eigval :      669.39   678.48   682.30   690.20   723.05   762.22
eigval :      770.31   779.89   782.64   790.25   805.57   849.46
eigval :      856.83   858.55   860.63   870.39   880.76   906.73
eigval :      910.86   912.80   922.55   923.95   982.68  1080.18
eigval :     1083.10  1111.16  1117.17  1124.83  1159.84  1169.11
eigval :     1180.41  1205.02  1213.70  1221.90  1236.56  1249.97
eigval :     1255.34  1284.82  1299.32  1316.59  1322.18  1341.92
eigval :     1361.04  1391.25  1409.55  1423.04  1434.82  1440.62
eigval :     1452.32  1489.58  1516.26  1543.75  1556.23  1561.90
eigval :     1577.03  3078.92  3094.79  3098.98  3100.80  3101.40
eigval :     3107.43  3109.28  3114.96  3116.60  3118.68  3119.72

   temp. (K)  partition function   enthalpy   heat capacity  entropy
                                   cal/mol     cal/K/mol   cal/K/mol   J/K/mol
 298.15  VIB  0.418E+06             9063.417     63.158     53.108
         ROT  0.932E+07              888.752      2.981     34.872
         INT  0.390E+13             9952.169     66.139     87.980
         TR   0.547E+28             1481.254      4.968     43.141
         TOT                       11433.4232    71.1071   131.1209   548.6099

       T/K    H(0)-H(T)+PV         H(T)/Eh          T*S/Eh         G(T)/Eh
   ------------------------------------------------------------------------
    298.15    0.182203E-01    0.258893E+00    0.622998E-01    0.196593E+00
   ------------------------------------------------------------------------

         :::::::::::::::::::::::::::::::::::::::::::::::::::::
         ::                  THERMODYNAMIC                  ::
         :::::::::::::::::::::::::::::::::::::::::::::::::::::
         :: total free energy         -60.018908945590 Eh   ::
         ::.................................................::
         :: total energy              -60.215502098975 Eh   ::
         :: zero point energy           0.240672606186 Eh   ::
         :: G(RRHO) w/o ZPVE           -0.044079452801 Eh   ::
         :: G(RRHO) contrib.            0.196593153385 Eh   ::
         :::::::::::::::::::::::::::::::::::::::::::::::::::::

           -------------------------------------------------
          | TOTAL ENERGY              -60.215502098975 Eh   |
          | TOTAL ENTHALPY            -59.956609173111 Eh   |
          | TOTAL FREE ENERGY         -60.018908945590 Eh   |
          | GRADIENT NORM               0.000184067229 Eh/α |
          | HOMO-LUMO GAP               0.501011954354 eV   |
           -------------------------------------------------

 * finished run on 2025/08/23 at 06:45:30.023
