   * xtb version 6.7.1 (edcfbbe) compiled by 'albert@albert-system' on 2024-07-22

   ID    Z sym.   atoms
    1    6 C      1-6, 8-13, 15-18, 22, 23
    2    8 O      7
    3    7 N      14, 19, 21
    4   16 S      20
    5    1 H      24-34

          program call               : xtb data2507/toluene/BTD-PXZ/BTD-PXZ_toluene_S0_finalOpt.xtbopt.xyz --gfn 2 --uhf 2 --gbsa toluene --ohess vtight --parallel 40 --molden --ceasefiles --namespace data2507/toluene/BTD-PXZ/BTD-PXZ_toluene_T1_preOpt
      * Solvation model:               GBSA
        Solvent                        toluene
        Solvent mass                       9.2140E+01 g/mol
          :  Hamiltonian                  GFN2-xTB          :
 * total energy  :   -60.2086151 Eh     change       -0.4455870E-08 Eh
 * total energy  :   -60.2131705 Eh     change       -0.4555421E-02 Eh
 * total energy  :   -60.2149902 Eh     change       -0.1819697E-02 Eh
 * total energy  :   -60.2151511 Eh     change       -0.1608462E-03 Eh
 * total energy  :   -60.2152589 Eh     change       -0.1078674E-03 Eh
 * total energy  :   -60.2152870 Eh     change       -0.2810617E-04 Eh
 * total energy  :   -60.2153195 Eh     change       -0.3247747E-04 Eh
 * total energy  :   -60.2153511 Eh     change       -0.3162509E-04 Eh
 * total energy  :   -60.2153788 Eh     change       -0.2771303E-04 Eh
 * total energy  :   -60.2154039 Eh     change       -0.2509837E-04 Eh
 * total energy  :   -60.2154886 Eh     change       -0.4985931E-06 Eh
 * total energy  :   -60.2154889 Eh     change       -0.2651500E-06 Eh
 * total energy  :   -60.2154891 Eh     change       -0.2021272E-06 Eh
 * total energy  :   -60.2154893 Eh     change       -0.1977169E-06 Eh
 * total energy  :   -60.2154895 Eh     change       -0.2072262E-06 Eh
 * total energy  :   -60.2154897 Eh     change       -0.2196896E-06 Eh
 * total energy  :   -60.2154899 Eh     change       -0.1990063E-06 Eh
 * total energy  :   -60.2154900 Eh     change       -0.1214389E-06 Eh
 * total energy  :   -60.2154901 Eh     change       -0.6296573E-07 Eh
   *** GEOMETRY OPTIMIZATION CONVERGED AFTER 32 ITERATIONS ***

 final structure:
================
34
 xtb: 6.7.1 (edcfbbe)
C           -2.66739564245820       -3.72014239576148       -0.04797682616460
C           -1.31000857739366       -3.60293014466785       -0.31901909966183
C           -0.70677195212488       -2.36232549036938       -0.36539799171498
C           -1.44694252644000       -1.20201189426927       -0.11771787174006
C           -2.83272576729576       -1.33166906532630        0.10458234032389
C           -3.43000135281516       -2.58393533645969        0.14799487686081
O           -3.64010832296899       -0.24975712605041        0.26253695463764
C           -3.07722090470331        0.98624549488662        0.20310277974121
C           -3.92400162454834        2.07553447827273        0.36027022009680
C           -3.40895204526651        3.35754503954677        0.36103396250647
C           -2.03879785409415        3.54996430571508        0.23233608801148
C           -1.18984676624877        2.47445263329633        0.06893585025790
C           -1.69177759150570        1.17075297342510        0.01952319855013
N           -0.87457532767012        0.06083048846476       -0.14141373008708
C            0.51412620393375        0.19764573145724       -0.30947157157455
C            1.02570061940067        0.95805075512440       -1.35759439736306
C            2.39080495672434        1.10318218109936       -1.53589783534002
C            3.27085518148971        0.50488381387993       -0.61874795322569
N            4.59217698037522        0.58077601237489       -0.62269799439166
S            5.15617839857112       -0.32172340820032        0.67674753720030
N            3.69291477619304       -0.79276222768203        1.26789817252884
C            2.73799399636840       -0.28060274176336        0.47482654855786
C            1.37141575888723       -0.44217595906344        0.62028492304901
H           -3.13324979383299       -4.69180343940452       -0.01215505340692
H           -0.71711862137294       -4.48392817832514       -0.50735380870987
H            0.34255470741720       -2.27987559880619       -0.59792037606849
H           -4.49132430319228       -2.63704986144461        0.32935041584947
H           -4.97779116747193        1.88711710367970        0.48756971494788
H           -4.06896929962954        4.20166231313364        0.47948329971354
H           -1.62663188611693        4.54608326825121        0.26466756595324
H           -0.12671228473658        2.63317495282455       -0.01019308826935
H            0.34482922883791        1.40377266726683       -2.06778593733741
H            2.78782542911252        1.64620866389845       -2.37863771349772
H            0.96836881284766       -0.97379846546359        1.46773567196972

          :  Hamiltonian                  GFN2-xTB          :
         :: gradient norm              0.000080472088 Eh/a0 ::
         :: HOMO-LUMO gap              0.501525210636 eV    ::
         :: SCC energy               -61.148049530168 Eh    ::
         :: -> dispersion             -0.045383562740 Eh    ::
         :: -> Gsolv                  -0.035084590351 Eh    ::
         :: repulsion energy           0.932559464125 Eh    ::

    * Orbital Energies and Occupations

         #    Occupation            Energy/Eh            Energy/eV
      -------------------------------------------------------------
         1        2.0000           -0.7685442             -20.9132
       ...           ...                  ...                  ...
        44        2.0000           -0.4516712             -12.2906
        45        2.0000           -0.4470172             -12.1640
        46        2.0000           -0.4442299             -12.0881
        47        2.0000           -0.4433971             -12.0654
        48        2.0000           -0.4404443             -11.9851
        49        2.0000           -0.4347458             -11.8300
        50        2.0000           -0.4186503             -11.3921
        51        2.0000           -0.3925060             -10.6806
        52        2.0000           -0.3860256             -10.5043
        53        1.9999           -0.3823695             -10.4048
        54        1.9996           -0.3807222             -10.3600
        55        1.0005           -0.3659313              -9.9575
        56        0.9999           -0.2886197              -7.8537 (HOMO)
        57        0.0001           -0.2701886              -7.3522 (LUMO)
        58                         -0.2560092              -6.9664
        59                         -0.2436275              -6.6294
        60                         -0.2273506              -6.1865
        61                         -0.2075618              -5.6480
        62                         -0.2031570              -5.5282
        63                         -0.1968879              -5.3576
        64                         -0.1315463              -3.5796
        65                         -0.1181312              -3.2145
        66                         -0.1048659              -2.8535
        67                         -0.0905996              -2.4653
       ...                                ...                  ...
       108                          0.7025989              19.1187
      -------------------------------------------------------------
                  HL-Gap            0.0184311 Eh            0.5015 eV

     #   Z          covCN         q      C6AA      α(0)
     1   6 C        2.919    -0.022    28.554     8.763
     2   6 C        2.917    -0.026    28.642     8.776
     3   6 C        2.920    -0.043    29.057     8.840
     4   6 C        2.927     0.046    26.959     8.515
     5   6 C        2.888     0.135    25.043     8.204
     6   6 C        2.916    -0.049    29.209     8.862
     7   8 O        1.710    -0.205    17.419     5.635
     8   6 C        2.888     0.135    25.046     8.205
     9   6 C        2.916    -0.048    29.189     8.859
    10   6 C        2.918    -0.022    28.567     8.765
    11   6 C        2.918    -0.025    28.638     8.775
    12   6 C        2.920    -0.044    29.095     8.845
    13   6 C        2.924     0.045    26.984     8.519
    14   7 N        2.752     0.005    21.169     6.833
    15   6 C        2.921     0.037    27.180     8.549
    16   6 C        2.914    -0.059    29.463     8.901
    17   6 C        2.909    -0.069    29.707     8.937
    18   6 C        3.273     0.090    24.752     8.018
    19   7 N        1.846    -0.326    29.306     8.023
    20  16 S        2.563     0.112   136.562    19.668
    21   7 N        1.845    -0.322    29.187     8.007
    22   6 C        3.283     0.085    24.711     7.993
    23   6 C        2.910    -0.076    29.885     8.964
    24   1 H        0.926     0.070     2.089     2.260
    25   1 H        0.926     0.064     2.149     2.293
    26   1 H        0.926     0.061     2.192     2.315
    27   1 H        0.926     0.076     2.025     2.225
    28   1 H        0.926     0.076     2.025     2.226
    29   1 H        0.926     0.070     2.090     2.261
    30   1 H        0.926     0.065     2.141     2.288
    31   1 H        0.926     0.062     2.178     2.308
    32   1 H        0.926     0.037     2.489     2.467
    33   1 H        0.926     0.030     2.580     2.512
    34   1 H        0.926     0.035     2.522     2.483

molecular dipole:
                 x           y           z       tot (Debye)
 q only:       -5.022      -0.005      -0.204
   full:       -5.267       0.103      -0.352      13.420

 projected vibrational frequencies (cm⁻¹)
eigval :       -0.00     0.00     0.00     0.00     0.00     0.00
eigval :       32.74    35.50    58.65    72.99   113.63   150.58
eigval :      171.70   187.44   208.56   244.91   265.63   286.64
eigval :      301.38   343.10   373.00   393.38   407.72   419.52
eigval :      428.77   438.82   477.73   490.21   499.15   512.37
eigval :      537.79   568.31   570.82   605.09   627.50   635.50
eigval :      669.75   678.96   682.19   688.53   723.29   762.20
eigval :      771.74   779.21   783.57   790.41   805.42   849.33
eigval :      856.46   858.39   859.47   870.56   880.74   906.42
eigval :      910.72   912.80   921.77   923.19   981.94  1080.56
eigval :     1081.79  1110.50  1116.30  1122.24  1157.88  1167.81
eigval :     1180.55  1204.30  1213.08  1220.13  1235.40  1249.11
eigval :     1255.00  1284.93  1299.10  1316.65  1322.20  1341.79
eigval :     1361.12  1391.21  1409.14  1422.75  1434.30  1440.54
eigval :     1452.09  1489.25  1516.05  1543.34  1556.30  1561.43
eigval :     1577.07  3079.00  3095.18  3098.19  3100.45  3101.79
eigval :     3107.08  3108.80  3114.51  3116.43  3118.37  3119.52

   temp. (K)  partition function   enthalpy   heat capacity  entropy
                                   cal/mol     cal/K/mol   cal/K/mol   J/K/mol
 298.15  VIB  0.500E+06             9084.871     63.082     53.266
         ROT  0.932E+07              888.752      2.981     34.871
         INT  0.466E+13             9973.623     66.062     88.138
         TR   0.547E+28             1481.254      4.968     43.141
         TOT                       11454.8770    71.0306   131.2786   549.2698

       T/K    H(0)-H(T)+PV         H(T)/Eh          T*S/Eh         G(T)/Eh
   ------------------------------------------------------------------------
    298.15    0.182545E-01    0.258828E+00    0.623747E-01    0.196453E+00
   ------------------------------------------------------------------------

         :::::::::::::::::::::::::::::::::::::::::::::::::::::
         ::                  THERMODYNAMIC                  ::
         :::::::::::::::::::::::::::::::::::::::::::::::::::::
         :: total free energy         -60.019036930689 Eh   ::
         ::.................................................::
         :: total energy              -60.215490067349 Eh   ::
         :: zero point energy           0.240573347545 Eh   ::
         :: G(RRHO) w/o ZPVE           -0.044120210885 Eh   ::
         :: G(RRHO) contrib.            0.196453136660 Eh   ::
         :::::::::::::::::::::::::::::::::::::::::::::::::::::

           -------------------------------------------------
          | TOTAL ENERGY              -60.215490067349 Eh   |
          | TOTAL ENTHALPY            -59.956662211411 Eh   |
          | TOTAL FREE ENERGY         -60.019036930689 Eh   |
          | GRADIENT NORM               0.000081110179 Eh/α |
          | HOMO-LUMO GAP               0.501536343364 eV   |
           -------------------------------------------------

 * finished run on 2025/08/23 at 06:44:24.989
