   * xtb version 6.7.1 (edcfbbe) compiled by 'albert@albert-system' on 2024-07-22

   ID    Z sym.   atoms
    1    6 C      1-6, 8-13, 15-18, 22, 23
    2    8 O      7
    3    7 N      14, 19, 21
    4   16 S      20
    5    1 H      24-34

          program call               : xtb data2507/toluene/BTD-PXZ/BTD-PXZ.xyz --gfn 2 --gbsa toluene --ohess vtight --parallel 40 --molden --ceasefiles --namespace data2507/toluene/BTD-PXZ/BTD-PXZ_toluene_S0_preOpt
      * Solvation model:               GBSA
        Solvent                        toluene
        Solvent mass                       9.2140E+01 g/mol
          :  Hamiltonian                  GFN2-xTB          :
 * total energy  :   -60.2620058 Eh     change       -0.1877204E-08 Eh
 * total energy  :   -60.2747178 Eh     change       -0.1271196E-01 Eh
 * total energy  :   -60.2780156 Eh     change       -0.3297805E-02 Eh
 * total energy  :   -60.2785910 Eh     change       -0.5754265E-03 Eh
 * total energy  :   -60.2787744 Eh     change       -0.1834267E-03 Eh
 * total energy  :   -60.2787956 Eh     change       -0.2112723E-04 Eh
 * total energy  :   -60.2788019 Eh     change       -0.6308801E-05 Eh
 * total energy  :   -60.2788035 Eh     change       -0.1610699E-05 Eh
 * total energy  :   -60.2788046 Eh     change       -0.1151776E-05 Eh
 * total energy  :   -60.2788060 Eh     change       -0.1413818E-05 Eh
 * total energy  :   -60.2788079 Eh     change       -0.1856869E-05 Eh
 * total energy  :   -60.2788099 Eh     change       -0.1974009E-05 Eh
 * total energy  :   -60.2788111 Eh     change       -0.1192592E-05 Eh
 * total energy  :   -60.2788114 Eh     change       -0.3195749E-06 Eh
 * total energy  :   -60.2788115 Eh     change       -0.7583169E-07 Eh
   *** GEOMETRY OPTIMIZATION CONVERGED AFTER 15 ITERATIONS ***

 final structure:
================
34
 xtb: 6.7.1 (edcfbbe)
C           -2.39301454050787       -3.57887080779443        0.04667680078167
C           -1.01511973257633       -3.61248786568537       -0.02011787642983
C           -0.28615079927628       -2.43197197339957       -0.04065913749951
C           -0.92922943399825       -1.20243609718617        0.00592716619313
C           -2.32888796328284       -1.17728913860414        0.07217740794139
C           -3.04966987426734       -2.35579923875154        0.09204079973980
O           -3.04278077021885       -0.00014446303021        0.12020024182778
C           -2.32897662412271        1.17705520695181        0.07220133832015
C           -3.04984985466900        2.35550836695072        0.09207125721802
C           -2.39328997778961        3.57863162346750        0.04671790316130
C           -1.01539769569282        3.61235810201480       -0.02007649318123
C           -0.28633707755946        2.43189940980248       -0.04062558859279
C           -0.92931956097674        1.20231261965449        0.00596004507617
N           -0.22578447963995       -0.00003579647292       -0.01202399521179
C            1.19317923372410        0.00001853290571       -0.06791287051255
C            1.81831345744015       -0.00011285364334       -1.34003115471551
C            3.17766178718043       -0.00004227002531       -1.47136928793307
C            3.95558047646374        0.00018523345870       -0.30011964556935
N            5.28696909401070        0.00041051555909       -0.20124313819452
S            5.68703874614187        0.00040589778445        1.35405376956975
N            4.21123705108792        0.00059724852859        1.98744631497332
C            3.32026945734332        0.00031375510715        0.99269080112756
C            1.92010752333111        0.00021003863350        1.09500159575412
H           -2.96536777585656       -4.49297189126351        0.06337222472555
H           -0.49245082000314       -4.55603586289370       -0.05649194462749
H            0.79148790715432       -2.46327714981697       -0.09174876974300
H           -4.12562442538602       -2.29771314265626        0.14406955651367
H           -4.12579994559323        2.29733465999317        0.14409148466389
H           -2.96571412843606        4.49268783318013        0.06341592420348
H           -0.49280249986208        4.55594715395976       -0.05645129922981
H            0.79129831436661        2.46328948568168       -0.09172848604454
H            1.18485890903087       -0.00024457638590       -2.21452755506268
H            3.66057858176884       -0.00006951416797       -2.43513165509533
H            1.44298744067130        0.00033895814354        2.06214626585219

          :  Hamiltonian                  GFN2-xTB          :
         :: gradient norm              0.000100101766 Eh/a0 ::
         :: HOMO-LUMO gap              0.743384048678 eV    ::
         :: SCC energy               -61.226926935853 Eh    ::
         :: -> dispersion             -0.045325711446 Eh    ::
         :: -> Gsolv                  -0.025344274487 Eh    ::
         :: repulsion energy           0.948115469882 Eh    ::

    * Orbital Energies and Occupations

         #    Occupation            Energy/Eh            Energy/eV
      -------------------------------------------------------------
         1        2.0000           -0.7736844             -21.0530
       ...           ...                  ...                  ...
        43        2.0000           -0.4537676             -12.3476
        44        2.0000           -0.4508258             -12.2676
        45        2.0000           -0.4397893             -11.9673
        46        2.0000           -0.4374069             -11.9024
        47        2.0000           -0.4292015             -11.6792
        48        2.0000           -0.4239612             -11.5366
        49        2.0000           -0.4237562             -11.5310
        50        2.0000           -0.4221696             -11.4878
        51        2.0000           -0.4178771             -11.3710
        52        2.0000           -0.4160264             -11.3207
        53        2.0000           -0.4139392             -11.2639
        54        2.0000           -0.3935210             -10.7083
        55        2.0000           -0.3460102              -9.4154 (HOMO)
        56        0.0000           -0.3186913              -8.6720 (LUMO)
        57                         -0.2405738              -6.5463
        58                         -0.2387918              -6.4979
        59                         -0.2331507              -6.3444
        60                         -0.2316340              -6.3031
        61                         -0.2248736              -6.1191
        62                         -0.2176754              -5.9233
        63                         -0.1985187              -5.4020
        64                         -0.1486717              -4.0456
        65                         -0.1204900              -3.2787
        66                         -0.1048845              -2.8541
       ...                                ...                  ...
       108                          0.7174612              19.5231
      -------------------------------------------------------------
                  HL-Gap            0.0273189 Eh            0.7434 eV

     #   Z          covCN         q      C6AA      α(0)
     1   6 C        2.919    -0.042    29.040     8.837
     2   6 C        2.919    -0.039    28.970     8.826
     3   6 C        2.923    -0.061    29.528     8.911
     4   6 C        2.923     0.043    27.028     8.526
     5   6 C        2.880     0.122    25.325     8.250
     6   6 C        2.919    -0.058    29.443     8.898
     7   8 O        1.708    -0.273    18.533     5.812
     8   6 C        2.880     0.122    25.325     8.250
     9   6 C        2.919    -0.058    29.443     8.898
    10   6 C        2.919    -0.042    29.040     8.837
    11   6 C        2.919    -0.039    28.970     8.826
    12   6 C        2.923    -0.061    29.528     8.911
    13   6 C        2.923     0.043    27.028     8.526
    14   7 N        2.753    -0.081    22.806     7.093
    15   6 C        2.921     0.071    26.416     8.428
    16   6 C        2.922    -0.037    28.931     8.821
    17   6 C        2.906    -0.039    28.975     8.826
    18   6 C        3.350     0.073    23.760     7.680
    19   7 N        1.852    -0.271    27.899     7.829
    20  16 S        2.685     0.370   126.862    18.957
    21   7 N        1.852    -0.274    27.970     7.838
    22   6 C        3.351     0.075    23.688     7.666
    23   6 C        2.910    -0.051    29.257     8.869
    24   1 H        0.926     0.043     2.413     2.429
    25   1 H        0.926     0.041     2.435     2.440
    26   1 H        0.926     0.031     2.570     2.507
    27   1 H        0.926     0.048     2.339     2.392
    28   1 H        0.926     0.048     2.339     2.392
    29   1 H        0.926     0.043     2.413     2.429
    30   1 H        0.926     0.041     2.435     2.440
    31   1 H        0.926     0.031     2.570     2.507
    32   1 H        0.926     0.059     2.206     2.323
    33   1 H        0.926     0.063     2.160     2.298
    34   1 H        0.926     0.059     2.207     2.323

molecular dipole:
                 x           y           z       tot (Debye)
 q only:        0.872      -0.000      -0.122
   full:        0.665      -0.000      -0.247       1.803

 projected vibrational frequencies (cm⁻¹)
eigval :       -0.00    -0.00    -0.00     0.00     0.00     0.00
eigval :      -33.09    30.54    38.53    45.32   115.59   141.83
eigval :      166.10   177.25   198.81   248.82   264.45   287.36
eigval :      320.91   339.53   385.17   391.92   411.78   423.13
eigval :      427.26   440.74   503.92   511.15   511.23   512.55
eigval :      522.45   578.27   580.42   635.03   636.84   653.40
eigval :      658.13   659.30   689.41   726.03   777.46   778.20
eigval :      787.91   813.11   838.39   847.12   850.88   861.90
eigval :      861.94   870.48   874.17   895.05   896.40   907.60
eigval :      912.42   913.81   914.21   918.39   981.62  1087.33
eigval :     1088.15  1103.61  1104.60  1138.78  1161.86  1173.63
eigval :     1177.72  1192.56  1193.15  1212.29  1240.83  1258.38
eigval :     1267.39  1295.27  1305.06  1319.58  1330.18  1339.35
eigval :     1356.07  1422.57  1426.09  1441.73  1484.28  1486.31
eigval :     1505.63  1518.42  1565.96  1579.90  1587.73  1591.54
eigval :     1603.46  3086.67  3086.72  3092.96  3093.53  3093.75
eigval :     3099.68  3100.10  3107.50  3107.68  3108.39  3111.30

   temp. (K)  partition function   enthalpy   heat capacity  entropy
                                   cal/mol     cal/K/mol   cal/K/mol   J/K/mol
 298.15  VIB  0.182E+06             8495.908     60.056     49.047
         ROT  0.933E+07              888.752      2.981     34.874
         INT  0.170E+13             9384.660     63.037     83.921
         TR   0.547E+28             1481.254      4.968     43.141
         TOT                       10865.9143    68.0052   127.0621   531.6276

       T/K    H(0)-H(T)+PV         H(T)/Eh          T*S/Eh         G(T)/Eh
   ------------------------------------------------------------------------
    298.15    0.173159E-01    0.259672E+00    0.603713E-01    0.199301E+00
   ------------------------------------------------------------------------

         :::::::::::::::::::::::::::::::::::::::::::::::::::::
         ::                  THERMODYNAMIC                  ::
         :::::::::::::::::::::::::::::::::::::::::::::::::::::
         :: total free energy         -60.079510893140 Eh   ::
         ::.................................................::
         :: total energy              -60.278811470633 Eh   ::
         :: zero point energy           0.242355923680 Eh   ::
         :: G(RRHO) w/o ZPVE           -0.043055346187 Eh   ::
         :: G(RRHO) contrib.            0.199300577493 Eh   ::
         :::::::::::::::::::::::::::::::::::::::::::::::::::::

           -------------------------------------------------
          | TOTAL ENERGY              -60.278811470633 Eh   |
          | TOTAL ENTHALPY            -60.019139610352 Eh   |
          | TOTAL FREE ENERGY         -60.079510893140 Eh   |
          | GRADIENT NORM               0.000100092667 Eh/α |
          | HOMO-LUMO GAP               0.743383932975 eV   |
           -------------------------------------------------

 * finished run on 2025/08/23 at 06:43:21.878
