   * xtb version 6.7.1 (edcfbbe) compiled by 'albert@albert-system' on 2024-07-22

   ID    Z sym.   atoms
    1    6 C      1-6, 8-13, 15-22, 24-29, 31-37
    2   16 S      7, 30
    3    7 N      14, 23, 38
    4    1 H      39-59

          program call               : xtb data2507/toluene/Fens/Fens_toluene_T1_crest.xyz --gfn 2 --uhf 2 --gbsa toluene --ohess vtight --parallel 40 --molden --ceasefiles --namespace data2507/toluene/Fens/Fens_toluene_T1_finalOpt
      * Solvation model:               GBSA
        Solvent                        toluene
        Solvent mass                       9.2140E+01 g/mol
          :  Hamiltonian                  GFN2-xTB          :
 * total energy  :   -96.6391690 Eh     change       -0.8050975E-08 Eh
 * total energy  :   -96.6392503 Eh     change       -0.8124848E-04 Eh
 * total energy  :   -96.6393488 Eh     change       -0.9851784E-04 Eh
 * total energy  :   -96.6394303 Eh     change       -0.8154886E-04 Eh
 * total energy  :   -96.6394934 Eh     change       -0.6311904E-04 Eh
 * total energy  :   -96.6395822 Eh     change       -0.8876558E-04 Eh
 * total energy  :   -96.6396622 Eh     change       -0.7994207E-04 Eh
 * total energy  :   -96.6396864 Eh     change       -0.2427026E-04 Eh
 * total energy  :   -96.6397279 Eh     change       -0.4146201E-04 Eh
 * total energy  :   -96.6397422 Eh     change       -0.1431933E-04 Eh
 * total energy  :   -96.6412565 Eh     change       -0.7178751E-06 Eh
 * total energy  :   -96.6412572 Eh     change       -0.6809521E-06 Eh
 * total energy  :   -96.6412579 Eh     change       -0.6978294E-06 Eh
 * total energy  :   -96.6412587 Eh     change       -0.8104216E-06 Eh
 * total energy  :   -96.6412596 Eh     change       -0.8873470E-06 Eh
 * total energy  :   -96.6412603 Eh     change       -0.7278736E-06 Eh
 * total energy  :   -96.6412607 Eh     change       -0.4165494E-06 Eh
 * total energy  :   -96.6412610 Eh     change       -0.2582635E-06 Eh
 * total energy  :   -96.6412610 Eh     change       -0.2448729E-08 Eh
   *** GEOMETRY OPTIMIZATION CONVERGED AFTER 68 ITERATIONS ***

 final structure:
================
59
 xtb: 6.7.1 (edcfbbe)
C            0.79550349076016        3.59229134472403        2.23675278614220
C           -0.04509803030889        2.53990294206606        2.56466053913174
C            0.30147000527788        1.24350419914855        2.24344699310902
C            1.49225843478294        0.94434697905000        1.56794709921144
C            2.34591495937043        2.01694309262298        1.28192323073862
C            1.99446031397156        3.32026774598000        1.60709720586711
S            3.92105304709837        1.80672558279246        0.51871859097949
C            3.97531566087175        0.06429216893688        0.25034911602639
C            5.12492878078104       -0.41487988977583       -0.36415461333827
C            5.25770138348929       -1.75476787270707       -0.66982941922432
C            4.21342999732646       -2.61631130978147       -0.37196778011207
C            3.07140446143666       -2.14467495467710        0.24212605710487
C            2.92204504638206       -0.79561598779378        0.58805786717195
N            1.76915063313919       -0.37200263442200        1.23130033530933
C            0.68480983139342       -1.28986576030444        1.34607028044534
C            0.67050285639760       -2.31291513486891        2.26948154336941
C           -0.43037101458398       -3.17076409404906        2.30421479384147
C           -1.50427940335486       -2.97341150462792        1.40823429662592
C           -2.63656105070612       -3.79384436306699        1.33067750917804
C           -3.65082319087025       -3.53248861695323        0.40926815200171
C           -3.57933262531412       -2.43815622454674       -0.42508044256759
C           -2.47039042011175       -1.58486361128252       -0.35774425292490
N           -2.35130961575564       -0.39714930943658       -1.13331221375299
C           -1.23222856411267       -0.34858359091382       -1.94490497323549
C           -0.69985863504805       -1.55580541947238       -2.42694369360383
C            0.44086314718191       -1.58762212037837       -3.19528060098375
C            1.09890611054222       -0.40791572586742       -3.52500677933442
C            0.56832321828507        0.79559547566549       -3.10986024766025
C           -0.59124133494787        0.83295344251026       -2.34397681296131
S           -1.19552114544756        2.42325455141482       -1.91492032767240
C           -2.69262642271453        2.03326540313603       -1.07572506969992
C           -3.46547358225471        3.12292373225496       -0.68775644928767
C           -4.62287891381396        2.94359855065292        0.04040324048742
C           -4.99536749175791        1.65705844333331        0.40485422384933
C           -4.23201110859507        0.57355280733037        0.02431545137657
C           -3.06958813805363        0.72347614839925       -0.74468986700641
C           -1.39545369825910       -1.86171391326849        0.51861932451412
N           -0.32128366351971       -1.06787572774195        0.48198833503553
H            0.52798079573126        4.60863222519529        2.47789492218586
H           -0.97806201010700        2.72497061711241        3.07509025879912
H           -0.36054925739692        0.43713752452491        2.51446966782375
H            2.68077989200946        4.11515937176264        1.35729577159898
H            5.90993471115957        0.28734198752818       -0.60113106060490
H            6.15628866206888       -2.11765980267631       -1.14275255114892
H            4.28453028372718       -3.66485214411475       -0.61767738073230
H            2.26394678955908       -2.82682381563487        0.45488581518207
H            1.49822514474604       -2.44060245457672        2.95205639584948
H           -0.47415601818590       -3.97549593846465        3.02280325513962
H           -2.70355691142679       -4.65638154521768        1.97858058033615
H           -4.49891868625210       -4.19937766557182        0.34951513445147
H           -4.35306953565079       -2.24356765767289       -1.15366459511715
H           -1.20477741396001       -2.47525634585336       -2.17358323699195
H            0.82454599751039       -2.53618646004952       -3.53863758955411
H            2.00527869348913       -0.42909346276010       -4.10910730195242
H            1.04294334761438        1.72963500409748       -3.37105180334087
H           -3.13089083399735        4.11143701226261       -0.96356401984033
H           -5.21814739196278        3.79378761363707        0.33317969127843
H           -5.88539839891320        1.49465438433349        0.99324015250514
H           -4.52817007651473       -0.41583754973641        0.33143686348621

          :  Hamiltonian                  GFN2-xTB          :
         :: gradient norm              0.000043517567 Eh/a0 ::
         :: HOMO-LUMO gap              0.280072373051 eV    ::
         :: SCC energy               -98.311307053835 Eh    ::
         :: -> dispersion             -0.095111888866 Eh    ::
         :: -> Gsolv                  -0.041923467109 Eh    ::
         :: repulsion energy           1.670046061896 Eh    ::

    * Orbital Energies and Occupations

         #    Occupation            Energy/Eh            Energy/eV
      -------------------------------------------------------------
         1        2.0000           -0.7387994             -20.1038
       ...           ...                  ...                  ...
        79        2.0000           -0.4253066             -11.5732
        80        2.0000           -0.4246932             -11.5565
        81        2.0000           -0.4224318             -11.4950
        82        2.0000           -0.4187240             -11.3941
        83        2.0000           -0.4173551             -11.3568
        84        2.0000           -0.3971368             -10.8066
        85        2.0000           -0.3941105             -10.7243
        86        2.0000           -0.3914185             -10.6510
        87        2.0000           -0.3707964             -10.0899
        88        2.0000           -0.3643066              -9.9133
        89        1.9328           -0.3521282              -9.5819
        90        1.0672           -0.3471286              -9.4458
        91        0.9950           -0.2652857              -7.2188 (HOMO)
        92        0.0039           -0.2549937              -6.9387 (LUMO)
        93        0.0010           -0.2537254              -6.9042
        94                         -0.2408420              -6.5536
        95                         -0.2401224              -6.5341
        96                         -0.2363359              -6.4310
        97                         -0.2353032              -6.4029
        98                         -0.2217463              -6.0340
        99                         -0.2149792              -5.8499
       100                         -0.2117419              -5.7618
       101                         -0.2106843              -5.7330
       102                         -0.2073630              -5.6426
       ...                                ...                  ...
       183                          0.6918849              18.8271
      -------------------------------------------------------------
                  HL-Gap            0.0102920 Eh            0.2801 eV

     #   Z          covCN         q      C6AA      α(0)
     1   6 C        2.918    -0.034    28.839     8.806
     2   6 C        2.918    -0.031    28.764     8.795
     3   6 C        2.928    -0.047    29.165     8.857
     4   6 C        2.948     0.073    26.374     8.423
     5   6 C        2.970     0.030    27.331     8.575
     6   6 C        2.991    -0.039    28.970     8.829
     7  16 S        2.149    -0.090   144.799    20.253
     8   6 C        2.971     0.030    27.336     8.576
     9   6 C        2.994    -0.039    28.966     8.829
    10   6 C        2.918    -0.034    28.859     8.809
    11   6 C        2.918    -0.030    28.743     8.792
    12   6 C        2.928    -0.052    29.294     8.876
    13   6 C        2.940     0.068    26.480     8.440
    14   7 N        2.753    -0.060    22.404     7.030
    15   6 C        2.901     0.129    25.167     8.226
    16   6 C        2.906    -0.069    29.718     8.939
    17   6 C        2.924    -0.072    29.785     8.950
    18   6 C        2.974    -0.010    28.252     8.719
    19   6 C        2.915    -0.073    29.829     8.956
    20   6 C        2.913    -0.049    29.206     8.862
    21   6 C        2.911    -0.062    29.533     8.911
    22   6 C        2.944     0.009    27.821     8.651
    23   7 N        2.751    -0.030    21.815     6.937
    24   6 C        2.959     0.079    26.241     8.402
    25   6 C        2.928    -0.040    28.993     8.830
    26   6 C        2.917    -0.029    28.728     8.789
    27   6 C        2.918    -0.032    28.788     8.798
    28   6 C        2.989    -0.039    28.961     8.828
    29   6 C        2.969     0.034    27.244     8.562
    30  16 S        2.154    -0.060   143.562    20.166
    31   6 C        2.970     0.030    27.326     8.575
    32   6 C        2.995    -0.039    28.950     8.826
    33   6 C        2.917    -0.032    28.790     8.799
    34   6 C        2.918    -0.029    28.724     8.789
    35   6 C        2.927    -0.051    29.267     8.872
    36   6 C        2.941     0.067    26.506     8.444
    37   6 C        2.957     0.092    25.955     8.356
    38   7 N        1.849    -0.327    29.341     8.028
    39   1 H        0.926     0.051     2.304     2.374
    40   1 H        0.926     0.045     2.389     2.417
    41   1 H        0.926     0.039     2.456     2.451
    42   1 H        0.926     0.054     2.274     2.358
    43   1 H        0.926     0.054     2.274     2.358
    44   1 H        0.926     0.051     2.308     2.376
    45   1 H        0.926     0.047     2.357     2.401
    46   1 H        0.926     0.041     2.438     2.442
    47   1 H        0.926     0.011     2.871     2.650
    48   1 H        0.926     0.007     2.947     2.685
    49   1 H        0.926     0.008     2.917     2.671
    50   1 H        0.926     0.016     2.790     2.612
    51   1 H        0.926     0.023     2.686     2.563
    52   1 H        0.926     0.046     2.374     2.410
    53   1 H        0.926     0.048     2.345     2.395
    54   1 H        0.926     0.051     2.302     2.372
    55   1 H        0.926     0.054     2.276     2.359
    56   1 H        0.926     0.056     2.252     2.347
    57   1 H        0.926     0.053     2.281     2.362
    58   1 H        0.926     0.050     2.319     2.382
    59   1 H        0.926     0.054     2.274     2.358

molecular dipole:
                 x           y           z       tot (Debye)
 q only:        0.439       1.745      -1.037
   full:        0.207       1.008      -0.604       3.033

 projected vibrational frequencies (cm⁻¹)
eigval :       -0.00    -0.00     0.00     0.00     0.00     0.00
eigval :       12.50    15.39    17.68    31.95    36.67    45.22
eigval :       54.87    68.00    98.52   102.48   112.24   128.53
eigval :      144.33   166.67   179.30   188.11   200.60   224.97
eigval :      226.86   230.97   237.64   268.37   279.64   322.98
eigval :      335.44   344.76   357.73   365.13   381.00   381.94
eigval :      393.36   411.23   415.62   419.76   424.94   427.55
eigval :      431.96   463.64   476.12   478.79   483.06   487.37
eigval :      491.93   505.50   525.77   537.06   547.01   554.99
eigval :      568.74   594.16   597.08   615.02   644.27   647.01
eigval :      652.40   653.07   656.40   657.86   687.10   700.41
eigval :      701.27   706.53   711.60   727.18   757.66   767.70
eigval :      769.03   772.78   775.29   802.03   816.16   825.09
eigval :      839.27   856.75   862.03   866.29   867.89   869.05
eigval :      884.76   898.85   901.10   902.65   903.28   903.71
eigval :      907.47   915.18   916.15   916.51   920.03   973.72
eigval :     1021.63  1044.62  1046.03  1051.69  1075.60  1091.83
eigval :     1096.12  1099.18  1099.81  1102.08  1108.84  1148.08
eigval :     1148.89  1154.66  1156.80  1168.87  1173.04  1175.56
eigval :     1177.10  1180.42  1197.49  1206.99  1216.53  1233.07
eigval :     1236.97  1238.23  1241.22  1256.40  1274.85  1289.75
eigval :     1292.51  1297.89  1308.31  1324.03  1326.56  1329.92
eigval :     1337.20  1350.42  1371.38  1382.06  1394.46  1399.35
eigval :     1402.87  1409.74  1414.16  1428.68  1439.11  1446.07
eigval :     1459.23  1480.96  1502.41  1519.91  1534.18  1543.35
eigval :     1545.03  1554.69  1559.95  1562.20  1571.05  1579.58
eigval :     3060.06  3063.28  3066.74  3075.83  3080.27  3087.34
eigval :     3088.31  3088.45  3089.03  3089.95  3090.33  3091.13
eigval :     3092.33  3098.75  3104.44  3106.11  3106.33  3106.55
eigval :     3109.80  3113.82  3118.08

   temp. (K)  partition function   enthalpy   heat capacity  entropy
                                   cal/mol     cal/K/mol   cal/K/mol   J/K/mol
 298.15  VIB  0.591E+13            17160.794    111.539    104.359
         ROT  0.270E+08              888.752      2.981     36.982
         INT  0.159E+21            18049.546    114.520    141.341
         TR   0.116E+29             1481.254      4.968     44.633
         TOT                       19530.8004   119.4877   185.9736   778.1137

       T/K    H(0)-H(T)+PV         H(T)/Eh          T*S/Eh         G(T)/Eh
   ------------------------------------------------------------------------
    298.15    0.311243E-01    0.463186E+00    0.883621E-01    0.374824E+00
   ------------------------------------------------------------------------

         :::::::::::::::::::::::::::::::::::::::::::::::::::::
         ::                  THERMODYNAMIC                  ::
         :::::::::::::::::::::::::::::::::::::::::::::::::::::
         :: total free energy         -96.266436787997 Eh   ::
         ::.................................................::
         :: total energy              -96.641260994362 Eh   ::
         :: zero point energy           0.432061974307 Eh   ::
         :: G(RRHO) w/o ZPVE           -0.057237767942 Eh   ::
         :: G(RRHO) contrib.            0.374824206365 Eh   ::
         :::::::::::::::::::::::::::::::::::::::::::::::::::::

           -------------------------------------------------
          | TOTAL ENERGY              -96.641260994362 Eh   |
          | TOTAL ENTHALPY            -96.178074708462 Eh   |
          | TOTAL FREE ENERGY         -96.266436787997 Eh   |
          | GRADIENT NORM               0.000043909570 Eh/α |
          | HOMO-LUMO GAP               0.280060874479 eV   |
           -------------------------------------------------

 * finished run on 2025/08/22 at 15:10:24.788
