   * xtb version 6.7.1 (edcfbbe) compiled by 'albert@albert-system' on 2024-07-22

   ID    Z sym.   atoms
    1    6 C      1-6, 8-13, 15-22, 24-29, 31-37
    2   16 S      7, 30
    3    7 N      14, 23, 38
    4    1 H      39-59

          program call               : xtb data2507/toluene/Fens/Fens.xyz --gfn 2 --gbsa toluene --ohess vtight --parallel 40 --molden --ceasefiles --namespace data2507/toluene/Fens/Fens_toluene_S0_preOpt
      * Solvation model:               GBSA
        Solvent                        toluene
        Solvent mass                       9.2140E+01 g/mol
          :  Hamiltonian                  GFN2-xTB          :
 * total energy  :   -96.6847934 Eh     change       -0.5973817E-09 Eh
 * total energy  :   -96.7020009 Eh     change       -0.1720752E-01 Eh
 * total energy  :   -96.7086980 Eh     change       -0.6697170E-02 Eh
 * total energy  :   -96.7101390 Eh     change       -0.1440932E-02 Eh
 * total energy  :   -96.7109438 Eh     change       -0.8048405E-03 Eh
 * total energy  :   -96.7113468 Eh     change       -0.4030315E-03 Eh
 * total energy  :   -96.7116601 Eh     change       -0.3133084E-03 Eh
 * total energy  :   -96.7119575 Eh     change       -0.2973904E-03 Eh
 * total energy  :   -96.7121823 Eh     change       -0.2247209E-03 Eh
 * total energy  :   -96.7124053 Eh     change       -0.2230493E-03 Eh
 * total energy  :   -96.7200727 Eh     change       -0.1141368E-05 Eh
 * total energy  :   -96.7200738 Eh     change       -0.1124477E-05 Eh
 * total energy  :   -96.7200749 Eh     change       -0.1107338E-05 Eh
 * total energy  :   -96.7200760 Eh     change       -0.1085780E-05 Eh
 * total energy  :   -96.7200770 Eh     change       -0.1065274E-05 Eh
 * total energy  :   -96.7200781 Eh     change       -0.1040346E-05 Eh
 * total energy  :   -96.7200791 Eh     change       -0.1018457E-05 Eh
 * total energy  :   -96.7200801 Eh     change       -0.9923244E-06 Eh
 * total energy  :   -96.7200801 Eh     change       -0.8010971E-08 Eh
   *** GEOMETRY OPTIMIZATION CONVERGED AFTER 300 ITERATIONS ***

 final structure:
================
59
 xtb: 6.7.1 (edcfbbe)
C            0.63744517191333        3.15312687210412       -2.15683495800476
C            0.15072705400710        1.86492206806683       -2.30463514744155
C            0.63938633254932        0.83602081480468       -1.51976882081138
C            1.61337661342151        1.09109273640087       -0.56303803473993
C            2.12431414248449        2.38131454558178       -0.44700421043734
C            1.63572255099087        3.41090757064892       -1.23567050914210
S            3.42438914802354        2.71626220952297        0.71580606313948
C            4.26494338596402        1.15948263366094        0.58427033137164
C            5.64701510115145        1.10396822734114        0.68606034986048
C            6.29707833098978       -0.11184513803351        0.57679282894510
C            5.56987549559557       -1.26726462694618        0.33527948630060
C            4.19231827540718       -1.21239251760327        0.22447061624279
C            3.52278301368176       -0.00207214650173        0.37871196144407
N            2.11983859450684        0.07023501974916        0.27542590374573
C            1.27572083434333       -0.73513487973955        0.99470069132991
C            1.76335252990196       -1.53341260159849        2.07031778836667
C            0.87830898600752       -2.27097953571256        2.79524073419401
C           -0.50350123018301       -2.23196473072172        2.48554075777264
C           -1.49005171788562       -2.95138740618843        3.18216553805738
C           -2.81020248437101       -2.83177895202652        2.83557715915529
C           -3.19719700396835       -1.99063376419870        1.78203343439951
C           -2.25932021826908       -1.27910700437366        1.07964516727732
N           -2.64469340571646       -0.43022737171162       -0.00068732882169
C           -2.55813778651604       -0.97795428396020       -1.27936537726819
C           -2.13397271658884       -2.29683523264155       -1.45615948613377
C           -2.05513738634724       -2.87097656289735       -2.71258512560688
C           -2.38555398088755       -2.14050649912101       -3.83893280960118
C           -2.81042266212978       -0.83210835875081       -3.68697472000759
C           -2.90846504580005       -0.26320578735793       -2.42813819409051
S           -3.55040914780920        1.38666592757967       -2.33818246488469
C           -2.93330894569024        1.87971686850047       -0.75200587796974
C           -2.85918661004728        3.23980429435716       -0.50608390987475
C           -2.47967725695618        3.71067361825727        0.73816737769259
C           -2.18762067909992        2.79992930630878        1.73624272762377
C           -2.24667762316957        1.44098178228962        1.48561061051518
C           -2.59875830720427        0.94395408325338        0.22997281562131
C           -0.88432981111638       -1.38592526610081        1.41341366468626
N           -0.00230234640456       -0.67293327922105        0.69674463881142
H            0.24907711684281        3.95554970290204       -2.76463384294866
H           -0.61177840441161        1.65601357329375       -3.03870692262432
H            0.25761862068622       -0.16522615504146       -1.63005646720104
H            2.04003094957954        4.40436878656975       -1.11526888468720
H            6.19732791618043        2.01586575320647        0.85832214012628
H            7.37136052463388       -0.15440517385252        0.66641025409113
H            6.07529237618994       -2.21463681764773        0.22758833333819
H            3.62017922419940       -2.10666223180078        0.02532550364867
H            2.81247509675810       -1.52184572989718        2.31955081116319
H            1.21547600109897       -2.87858327595098        3.62343778383211
H           -1.18891972841943       -3.59612193867781        3.99528917375936
H           -3.56708671022316       -3.38275087368520        3.37266770332769
H           -4.24028017337312       -1.90149199593342        1.51625586848172
H           -1.86598581279797       -2.88553197395053       -0.59282374233605
H           -1.73018153663020       -3.89675508191107       -2.80324367563779
H           -2.32273125096854       -2.57938484369041       -4.82236034960141
H           -3.08883402012505       -0.23829751215819       -4.54485900567888
H           -3.12119987409977        3.92377870353903       -1.29940597646056
H           -2.42904190995004        4.77205525234891        0.92418601755749
H           -1.91059312616620        3.14188213881845        2.72242362314269
H           -2.01987447382602        0.75176406057124        2.28377298302700

          :  Hamiltonian                  GFN2-xTB          :
         :: gradient norm              0.000071509988 Eh/a0 ::
         :: HOMO-LUMO gap              1.647619602166 eV    ::
         :: SCC energy               -98.406192387815 Eh    ::
         :: -> dispersion             -0.098002351975 Eh    ::
         :: -> Gsolv                  -0.038050658547 Eh    ::
         :: repulsion energy           1.686112287883 Eh    ::

    * Orbital Energies and Occupations

         #    Occupation            Energy/Eh            Energy/eV
      -------------------------------------------------------------
         1        2.0000           -0.7270180             -19.7832
       ...           ...                  ...                  ...
        78        2.0000           -0.4281285             -11.6500
        79        2.0000           -0.4228967             -11.5076
        80        2.0000           -0.4210450             -11.4572
        81        2.0000           -0.4202700             -11.4361
        82        2.0000           -0.4178543             -11.3704
        83        2.0000           -0.4123640             -11.2210
        84        2.0000           -0.4097450             -11.1497
        85        2.0000           -0.4034708             -10.9790
        86        2.0000           -0.3862611             -10.5107
        87        2.0000           -0.3809528             -10.3663
        88        2.0000           -0.3749060             -10.2017
        89        2.0000           -0.3616051              -9.8398
        90        2.0000           -0.3407821              -9.2732 (HOMO)
        91                         -0.2802332              -7.6255 (LUMO)
        92                         -0.2500066              -6.8030
        93                         -0.2478542              -6.7445
        94                         -0.2416156              -6.5747
        95                         -0.2399178              -6.5285
        96                         -0.2371972              -6.4545
        97                         -0.2299660              -6.2577
        98                         -0.2283026              -6.2124
        99                         -0.2255959              -6.1388
       100                         -0.2099323              -5.7125
       101                         -0.2065478              -5.6205
       ...                                ...                  ...
       183                          0.6817986              18.5527
      -------------------------------------------------------------
                  HL-Gap            0.0605489 Eh            1.6476 eV

     #   Z          covCN         q      C6AA      α(0)
     1   6 C        2.920    -0.031    28.776     8.797
     2   6 C        2.920    -0.030    28.752     8.793
     3   6 C        2.923    -0.037    28.924     8.820
     4   6 C        2.968     0.066    26.510     8.445
     5   6 C        2.973     0.035    27.220     8.558
     6   6 C        2.962    -0.039    28.960     8.827
     7  16 S        2.112    -0.154   147.545    20.444
     8   6 C        2.971     0.037    27.172     8.550
     9   6 C        2.957    -0.037    28.910     8.819
    10   6 C        2.920    -0.031    28.781     8.798
    11   6 C        2.919    -0.032    28.789     8.799
    12   6 C        2.923    -0.045    29.123     8.850
    13   6 C        2.968     0.056    26.737     8.482
    14   7 N        2.760    -0.073    22.647     7.068
    15   6 C        2.896     0.163    24.492     8.114
    16   6 C        2.911    -0.063    29.565     8.916
    17   6 C        2.922    -0.021    28.519     8.758
    18   6 C        2.983    -0.014    28.352     8.734
    19   6 C        2.915    -0.038    28.951     8.823
    20   6 C        2.916    -0.036    28.890     8.814
    21   6 C        2.918    -0.042    29.047     8.838
    22   6 C        2.936     0.055    26.774     8.486
    23   7 N        2.748    -0.074    22.677     7.073
    24   6 C        2.950     0.069    26.463     8.437
    25   6 C        2.928    -0.057    29.417     8.895
    26   6 C        2.919    -0.036    28.895     8.815
    27   6 C        2.918    -0.042    29.038     8.837
    28   6 C        2.981    -0.042    29.038     8.839
    29   6 C        2.972     0.033    27.255     8.563
    30  16 S        2.132    -0.176   148.512    20.511
    31   6 C        2.973     0.032    27.270     8.566
    32   6 C        2.983    -0.043    29.050     8.841
    33   6 C        2.919    -0.042    29.053     8.839
    34   6 C        2.919    -0.036    28.902     8.816
    35   6 C        2.928    -0.055    29.360     8.886
    36   6 C        2.949     0.071    26.419     8.430
    37   6 C        2.968     0.089    26.017     8.367
    38   7 N        1.854    -0.296    28.528     7.916
    39   1 H        0.926     0.051     2.308     2.376
    40   1 H        0.926     0.048     2.349     2.397
    41   1 H        0.926     0.052     2.289     2.366
    42   1 H        0.926     0.052     2.299     2.371
    43   1 H        0.926     0.055     2.261     2.351
    44   1 H        0.926     0.053     2.278     2.360
    45   1 H        0.926     0.052     2.298     2.371
    46   1 H        0.926     0.045     2.389     2.417
    47   1 H        0.926     0.039     2.463     2.454
    48   1 H        0.926     0.044     2.395     2.420
    49   1 H        0.926     0.044     2.390     2.418
    50   1 H        0.926     0.047     2.363     2.404
    51   1 H        0.926     0.046     2.368     2.406
    52   1 H        0.926     0.027     2.623     2.532
    53   1 H        0.926     0.036     2.498     2.472
    54   1 H        0.926     0.039     2.459     2.452
    55   1 H        0.926     0.043     2.414     2.430
    56   1 H        0.926     0.043     2.415     2.430
    57   1 H        0.926     0.039     2.468     2.457
    58   1 H        0.926     0.035     2.518     2.482
    59   1 H        0.926     0.027     2.634     2.538

molecular dipole:
                 x           y           z       tot (Debye)
 q only:        1.205      -0.856       0.360
   full:        1.394      -1.392       0.799       5.404

 projected vibrational frequencies (cm⁻¹)
eigval :       -0.00    -0.00    -0.00     0.00     0.00     0.00
eigval :       13.34    16.94    27.74    30.68    35.79    58.73
eigval :       63.15    67.95    94.39   104.46   110.72   131.37
eigval :      152.89   161.47   173.02   182.06   200.02   217.24
eigval :      228.57   233.15   264.50   281.66   292.63   303.74
eigval :      333.15   347.52   350.88   368.13   371.75   381.78
eigval :      401.33   409.91   413.32   421.29   423.71   425.30
eigval :      435.50   472.02   484.05   492.79   492.88   496.51
eigval :      503.37   509.79   525.18   536.11   544.02   566.09
eigval :      587.04   592.74   607.61   644.51   649.00   651.64
eigval :      654.38   657.89   658.97   681.24   690.77   697.01
eigval :      702.37   713.59   734.96   767.84   773.80   776.16
eigval :      778.93   787.39   810.92   824.88   833.62   856.81
eigval :      860.02   873.62   879.46   881.19   893.04   896.21
eigval :      902.49   905.70   906.77   909.73   912.87   912.96
eigval :      916.07   921.58   921.77   922.92   929.63   985.07
eigval :     1025.76  1040.28  1041.34  1059.00  1086.35  1087.48
eigval :     1088.99  1101.93  1102.98  1106.28  1147.34  1150.52
eigval :     1153.65  1155.98  1161.24  1173.05  1175.48  1177.62
eigval :     1179.80  1185.56  1207.28  1214.48  1228.44  1228.67
eigval :     1240.19  1243.51  1253.69  1282.37  1285.91  1307.72
eigval :     1309.97  1316.51  1317.20  1319.84  1330.50  1333.73
eigval :     1359.37  1378.52  1409.36  1412.80  1415.16  1421.23
eigval :     1425.04  1444.44  1452.47  1457.67  1468.63  1476.54
eigval :     1487.95  1540.22  1556.18  1563.14  1568.98  1570.96
eigval :     1571.57  1575.21  1580.82  1587.16  1594.66  1597.40
eigval :     3066.87  3074.66  3079.44  3081.06  3083.10  3084.87
eigval :     3085.34  3085.45  3089.42  3091.74  3095.45  3097.20
eigval :     3097.29  3097.66  3098.20  3099.87  3103.15  3104.12
eigval :     3104.59  3106.40  3122.81

   temp. (K)  partition function   enthalpy   heat capacity  entropy
                                   cal/mol     cal/K/mol   cal/K/mol   J/K/mol
 298.15  VIB  0.218E+13            16947.771    110.504    102.916
         ROT  0.290E+08              888.752      2.981     37.125
         INT  0.633E+20            17836.523    113.485    140.041
         TR   0.116E+29             1481.254      4.968     44.633
         TOT                       19317.7771   118.4531   184.6742   772.6769

       T/K    H(0)-H(T)+PV         H(T)/Eh          T*S/Eh         G(T)/Eh
   ------------------------------------------------------------------------
    298.15    0.307848E-01    0.466604E+00    0.877447E-01    0.378859E+00
   ------------------------------------------------------------------------

         :::::::::::::::::::::::::::::::::::::::::::::::::::::
         ::                  THERMODYNAMIC                  ::
         :::::::::::::::::::::::::::::::::::::::::::::::::::::
         :: total free energy         -96.341220727083 Eh   ::
         ::.................................................::
         :: total energy              -96.720080092916 Eh   ::
         :: zero point energy           0.435819201812 Eh   ::
         :: G(RRHO) w/o ZPVE           -0.056959835978 Eh   ::
         :: G(RRHO) contrib.            0.378859365834 Eh   ::
         :::::::::::::::::::::::::::::::::::::::::::::::::::::

           -------------------------------------------------
          | TOTAL ENERGY              -96.720080092916 Eh   |
          | TOTAL ENTHALPY            -96.253476053693 Eh   |
          | TOTAL FREE ENERGY         -96.341220727083 Eh   |
          | GRADIENT NORM               0.000071512317 Eh/α |
          | HOMO-LUMO GAP               1.647619240509 eV   |
           -------------------------------------------------

 * finished run on 2025/08/22 at 15:03:32.829
