   * xtb version 6.7.1 (edcfbbe) compiled by 'albert@albert-system' on 2024-07-22

   ID    Z sym.   atoms
    1    6 C      1-6, 8-13, 15-22, 24-29, 31-37
    2   16 S      7, 30
    3    7 N      14, 23, 38
    4    1 H      39-59

          program call               : xtb data2507/toluene/Fens/Fens_toluene_S0_crest.xyz --gfn 2 --gbsa toluene --ohess vtight --parallel 40 --molden --ceasefiles --namespace data2507/toluene/Fens/Fens_toluene_S0_finalOpt
      * Solvation model:               GBSA
        Solvent                        toluene
        Solvent mass                       9.2140E+01 g/mol
          :  Hamiltonian                  GFN2-xTB          :
 * total energy  :   -96.7192958 Eh     change       -0.2853469E-08 Eh
 * total energy  :   -96.7193536 Eh     change       -0.5777069E-04 Eh
 * total energy  :   -96.7194475 Eh     change       -0.9390899E-04 Eh
 * total energy  :   -96.7194924 Eh     change       -0.4489464E-04 Eh
 * total energy  :   -96.7195938 Eh     change       -0.1014389E-03 Eh
 * total energy  :   -96.7196771 Eh     change       -0.8329618E-04 Eh
 * total energy  :   -96.7196782 Eh     change       -0.1099386E-05 Eh
 * total energy  :   -96.7197132 Eh     change       -0.3501016E-04 Eh
 * total energy  :   -96.7197624 Eh     change       -0.4921124E-04 Eh
 * total energy  :   -96.7197907 Eh     change       -0.2828844E-04 Eh
 * total energy  :   -96.7201337 Eh     change       -0.8384984E-06 Eh
 * total energy  :   -96.7201346 Eh     change       -0.8679405E-06 Eh
 * total energy  :   -96.7201354 Eh     change       -0.8393355E-06 Eh
 * total energy  :   -96.7201363 Eh     change       -0.8295095E-06 Eh
 * total energy  :   -96.7201370 Eh     change       -0.7747927E-06 Eh
 * total energy  :   -96.7201378 Eh     change       -0.7442958E-06 Eh
 * total energy  :   -96.7201385 Eh     change       -0.6844438E-06 Eh
 * total energy  :   -96.7201391 Eh     change       -0.6628675E-06 Eh
 * total energy  :   -96.7201391 Eh     change       -0.5098826E-08 Eh
   *** GEOMETRY OPTIMIZATION CONVERGED AFTER 94 ITERATIONS ***

 final structure:
================
59
 xtb: 6.7.1 (edcfbbe)
C            0.48333311909800        3.51195788476123       -0.61454137995328
C           -0.16366327533089        2.48660740751599       -1.28463751149042
C            0.36634761469035        1.20928395072115       -1.28905164245608
C            1.54736677484294        0.94252159101905       -0.60880263284251
C            2.20789456535282        1.98464110057505        0.03496407107890
C            1.67771473843814        3.26531843267540        0.03650176092937
S            3.75400490352225        1.67456853498554        0.85152070672481
C            4.37275172031563        0.44910006168949       -0.27300381174845
C            5.73117218548021        0.37976347573941       -0.54393833365528
C            6.20850561426340       -0.56598013310527       -1.43286851200776
C            5.32610701193186       -1.42048085984794       -2.07554100356256
C            3.97015321005192       -1.34872012934765       -1.81137982543417
C            3.48341320957149       -0.43628300079369       -0.88032412405148
N            2.10803731472996       -0.35686356372791       -0.58423142843586
C            1.35618263910178       -1.42638081771887       -0.17516327182105
C            1.94492693882041       -2.69859464634099        0.08052799073144
C            1.15184466553706       -3.71154228981434        0.52657168747493
C           -0.22842444069128       -3.48966628499280        0.75460749061147
C           -1.11992511277183       -4.46632256672798        1.23196669921493
C           -2.43119491326575       -4.14982104465330        1.47242142374560
C           -2.90318622487521       -2.84713800083238        1.25282854773633
C           -2.06167740078482       -1.87407329482540        0.77980271512915
N           -2.52570211316698       -0.54294653022820        0.55861685992529
C           -2.94745764859424       -0.24103507351146       -0.73510333672317
C           -2.94414584113733       -1.22628937916084       -1.72494165000404
C           -3.37968879546367       -0.96392965525958       -3.01174252932119
C           -3.82087834818838        0.29982591527623       -3.35784796881175
C           -3.82902953288610        1.29256562762613       -2.39364887463569
C           -3.41110773719278        1.02553498560332       -1.10043084446236
S           -3.53371752460269        2.34835700112871        0.07269005678383
C           -2.39930483400070        1.78307644286186        1.30965544852858
C           -1.90732736334400        2.73607762850027        2.18475086541617
C           -1.10027566966813        2.36844448987412        3.24646497895577
C           -0.80896777036771        1.02978653047374        3.43031854604062
C           -1.28733595135125        0.07974225488143        2.54628958562750
C           -2.07100739809830        0.43193040318792        1.44609553292569
C           -0.70252187131293       -2.17677563074719        0.50673755444056
N            0.08054055580758       -1.19378070359040        0.03967793633608
H            0.06437635373708        4.50624118693147       -0.60682272722847
H           -1.08576073912740        2.68001090861965       -1.81041034588642
H           -0.13897571174521        0.40857326205016       -1.80392404403964
H            2.20288365297589        4.05373568833376        0.55357203492048
H            6.40051993155813        1.06589209828621       -0.04873852217083
H            7.26670641295810       -0.62511238843167       -1.63439907314060
H            5.69213649810848       -2.14264364817284       -2.78900211076216
H            3.27609977045093       -2.00215441604317       -2.31903880990999
H            3.00537177462938       -2.84180479687128       -0.05101746737252
H            1.56912686180994       -4.68747961096672        0.73234388137950
H           -0.75142481239509       -5.46610830566577        1.41150247952867
H           -3.11364702362705       -4.89981844320156        1.84218532893973
H           -3.93569575898418       -2.60427749475239        1.45682190525700
H           -2.59764722587322       -2.21833265025115       -1.48026432928833
H           -3.36821876746645       -1.75771269948235       -3.74375824665212
H           -4.15890148167594        0.51390791304488       -4.35964162440423
H           -4.17646296267555        2.28781013447306       -2.62820976231787
H           -2.18190693061680        3.76895534378860        2.03144100057673
H           -0.72205231601294        3.11662220309295        3.92535422249224
H           -0.20441705840515        0.71296935726908        4.26728417745672
H           -1.05136978848650       -0.95844678814329        2.71934113047583

          :  Hamiltonian                  GFN2-xTB          :
         :: gradient norm              0.000060563038 Eh/a0 ::
         :: HOMO-LUMO gap              1.650289646733 eV    ::
         :: SCC energy               -98.406337196889 Eh    ::
         :: -> dispersion             -0.098874926040 Eh    ::
         :: -> Gsolv                  -0.037791622097 Eh    ::
         :: repulsion energy           1.686198062229 Eh    ::

    * Orbital Energies and Occupations

         #    Occupation            Energy/Eh            Energy/eV
      -------------------------------------------------------------
         1        2.0000           -0.7269493             -19.7813
       ...           ...                  ...                  ...
        78        2.0000           -0.4278301             -11.6418
        79        2.0000           -0.4227700             -11.5042
        80        2.0000           -0.4209926             -11.4558
        81        2.0000           -0.4200655             -11.4306
        82        2.0000           -0.4178778             -11.3710
        83        2.0000           -0.4122345             -11.2175
        84        2.0000           -0.4094091             -11.1406
        85        2.0000           -0.4032755             -10.9737
        86        2.0000           -0.3858019             -10.4982
        87        2.0000           -0.3806695             -10.3585
        88        2.0000           -0.3744033             -10.1880
        89        2.0000           -0.3617286              -9.8431
        90        2.0000           -0.3404530              -9.2642 (HOMO)
        91                         -0.2798059              -7.6139 (LUMO)
        92                         -0.2496508              -6.7933
        93                         -0.2477750              -6.7423
        94                         -0.2413956              -6.5687
        95                         -0.2400498              -6.5321
        96                         -0.2372662              -6.4563
        97                         -0.2298402              -6.2543
        98                         -0.2283383              -6.2134
        99                         -0.2252595              -6.1296
       100                         -0.2097181              -5.7067
       101                         -0.2064807              -5.6186
       ...                                ...                  ...
       183                          0.6829456              18.5839
      -------------------------------------------------------------
                  HL-Gap            0.0606470 Eh            1.6503 eV

     #   Z          covCN         q      C6AA      α(0)
     1   6 C        2.921    -0.030    28.757     8.794
     2   6 C        2.920    -0.030    28.740     8.791
     3   6 C        2.923    -0.036    28.894     8.815
     4   6 C        2.972     0.068    26.483     8.441
     5   6 C        2.973     0.035    27.211     8.556
     6   6 C        2.960    -0.039    28.956     8.826
     7  16 S        2.111    -0.153   147.523    20.442
     8   6 C        2.971     0.037    27.167     8.550
     9   6 C        2.958    -0.037    28.908     8.819
    10   6 C        2.920    -0.031    28.777     8.797
    11   6 C        2.919    -0.032    28.792     8.799
    12   6 C        2.922    -0.045    29.125     8.850
    13   6 C        2.966     0.056    26.742     8.482
    14   7 N        2.761    -0.073    22.660     7.070
    15   6 C        2.896     0.163    24.484     8.113
    16   6 C        2.911    -0.064    29.590     8.920
    17   6 C        2.922    -0.020    28.518     8.757
    18   6 C        2.983    -0.014    28.362     8.736
    19   6 C        2.915    -0.039    28.957     8.824
    20   6 C        2.916    -0.036    28.899     8.815
    21   6 C        2.917    -0.042    29.055     8.839
    22   6 C        2.937     0.055    26.772     8.486
    23   7 N        2.748    -0.074    22.682     7.073
    24   6 C        2.950     0.069    26.463     8.437
    25   6 C        2.928    -0.057    29.418     8.895
    26   6 C        2.919    -0.036    28.895     8.815
    27   6 C        2.918    -0.042    29.039     8.837
    28   6 C        2.981    -0.042    29.040     8.840
    29   6 C        2.972     0.034    27.246     8.562
    30  16 S        2.133    -0.175   148.470    20.508
    31   6 C        2.973     0.032    27.281     8.567
    32   6 C        2.985    -0.043    29.059     8.843
    33   6 C        2.919    -0.042    29.055     8.839
    34   6 C        2.919    -0.036    28.905     8.816
    35   6 C        2.928    -0.055    29.355     8.885
    36   6 C        2.949     0.071    26.402     8.428
    37   6 C        2.969     0.089    26.010     8.365
    38   7 N        1.856    -0.298    28.563     7.921
    39   1 H        0.926     0.051     2.302     2.373
    40   1 H        0.926     0.048     2.347     2.396
    41   1 H        0.926     0.050     2.323     2.383
    42   1 H        0.926     0.052     2.299     2.371
    43   1 H        0.926     0.055     2.259     2.350
    44   1 H        0.926     0.054     2.276     2.359
    45   1 H        0.926     0.052     2.296     2.369
    46   1 H        0.926     0.046     2.372     2.408
    47   1 H        0.926     0.039     2.456     2.451
    48   1 H        0.926     0.044     2.400     2.423
    49   1 H        0.926     0.044     2.396     2.420
    50   1 H        0.926     0.046     2.368     2.406
    51   1 H        0.926     0.046     2.371     2.408
    52   1 H        0.926     0.028     2.617     2.530
    53   1 H        0.926     0.037     2.495     2.470
    54   1 H        0.926     0.039     2.458     2.451
    55   1 H        0.926     0.043     2.415     2.430
    56   1 H        0.926     0.042     2.423     2.434
    57   1 H        0.926     0.038     2.472     2.459
    58   1 H        0.926     0.035     2.522     2.484
    59   1 H        0.926     0.026     2.640     2.541

molecular dipole:
                 x           y           z       tot (Debye)
 q only:        1.112      -0.924      -0.630
   full:        1.317      -1.635      -0.645       5.581

 projected vibrational frequencies (cm⁻¹)
eigval :       -0.00    -0.00     0.00     0.00     0.00     0.00
eigval :       10.02    20.33    29.03    29.89    39.56    56.94
eigval :       64.80    68.65    93.55   102.67   111.21   131.30
eigval :      154.78   162.76   174.30   182.75   199.96   217.84
eigval :      227.67   232.48   262.91   281.58   292.68   303.17
eigval :      333.04   346.63   351.38   368.86   371.85   380.69
eigval :      401.76   408.89   411.46   420.94   424.13   425.37
eigval :      434.25   472.38   483.53   492.01   493.38   496.34
eigval :      503.17   510.41   526.22   536.64   544.48   565.39
eigval :      588.20   591.91   607.33   644.17   648.06   651.40
eigval :      654.50   656.54   658.65   681.57   690.49   697.02
eigval :      702.30   713.61   735.72   761.68   768.12   776.66
eigval :      778.76   785.85   811.00   824.86   831.31   852.01
eigval :      858.86   873.46   879.21   881.25   889.30   891.44
eigval :      897.00   905.68   906.54   909.73   910.07   911.14
eigval :      912.17   914.70   920.44   925.48   929.56   985.12
eigval :     1025.89  1040.61  1041.64  1059.04  1084.86  1087.55
eigval :     1089.55  1101.79  1104.00  1105.59  1146.35  1150.28
eigval :     1152.70  1155.21  1160.54  1171.83  1172.80  1177.18
eigval :     1179.23  1184.98  1207.74  1214.42  1228.32  1228.86
eigval :     1240.22  1244.08  1253.73  1281.60  1285.35  1307.26
eigval :     1309.66  1316.10  1317.21  1320.23  1331.78  1333.83
eigval :     1359.78  1380.13  1408.74  1412.34  1415.41  1420.69
eigval :     1425.61  1444.03  1452.28  1457.86  1467.91  1476.68
eigval :     1488.59  1540.03  1556.14  1562.87  1569.00  1571.31
eigval :     1571.49  1574.88  1580.87  1587.10  1594.44  1597.52
eigval :     3066.43  3074.17  3078.43  3079.71  3083.49  3084.80
eigval :     3084.93  3086.13  3089.93  3092.04  3095.48  3096.20
eigval :     3097.10  3097.55  3097.98  3102.15  3103.24  3103.57
eigval :     3104.37  3106.77  3114.70

   temp. (K)  partition function   enthalpy   heat capacity  entropy
                                   cal/mol     cal/K/mol   cal/K/mol   J/K/mol
 298.15  VIB  0.219E+13            16951.922    110.678    103.053
         ROT  0.284E+08              888.752      2.981     37.083
         INT  0.620E+20            17840.674    113.659    140.136
         TR   0.116E+29             1481.254      4.968     44.633
         TOT                       19321.9281   118.6271   184.7688   773.0727

       T/K    H(0)-H(T)+PV         H(T)/Eh          T*S/Eh         G(T)/Eh
   ------------------------------------------------------------------------
    298.15    0.307915E-01    0.466454E+00    0.877896E-01    0.378664E+00
   ------------------------------------------------------------------------

         :::::::::::::::::::::::::::::::::::::::::::::::::::::
         ::                  THERMODYNAMIC                  ::
         :::::::::::::::::::::::::::::::::::::::::::::::::::::
         :: total free energy         -96.341474950788 Eh   ::
         ::.................................................::
         :: total energy              -96.720139140709 Eh   ::
         :: zero point energy           0.435662364531 Eh   ::
         :: G(RRHO) w/o ZPVE           -0.056998174610 Eh   ::
         :: G(RRHO) contrib.            0.378664189922 Eh   ::
         :::::::::::::::::::::::::::::::::::::::::::::::::::::

           -------------------------------------------------
          | TOTAL ENERGY              -96.720139140709 Eh   |
          | TOTAL ENTHALPY            -96.253685323751 Eh   |
          | TOTAL FREE ENERGY         -96.341474950788 Eh   |
          | GRADIENT NORM               0.000060562883 Eh/α |
          | HOMO-LUMO GAP               1.650290130154 eV   |
           -------------------------------------------------

 * finished run on 2025/08/22 at 15:06:10.636
