   * xtb version 6.7.1 (edcfbbe) compiled by 'albert@albert-system' on 2024-07-22

   ID    Z sym.   atoms
    1    6 C      1-6, 8-13, 15-22, 24-29, 31-37
    2   16 S      7, 30
    3    7 N      14, 23, 38
    4    1 H      39-59

          program call               : xtb data2507/toluene/Fens/Fens_toluene_S0_finalOpt.xtbopt.xyz --gfn 2 --uhf 2 --gbsa toluene --ohess vtight --parallel 40 --molden --ceasefiles --namespace data2507/toluene/Fens/Fens_toluene_T1_preOpt
      * Solvation model:               GBSA
        Solvent                        toluene
        Solvent mass                       9.2140E+01 g/mol
          :  Hamiltonian                  GFN2-xTB          :
 * total energy  :   -96.6331410 Eh     change       -0.3193435E-08 Eh
 * total energy  :   -96.6366977 Eh     change       -0.3556714E-02 Eh
 * total energy  :   -96.6378350 Eh     change       -0.1137268E-02 Eh
 * total energy  :   -96.6380052 Eh     change       -0.1702369E-03 Eh
 * total energy  :   -96.6381862 Eh     change       -0.1810189E-03 Eh
 * total energy  :   -96.6382991 Eh     change       -0.1128853E-03 Eh
 * total energy  :   -96.6384417 Eh     change       -0.1426120E-03 Eh
 * total energy  :   -96.6386024 Eh     change       -0.1606819E-03 Eh
 * total energy  :   -96.6387361 Eh     change       -0.1336456E-03 Eh
 * total energy  :   -96.6388494 Eh     change       -0.1133160E-03 Eh
 * total energy  :   -96.6401735 Eh     change       -0.4823924E-06 Eh
 * total energy  :   -96.6401739 Eh     change       -0.4587558E-06 Eh
 * total energy  :   -96.6401744 Eh     change       -0.4605057E-06 Eh
 * total energy  :   -96.6401749 Eh     change       -0.4719123E-06 Eh
 * total energy  :   -96.6401754 Eh     change       -0.4688553E-06 Eh
 * total energy  :   -96.6401758 Eh     change       -0.4406116E-06 Eh
 * total energy  :   -96.6401762 Eh     change       -0.4049732E-06 Eh
 * total energy  :   -96.6401766 Eh     change       -0.3603681E-06 Eh
 * total energy  :   -96.6401766 Eh     change       -0.1417430E-07 Eh
   *** GEOMETRY OPTIMIZATION CONVERGED AFTER 94 ITERATIONS ***

 final structure:
================
59
 xtb: 6.7.1 (edcfbbe)
C            0.50199843729474        3.43324460379564       -0.76072804080731
C           -0.01846487164671        2.33625217669229       -1.43148192788846
C            0.57858878681908        1.09668463014150       -1.31779443596673
C            1.70453968192126        0.92800769968640       -0.51213881989149
C            2.24015018838968        2.04674221637936        0.12844454859094
C            1.64177039740764        3.28991090198934        0.01061488768867
S            3.69755479750455        1.86372361621746        1.12087722968374
C            4.49186478568132        0.62214121277959        0.13626486440992
C            5.87214065496727        0.62091409975918        0.01378994415031
C            6.49493953834581       -0.33630484337387       -0.76687102036703
C            5.72967433867195       -1.26718283406598       -1.45504438197589
C            4.35340103156920       -1.26444096533279       -1.33859128622566
C            3.71293035136976       -0.34325764975047       -0.50871507656185
N            2.31993561250796       -0.32442388138874       -0.37196301651921
C            1.55165919771980       -1.44598112743224       -0.09068178892728
C            2.07679762818707       -2.70947231378551        0.14211192389492
C            1.20788016941313       -3.75315352690396        0.44384886303965
C           -0.18036277203166       -3.52163550105012        0.53963705606040
C           -1.12752250552058       -4.50342032950700        0.85053980745254
C           -2.48151512274955       -4.17899688362695        0.97687352930323
C           -2.91102668252916       -2.88492532956833        0.80523118076169
C           -1.98500595794634       -1.86699557327941        0.50983099291320
N           -2.42386545154627       -0.53520090454460        0.31952548826005
C           -3.22814777369517       -0.26385639161620       -0.77506453630879
C           -3.54586423695350       -1.28922321530202       -1.68081713413248
C           -4.39178631145084       -1.08054541158539       -2.74812904325065
C           -4.94980220851507        0.17247249157906       -2.97121718721939
C           -4.60731830746220        1.21306863553939       -2.13383705633823
C           -3.75011990192037        1.00942668483334       -1.05692259077906
S           -3.33306186658839        2.44002893318480       -0.12793709875389
C           -2.14898721275675        1.80986460245537        1.00082375254543
C           -1.53127499691768        2.75100070041788        1.81692514719045
C           -0.66801104480212        2.35634013837282        2.81683055960217
C           -0.47457153467942        0.99841360242583        3.03981366453146
C           -1.08582690419627        0.06289327659910        2.23589548787811
C           -1.89491495498630        0.43707521381163        1.14992995889656
C           -0.60651516100492       -2.16830242123981        0.35875649412599
N            0.23815405376874       -1.18432640366661        0.06434129011364
H            0.03308951013761        4.40042202824979       -0.85127134575556
H           -0.88902934998764        2.45089313860735       -2.05961345189630
H            0.18159251450001        0.24381660678623       -1.84408500383496
H            2.07246382304285        4.13218441779010        0.52974078886335
H            6.44573712045118        1.37017172798436        0.53739570226732
H            7.57029485768864       -0.34463039880736       -0.85167699150698
H            6.20703659636008       -1.99474150783866       -2.09385634540893
H            3.75591583655209       -1.96972990440878       -1.89631397256336
H            3.13899346478580       -2.89025072239711        0.10411704778794
H            1.59324786471573       -4.74906727284738        0.60785976655104
H           -0.79595723454497       -5.51786461363113        1.01989837527906
H           -3.19099220429576       -4.95284901252554        1.23162827858654
H           -3.95220894177486       -2.62299961585799        0.92457056464169
H           -3.10685152784925       -2.26303351618791       -1.53779945927357
H           -4.61162242710336       -1.90006074626981       -3.41483604697669
H           -5.62092480762605        0.33785691823617       -3.79868332621548
H           -4.99141387507874        2.20791424395078       -2.30009843265004
H           -1.75096927677839        3.79492579817608        1.65490700354537
H           -0.17762272631626        3.09138474312492        3.43472442853984
H            0.15352949317744        0.66672933808176        3.85252943169347
H           -0.94991306079346       -0.98434629408781        2.44833656999467

          :  Hamiltonian                  GFN2-xTB          :
         :: gradient norm              0.000050808645 Eh/a0 ::
         :: HOMO-LUMO gap              0.166106102020 eV    ::
         :: SCC energy               -98.310983820057 Eh    ::
         :: -> dispersion             -0.100263062607 Eh    ::
         :: -> Gsolv                  -0.038389733830 Eh    ::
         :: repulsion energy           1.670807249741 Eh    ::

    * Orbital Energies and Occupations

         #    Occupation            Energy/Eh            Energy/eV
      -------------------------------------------------------------
         1        2.0000           -0.7416475             -20.1813
       ...           ...                  ...                  ...
        79        2.0000           -0.4246134             -11.5543
        80        2.0000           -0.4219590             -11.4821
        81        2.0000           -0.4189084             -11.3991
        82        2.0000           -0.4170418             -11.3483
        83        2.0000           -0.4141216             -11.2688
        84        2.0000           -0.4067351             -11.0678
        85        2.0000           -0.3952825             -10.7562
        86        2.0000           -0.3824958             -10.4082
        87        2.0000           -0.3728595             -10.1460
        88        1.9999           -0.3610216              -9.8239
        89        1.9688           -0.3550677              -9.6619
        90        1.0313           -0.3485425              -9.4843
        91        0.9613           -0.2640413              -7.1849 (HOMO)
        92        0.0387           -0.2579369              -7.0188 (LUMO)
        93                         -0.2453305              -6.6758
        94                         -0.2426220              -6.6021
        95                         -0.2389857              -6.5031
        96                         -0.2372298              -6.4554
        97                         -0.2353997              -6.4056
        98                         -0.2318657              -6.3094
        99                         -0.2169085              -5.9024
       100                         -0.2114980              -5.7552
       101                         -0.2092065              -5.6928
       102                         -0.2045705              -5.5666
       ...                                ...                  ...
       183                          0.6971368              18.9701
      -------------------------------------------------------------
                  HL-Gap            0.0061044 Eh            0.1661 eV

     #   Z          covCN         q      C6AA      α(0)
     1   6 C        2.920    -0.036    28.900     8.816
     2   6 C        2.919    -0.034    28.844     8.807
     3   6 C        2.923    -0.039    28.976     8.827
     4   6 C        2.975     0.070    26.424     8.432
     5   6 C        2.972     0.032    27.283     8.568
     6   6 C        2.960    -0.041    29.013     8.835
     7  16 S        2.117    -0.137   146.801    20.392
     8   6 C        2.972     0.033    27.263     8.565
     9   6 C        2.960    -0.038    28.947     8.825
    10   6 C        2.920    -0.035    28.881     8.813
    11   6 C        2.918    -0.032    28.805     8.801
    12   6 C        2.922    -0.047    29.160     8.855
    13   6 C        2.967     0.058    26.693     8.474
    14   7 N        2.758    -0.066    22.518     7.048
    15   6 C        2.882     0.137    25.014     8.199
    16   6 C        2.907    -0.079    29.978     8.978
    17   6 C        2.923    -0.064    29.582     8.919
    18   6 C        2.974    -0.014    28.349     8.734
    19   6 C        2.915    -0.070    29.741     8.943
    20   6 C        2.911    -0.045    29.108     8.847
    21   6 C        2.912    -0.061    29.507     8.907
    22   6 C        2.936     0.009    27.820     8.650
    23   7 N        2.749    -0.010    21.447     6.878
    24   6 C        2.944     0.063    26.594     8.458
    25   6 C        2.926    -0.047    29.173     8.858
    26   6 C        2.918    -0.028    28.710     8.787
    27   6 C        2.917    -0.031    28.764     8.795
    28   6 C        2.994    -0.038    28.939     8.824
    29   6 C        2.970     0.029    27.355     8.579
    30  16 S        2.162    -0.043   142.851    20.116
    31   6 C        2.971     0.029    27.350     8.578
    32   6 C        2.997    -0.040    28.990     8.832
    33   6 C        2.918    -0.031    28.773     8.796
    34   6 C        2.918    -0.028    28.711     8.787
    35   6 C        2.927    -0.039    28.970     8.827
    36   6 C        2.948     0.070    26.440     8.434
    37   6 C        2.948     0.094    25.906     8.348
    38   7 N        1.854    -0.318    29.100     7.995
    39   1 H        0.926     0.050     2.317     2.380
    40   1 H        0.926     0.044     2.399     2.422
    41   1 H        0.926     0.046     2.365     2.405
    42   1 H        0.926     0.051     2.308     2.376
    43   1 H        0.926     0.052     2.295     2.369
    44   1 H        0.926     0.049     2.332     2.388
    45   1 H        0.926     0.047     2.357     2.401
    46   1 H        0.926     0.043     2.406     2.425
    47   1 H        0.926     0.012     2.862     2.646
    48   1 H        0.926     0.005     2.968     2.694
    49   1 H        0.926     0.011     2.878     2.653
    50   1 H        0.926     0.020     2.738     2.587
    51   1 H        0.926     0.022     2.705     2.572
    52   1 H        0.926     0.051     2.310     2.377
    53   1 H        0.926     0.051     2.311     2.377
    54   1 H        0.926     0.055     2.264     2.353
    55   1 H        0.926     0.058     2.219     2.329
    56   1 H        0.926     0.057     2.239     2.340
    57   1 H        0.926     0.053     2.288     2.365
    58   1 H        0.926     0.046     2.367     2.406
    59   1 H        0.926     0.046     2.365     2.405

molecular dipole:
                 x           y           z       tot (Debye)
 q only:       -0.857       1.910      -0.831
   full:       -0.646       1.081      -0.894       3.926

 projected vibrational frequencies (cm⁻¹)
eigval :       -0.00    -0.00    -0.00     0.00     0.00     0.00
eigval :       14.48    23.86    31.84    36.61    45.62    55.09
eigval :       64.55    74.28    97.09   110.43   115.18   128.69
eigval :      157.29   169.70   177.51   184.14   192.27   215.32
eigval :      229.20   234.86   262.21   279.14   291.25   299.10
eigval :      335.44   347.36   349.80   364.26   368.03   377.56
eigval :      391.94   409.67   417.64   419.20   429.14   430.57
eigval :      431.89   467.85   474.17   477.01   480.85   487.93
eigval :      489.94   499.32   513.14   526.55   547.47   555.71
eigval :      576.64   584.65   599.77   602.66   639.79   649.08
eigval :      650.63   651.05   654.41   676.73   686.10   690.10
eigval :      700.52   706.62   712.25   730.23   760.50   768.73
eigval :      772.20   774.04   775.72   803.81   814.36   814.88
eigval :      838.39   858.97   859.89   864.25   866.60   877.56
eigval :      881.93   897.09   898.72   902.71   903.70   906.96
eigval :      908.30   918.08   918.46   920.14   927.65   975.99
eigval :     1018.42  1039.55  1042.65  1047.17  1064.85  1084.30
eigval :     1084.97  1094.21  1096.90  1101.79  1133.43  1146.09
eigval :     1149.08  1151.44  1157.32  1165.41  1170.92  1171.43
eigval :     1176.23  1180.41  1200.92  1208.22  1219.60  1227.86
eigval :     1231.01  1237.72  1238.52  1266.69  1279.94  1287.71
eigval :     1303.03  1311.39  1318.72  1323.06  1326.19  1329.01
eigval :     1338.12  1340.26  1381.04  1387.80  1389.85  1401.75
eigval :     1407.67  1410.77  1415.98  1421.14  1431.09  1432.82
eigval :     1451.98  1472.68  1487.12  1500.38  1518.95  1526.91
eigval :     1532.91  1536.26  1542.52  1549.67  1555.42  1572.57
eigval :     3061.68  3064.66  3069.95  3082.73  3083.77  3083.89
eigval :     3089.72  3090.65  3092.07  3092.33  3094.19  3094.74
eigval :     3095.46  3095.72  3103.08  3104.60  3108.26  3108.66
eigval :     3109.44  3116.45  3118.00

   temp. (K)  partition function   enthalpy   heat capacity  entropy
                                   cal/mol     cal/K/mol   cal/K/mol   J/K/mol
 298.15  VIB  0.859E+12            17073.024    112.491    102.988
         ROT  0.289E+08              888.752      2.981     37.122
         INT  0.248E+20            17961.776    115.472    140.110
         TR   0.116E+29             1481.254      4.968     44.633
         TOT                       19443.0300   120.4399   184.7430   772.9646

       T/K    H(0)-H(T)+PV         H(T)/Eh          T*S/Eh         G(T)/Eh
   ------------------------------------------------------------------------
    298.15    0.309844E-01    0.462822E+00    0.877774E-01    0.375045E+00
   ------------------------------------------------------------------------

         :::::::::::::::::::::::::::::::::::::::::::::::::::::
         ::                  THERMODYNAMIC                  ::
         :::::::::::::::::::::::::::::::::::::::::::::::::::::
         :: total free energy         -96.265131697836 Eh   ::
         ::.................................................::
         :: total energy              -96.640176563495 Eh   ::
         :: zero point energy           0.431837778442 Eh   ::
         :: G(RRHO) w/o ZPVE           -0.056792912782 Eh   ::
         :: G(RRHO) contrib.            0.375044865659 Eh   ::
         :::::::::::::::::::::::::::::::::::::::::::::::::::::

           -------------------------------------------------
          | TOTAL ENERGY              -96.640176563495 Eh   |
          | TOTAL ENTHALPY            -96.177354344577 Eh   |
          | TOTAL FREE ENERGY         -96.265131697836 Eh   |
          | GRADIENT NORM               0.000050497806 Eh/α |
          | HOMO-LUMO GAP               0.166109042338 eV   |
           -------------------------------------------------

 * finished run on 2025/08/22 at 15:06:18.921
