   * xtb version 6.7.1 (edcfbbe) compiled by 'albert@albert-system' on 2024-07-22

   ID    Z sym.   atoms
    1    6 C      1-13, 15-27, 29, 30, 32-44
    2    7 N      14, 28, 31
    3    1 H      45-71

          program call               : xtb data2507/gas/26DCzPPy/26DCzPPy.xyz --gfn 2 --ohess vtight --parallel 40 --molden --ceasefiles --namespace data2507/gas/26DCzPPy/26DCzPPy_gas_S0_preOpt
          :  Hamiltonian                  GFN2-xTB          :
 * total energy  :  -110.3797349 Eh     change       -0.1773373E-08 Eh
 * total energy  :  -110.3935147 Eh     change       -0.1377973E-01 Eh
 * total energy  :  -110.3966892 Eh     change       -0.3174518E-02 Eh
 * total energy  :  -110.3974019 Eh     change       -0.7127226E-03 Eh
 * total energy  :  -110.3979320 Eh     change       -0.5300929E-03 Eh
 * total energy  :  -110.3981025 Eh     change       -0.1705330E-03 Eh
 * total energy  :  -110.3981884 Eh     change       -0.8583113E-04 Eh
 * total energy  :  -110.3982246 Eh     change       -0.3627195E-04 Eh
 * total energy  :  -110.3982635 Eh     change       -0.3887433E-04 Eh
 * total energy  :  -110.3982932 Eh     change       -0.2974634E-04 Eh
 * total energy  :  -110.3985198 Eh     change       -0.4291018E-06 Eh
 * total energy  :  -110.3985205 Eh     change       -0.6766695E-06 Eh
 * total energy  :  -110.3985214 Eh     change       -0.9221312E-06 Eh
 * total energy  :  -110.3985222 Eh     change       -0.8323058E-06 Eh
 * total energy  :  -110.3985224 Eh     change       -0.2168725E-06 Eh
 * total energy  :  -110.3985226 Eh     change       -0.2042182E-06 Eh
 * total energy  :  -110.3985228 Eh     change       -0.1741371E-06 Eh
 * total energy  :  -110.3985229 Eh     change       -0.1198198E-06 Eh
 * total energy  :  -110.3985230 Eh     change       -0.9713021E-07 Eh
   *** GEOMETRY OPTIMIZATION CONVERGED AFTER 48 ITERATIONS ***

 final structure:
================
71
 xtb: 6.7.1 (edcfbbe)
C           -3.45918300634249       -1.82184755448202       -2.34937071776023
C           -2.32521547159525       -1.09142125327046       -2.05099054183910
C           -2.36902983035063       -0.07843924101430       -1.09420433896760
C           -1.14998694324840        0.68947468929279       -0.79874707169224
C           -1.19425416624666        1.99728498236511       -0.31040254983815
C            0.00015319200522        2.65380471813468       -0.07271708398753
C            1.19445069908786        1.99705869163609       -0.31029135974644
C            1.15000124884552        0.68923883620292       -0.79862797138439
C            2.36894926705870       -0.07890021668799       -1.09390970261152
C            2.32505584558170       -1.09216081773572       -2.05039553684989
C            3.45900218461994       -1.82267569749237       -2.34866465432086
C            4.65393681759502       -1.55699977228698       -1.70373886768716
C            4.70554375049716       -0.56027499444218       -0.73357636578623
N            5.90562856805950       -0.28740929956513       -0.06255134651601
C            6.71733894768668       -1.21559453879090        0.55885869972511
C            6.54042574337742       -2.58333372999108        0.71081629083908
C            7.50503080382177       -3.28443081726302        1.40860275321938
C            8.61763503138395       -2.64653573959551        1.95297699067450
C            8.78659552749686       -1.28246385826079        1.82585795810096
C            7.83047063005737       -0.55574662864558        1.12855273108200
C            7.67660615398606        0.83969514302358        0.82628027489149
C            8.44171962748670        1.96650017575378        1.09707382549170
C            8.00646939815254        3.19010943559775        0.62917456433872
C            6.83303970492282        3.29651715629955       -0.11428630035665
C            6.05507577974210        2.19016225415275       -0.39659572070043
C            6.47402060194579        0.96109927273545        0.09270982489667
C            3.56370430704929        0.17105390989616       -0.42833479771208
N           -0.00003958439052        0.07306578405132       -1.04337177580237
C           -3.56373712874504        0.17139941438847       -0.42850490554164
C           -4.70560779445723       -0.55982835744876       -0.73387615350290
N           -5.90565613725930       -0.28723103992114       -0.06267867692308
C           -6.47409015580947        0.96120049132944        0.09292662144381
C           -6.05523484758645        2.19040102845039       -0.39611408040609
C           -6.83321966457805        3.29665423817787       -0.11348558027858
C           -8.00658358772659        3.19002048243836        0.63004847094584
C           -8.44174877122634        1.96627820404877        1.09768511368700
C           -7.67661721931608        0.83956345598304        0.82655220111537
C           -7.83041092020857       -0.55597311417133        1.12848560099762
C           -8.78646152924318       -1.28287747542865        1.82568631083011
C           -8.61743831383506       -2.64696747590975        1.95248356996785
C           -7.50485314542491       -3.28468996480815        1.40786840779429
C           -6.54031745355473       -2.58339214812592        0.71017924377614
C           -6.71727965932968       -1.21562130719441        0.55856859108006
C           -4.65406053430964       -1.55633215640731       -1.70427405375530
H           -3.41855160497245       -2.59931716750337       -3.09787978487568
H           -1.39104647480435       -1.28850121726020       -2.55134448803650
H           -2.13546889888216        2.49736237432304       -0.14626300940114
H            0.00024161120493        3.67211245379897        0.28976498064049
H            2.13573642319939        2.49695873447346       -0.14603162176726
H            1.39084668640238       -1.28939196749803       -2.55061502321962
H            3.41832313160350       -2.60033174321015       -3.09697594748830
H            5.54884769645745       -2.10777381555478       -1.95113969490913
H            5.67239395147130       -3.08371339234516        0.30863363498550
H            7.39191446108299       -4.35076165881646        1.53811275700016
H            9.35070445498057       -3.23071608090920        2.48915018016707
H            9.64032737906842       -0.78542852643212        2.26138031217961
H            9.35988889322713        1.88137481161921        1.65853275119556
H            8.58538606950170        4.07911510587007        0.83082902197548
H            6.52702044867166        4.26506056903148       -0.48195823200020
H            5.15862424802518        2.27911669681991       -0.99221276472681
H            3.61287071118797        0.90977297236047        0.35733441615065
H           -3.61281951285891        0.90991956924766        0.35735997825988
H           -5.15882776773803        2.27953152571323       -0.99177393905455
H           -6.52726272541467        4.26530077922970       -0.48094047741803
H           -8.58552067810141        4.07895373596262        0.83195859242299
H           -9.35987601507629        1.88097366776296        1.65918253985326
H           -9.64016839099254       -0.78596646310028        2.26140617541925
H           -9.35044762206438       -3.23129543051339        2.48857926780926
H           -7.39169263170692       -4.35104697757038        1.53711700865471
H           -5.67230056294306       -3.08365083188743        0.30781590758485
H           -5.54897124620958       -2.10709288862428       -1.95170343233162

          :  Hamiltonian                  GFN2-xTB          :
         :: gradient norm              0.000044277303 Eh/a0 ::
         :: HOMO-LUMO gap              2.563376892740 eV    ::
         :: SCC energy              -112.488732101137 Eh    ::
         :: -> dispersion             -0.096356626220 Eh    ::
         :: repulsion energy           2.090209070913 Eh    ::

    * Orbital Energies and Occupations

         #    Occupation            Energy/Eh            Energy/eV
      -------------------------------------------------------------
         1        2.0000           -0.6751904             -18.3729
       ...           ...                  ...                  ...
        91        2.0000           -0.4170622             -11.3488
        92        2.0000           -0.4164399             -11.3319
        93        2.0000           -0.4131353             -11.2420
        94        2.0000           -0.4121672             -11.2156
        95        2.0000           -0.4091209             -11.1327
        96        2.0000           -0.4036500             -10.9839
        97        2.0000           -0.4036195             -10.9830
        98        2.0000           -0.3940630             -10.7230
        99        2.0000           -0.3770609             -10.2603
       100        2.0000           -0.3770599             -10.2603
       101        2.0000           -0.3699409             -10.0666
       102        2.0000           -0.3613770              -9.8336
       103        2.0000           -0.3613745              -9.8335 (HOMO)
       104                         -0.2671722              -7.2701 (LUMO)
       105                         -0.2658129              -7.2331
       106                         -0.2444883              -6.6529
       107                         -0.2444745              -6.6525
       108                         -0.2338012              -6.3621
       109                         -0.2337877              -6.3617
       110                         -0.2212921              -6.0217
       111                         -0.2203085              -5.9949
       112                         -0.2203077              -5.9949
       113                         -0.2017932              -5.4911
       114                         -0.1888907              -5.1400
       ...                                ...                  ...
       203                          0.7476536              20.3447
      -------------------------------------------------------------
                  HL-Gap            0.0942024 Eh            2.5634 eV

     #   Z          covCN         q      C6AA      α(0)
     1   6 C        2.918    -0.028    28.699     8.785
     2   6 C        2.925    -0.031    28.771     8.796
     3   6 C        2.980     0.008    27.834     8.654
     4   6 C        2.953     0.095    25.896     8.347
     5   6 C        2.917    -0.046    29.142     8.852
     6   6 C        2.924    -0.014    28.355     8.733
     7   6 C        2.917    -0.046    29.142     8.852
     8   6 C        2.953     0.095    25.896     8.347
     9   6 C        2.980     0.008    27.834     8.654
    10   6 C        2.925    -0.031    28.771     8.796
    11   6 C        2.918    -0.028    28.699     8.785
    12   6 C        2.922    -0.043    29.059     8.840
    13   6 C        2.912     0.065    26.547     8.449
    14   7 N        2.803    -0.045    22.101     6.982
    15   6 C        3.076     0.047    26.872     8.499
    16   6 C        2.910    -0.051    29.265     8.871
    17   6 C        2.924    -0.033    28.830     8.805
    18   6 C        2.920    -0.041    29.016     8.833
    19   6 C        2.913    -0.033    28.818     8.803
    20   6 C        3.068    -0.017    28.366     8.733
    21   6 C        3.068    -0.017    28.362     8.733
    22   6 C        2.913    -0.033    28.816     8.802
    23   6 C        2.920    -0.041    29.022     8.834
    24   6 C        2.924    -0.034    28.843     8.807
    25   6 C        2.910    -0.051    29.270     8.871
    26   6 C        3.076     0.047    26.877     8.500
    27   6 C        2.927    -0.047    29.173     8.858
    28   7 N        1.855    -0.239    27.104     7.716
    29   6 C        2.927    -0.047    29.173     8.858
    30   6 C        2.912     0.065    26.547     8.449
    31   7 N        2.803    -0.045    22.101     6.982
    32   6 C        3.076     0.047    26.877     8.500
    33   6 C        2.910    -0.051    29.270     8.871
    34   6 C        2.924    -0.034    28.843     8.807
    35   6 C        2.920    -0.041    29.022     8.834
    36   6 C        2.913    -0.033    28.816     8.802
    37   6 C        3.068    -0.017    28.362     8.733
    38   6 C        3.068    -0.017    28.366     8.733
    39   6 C        2.913    -0.033    28.818     8.803
    40   6 C        2.920    -0.041    29.016     8.833
    41   6 C        2.924    -0.033    28.830     8.805
    42   6 C        2.910    -0.051    29.265     8.871
    43   6 C        3.076     0.047    26.872     8.499
    44   6 C        2.922    -0.043    29.060     8.840
    45   1 H        0.926     0.039     2.458     2.452
    46   1 H        0.926     0.054     2.266     2.354
    47   1 H        0.926     0.035     2.516     2.480
    48   1 H        0.926     0.034     2.532     2.488
    49   1 H        0.926     0.035     2.516     2.480
    50   1 H        0.926     0.054     2.265     2.354
    51   1 H        0.926     0.039     2.458     2.452
    52   1 H        0.926     0.043     2.413     2.429
    53   1 H        0.926     0.028     2.621     2.532
    54   1 H        0.926     0.029     2.602     2.522
    55   1 H        0.926     0.028     2.618     2.530
    56   1 H        0.926     0.031     2.577     2.511
    57   1 H        0.926     0.031     2.575     2.510
    58   1 H        0.926     0.028     2.621     2.532
    59   1 H        0.926     0.028     2.618     2.530
    60   1 H        0.926     0.024     2.667     2.554
    61   1 H        0.926     0.042     2.422     2.434
    62   1 H        0.926     0.042     2.422     2.434
    63   1 H        0.926     0.024     2.667     2.554
    64   1 H        0.926     0.028     2.618     2.530
    65   1 H        0.926     0.028     2.621     2.532
    66   1 H        0.926     0.031     2.575     2.510
    67   1 H        0.926     0.031     2.577     2.511
    68   1 H        0.926     0.028     2.618     2.530
    69   1 H        0.926     0.029     2.602     2.522
    70   1 H        0.926     0.028     2.621     2.532
    71   1 H        0.926     0.043     2.413     2.429

molecular dipole:
                 x           y           z       tot (Debye)
 q only:        0.000      -0.130      -0.501
   full:        0.000       0.245      -0.399       1.188

 projected vibrational frequencies (cm⁻¹)
eigval :       -0.00    -0.00    -0.00    -0.00     0.00     0.00
eigval :        8.07     8.08    16.61    23.79    35.00    36.11
eigval :       58.46    62.42    65.04    92.21    92.86   103.39
eigval :      105.01   126.67   127.83   143.81   144.31   185.71
eigval :      203.49   207.31   228.84   230.82   245.05   264.00
eigval :      271.89   272.17   284.03   303.53   331.59   334.80
eigval :      350.02   372.10   386.06   393.35   396.21   397.49
eigval :      422.90   423.62   428.74   433.50   437.15   439.95
eigval :      462.81   516.32   517.21   521.80   524.31   534.97
eigval :      541.27   541.27   550.45   581.80   587.24   592.48
eigval :      598.68   604.98   611.31   616.65   622.10   658.23
eigval :      668.29   672.83   673.17   677.18   680.32   705.08
eigval :      708.60   712.13   712.49   750.43   756.43   765.06
eigval :      769.60   769.62   780.97   781.01   783.22   800.56
eigval :      810.01   844.83   868.77   868.95   872.17   872.51
eigval :      883.46   890.35   890.42   896.50   897.19   900.46
eigval :      901.01   904.89   905.13   905.54   906.78   921.87
eigval :      922.17   923.17   923.21   931.07   931.64   933.25
eigval :      938.35   981.75  1002.21  1004.30  1007.66  1012.70
eigval :     1013.34  1069.98  1070.07  1073.58  1073.61  1089.29
eigval :     1111.63  1116.38  1116.47  1125.44  1127.55  1132.69
eigval :     1152.26  1152.47  1171.86  1176.49  1176.51  1179.64
eigval :     1180.75  1181.68  1182.48  1191.07  1191.81  1233.78
eigval :     1236.89  1236.92  1239.57  1257.31  1259.88  1262.01
eigval :     1290.87  1296.90  1301.06  1304.48  1305.05  1310.21
eigval :     1322.11  1323.94  1355.70  1356.89  1360.64  1360.70
eigval :     1364.22  1366.30  1389.39  1414.48  1421.24  1427.06
eigval :     1428.23  1428.33  1449.45  1457.68  1474.66  1475.57
eigval :     1478.90  1479.93  1488.58  1488.59  1557.07  1559.84
eigval :     1572.25  1573.56  1577.16  1578.49  1588.76  1589.21
eigval :     1589.86  1590.02  1599.62  1599.63  1615.43  1615.61
eigval :     3069.03  3074.17  3074.19  3076.19  3076.20  3079.86
eigval :     3079.88  3081.34  3081.43  3082.09  3082.27  3086.56
eigval :     3086.60  3089.15  3089.20  3091.82  3092.53  3094.63
eigval :     3094.68  3096.19  3096.21  3096.61  3096.81  3099.06
eigval :     3100.60  3113.93  3115.98

   temp. (K)  partition function   enthalpy   heat capacity  entropy
                                   cal/mol     cal/K/mol   cal/K/mol   J/K/mol
 298.15  VIB  0.112E+16            19349.824    126.065    119.661
         ROT  0.878E+08              888.752      2.981     39.330
         INT  0.988E+23            20238.577    129.046    158.991
         TR   0.129E+29             1481.254      4.968     44.842
         TOT                       21719.8307   134.0140   203.8326   852.8355

       T/K    H(0)-H(T)+PV         H(T)/Eh          T*S/Eh         G(T)/Eh
   ------------------------------------------------------------------------
    298.15    0.346128E-01    0.580474E+00    0.968474E-01    0.483627E+00
   ------------------------------------------------------------------------

         :::::::::::::::::::::::::::::::::::::::::::::::::::::
         ::                  THERMODYNAMIC                  ::
         :::::::::::::::::::::::::::::::::::::::::::::::::::::
         :: total free energy        -109.914896133588 Eh   ::
         ::.................................................::
         :: total energy             -110.398523030224 Eh   ::
         :: zero point energy           0.545861574266 Eh   ::
         :: G(RRHO) w/o ZPVE           -0.062234677631 Eh   ::
         :: G(RRHO) contrib.            0.483626896635 Eh   ::
         :::::::::::::::::::::::::::::::::::::::::::::::::::::

           -------------------------------------------------
          | TOTAL ENERGY             -110.398523030224 Eh   |
          | TOTAL ENTHALPY           -109.818048702485 Eh   |
          | TOTAL FREE ENERGY        -109.914896133588 Eh   |
          | GRADIENT NORM               0.000044268225 Eh/α |
          | HOMO-LUMO GAP               2.563376840346 eV   |
           -------------------------------------------------

 * finished run on 2025/09/14 at 02:54:09.088
