   * xtb version 6.7.1 (edcfbbe) compiled by 'albert@albert-system' on 2024-07-22

   ID    Z sym.   atoms
    1    6 C      1-13, 15-27, 29, 30, 32-44
    2    7 N      14, 28, 31
    3    1 H      45-71

          program call               : xtb data2507/gas/26DCzPPy/26DCzPPy_gas_S0_finalOpt.xtbopt.xyz --gfn 2 --spinpol --tblite --uhf 2 --ohess vtight --parallel 40 --molden --ceasefiles --namespace data2507/gas/26DCzPPy/26DCzPPy_gas_T1_preOpt
 * total energy  :  -110.2983772 Eh     change       -0.1106918E-07 Eh
 * total energy  :  -110.3017027 Eh     change       -0.3325465E-02 Eh
 * total energy  :  -110.3030317 Eh     change       -0.1329049E-02 Eh
 * total energy  :  -110.3031982 Eh     change       -0.1664550E-03 Eh
 * total energy  :  -110.3034308 Eh     change       -0.2326688E-03 Eh
 * total energy  :  -110.3035301 Eh     change       -0.9926474E-04 Eh
 * total energy  :  -110.3036533 Eh     change       -0.1231727E-03 Eh
 * total energy  :  -110.3037143 Eh     change       -0.6101252E-04 Eh
 * total energy  :  -110.3037480 Eh     change       -0.3370961E-04 Eh
 * total energy  :  -110.3037853 Eh     change       -0.3728908E-04 Eh
 * total energy  :  -110.3048201 Eh     change       -0.2492545E-05 Eh
 * total energy  :  -110.3048230 Eh     change       -0.2827755E-05 Eh
 * total energy  :  -110.3048265 Eh     change       -0.3560047E-05 Eh
 * total energy  :  -110.3048304 Eh     change       -0.3904801E-05 Eh
 * total energy  :  -110.3048345 Eh     change       -0.4024107E-05 Eh
 * total energy  :  -110.3048380 Eh     change       -0.3506130E-05 Eh
 * total energy  :  -110.3048412 Eh     change       -0.3191059E-05 Eh
 * total energy  :  -110.3048431 Eh     change       -0.1913084E-05 Eh
 * total energy  :  -110.3048432 Eh     change       -0.9821969E-07 Eh
   *** GEOMETRY OPTIMIZATION CONVERGED AFTER 94 ITERATIONS ***

 final structure:
================
71
 xtb: 6.7.1 (edcfbbe)
C           -5.15768526700318        3.17924809722295        1.56276023124107
C           -3.83805511049861        3.56444372977214        1.45993888514721
C           -2.88437213251232        2.69412261320060        0.91212715602611
C           -1.47125138614318        2.98881817388072        0.82753485313653
C           -0.90706022113529        4.24270419910665        0.99114904064054
C            0.47907312819039        4.38979145710046        0.88706501274860
C            1.27718337833829        3.28453956765387        0.63765102918246
C            0.70052754072743        2.02524995595072        0.48536121891741
C            1.41556191417315        0.80556530853279        0.24286325849041
C            0.68704760132078       -0.40225053521081        0.14284892494338
C            1.31900017530804       -1.60024772645200       -0.08205461396018
C            2.70025300574562       -1.66137511453054       -0.21479724223398
C            3.43881321701108       -0.47887009031713       -0.10649994468435
N            4.83791819412310       -0.52399566367164       -0.23313995151628
C            5.68211440680103       -1.35677174459346        0.46691833933220
C            5.38544777180297       -2.28229211988271        1.45880554211895
C            6.43605349986333       -2.98066658095365        2.02277743199028
C            7.75221835447803       -2.76287890239056        1.62190029845908
C            8.05601558487747       -1.82647404311851        0.65082028273201
C            7.01855510271954       -1.11318080360902        0.06920745548480
C            6.96233076924444       -0.07768007092317       -0.92677247604829
C            7.92294421613799        0.57084273458162       -1.68830022286221
C            7.51191113504088        1.53350572508072       -2.59191597580309
C            6.16237149751701        1.84067947299330       -2.74985453967452
C            5.18646011724687        1.20803142848987       -2.00346154711484
C            5.59491703129144        0.25611242162196       -1.07829311840609
C            2.81222588001113        0.73189071695647        0.12080134442205
N           -0.65032942696395        1.94926961190229        0.57844263966663
C           -3.32166625504696        1.44506200122661        0.44795661819314
C           -4.64378925198971        1.05863618754594        0.56491435410452
N           -5.02975789625211       -0.21563946427078        0.12131502265516
C           -4.34977415672276       -1.38800552714834        0.38014235728933
C           -3.22414505299089       -1.60614866430257        1.16454464944266
C           -2.74419862318065       -2.89847696058147        1.26042210349429
C           -3.37254892155690       -3.95785332204391        0.60999059576989
C           -4.51384566160653       -3.75351161713878       -0.14271199772938
C           -5.01090506196161       -2.46355333374817       -0.25871850114771
C           -6.14652596780420       -1.89854333633436       -0.93498149659751
C           -7.14929506217744       -2.43657769167016       -1.72790146607530
C           -8.10053732599291       -1.58620439932063       -2.25972196650998
C           -8.04700131643136       -0.21459503614620       -2.02381108528704
C           -7.05735097551908        0.34473855541114       -1.23794062215090
C           -6.11606329091492       -0.50742060846417       -0.67553124584778
C           -5.57659893459302        1.92666852726721        1.13565350863281
H           -5.87831039323824        3.85408115174920        2.00150572074227
H           -3.53902726134298        4.53425751284118        1.82607536965166
H           -1.53857873770206        5.09539447353472        1.18114451572153
H            0.92587335252095        5.36545980909143        1.00084340962517
H            2.34753774059242        3.39068918992718        0.55736761913423
H           -0.38550668679489       -0.36005038285748        0.25662321425820
H            0.73664575038906       -2.50680725122925       -0.16420278997917
H            3.20192629962475       -2.59359426604936       -0.42120745101445
H            4.36916551552233       -2.44283587906105        1.78457403941579
H            6.23283178259683       -3.70837544373624        2.79435666604459
H            8.54562460210908       -3.32989741565038        2.08550852331410
H            9.07816016089497       -1.64895832196363        0.35230963255286
H            8.96810936175877        0.32411113096022       -1.57804195067144
H            8.24467204072696        2.05128341766829       -3.19268524110787
H            5.87211015660850        2.58690656947031       -3.47449225989954
H            4.14092869887413        1.43738624952715       -2.14265233961520
H            3.42130999931249        1.61651556344448        0.22661576574533
H           -2.60617218032815        0.79322172824304       -0.02932110419588
H           -2.74352254906822       -0.79773275344245        1.69375382300082
H           -1.86421970264282       -3.08994918439112        1.85652018053550
H           -2.96561809911586       -4.95344484299182        0.70659477860218
H           -5.01155591639867       -4.57781883813258       -0.63079684076794
H           -7.18018495618781       -3.49718772473289       -1.92679415665557
H           -8.89170673143533       -1.98545302652314       -2.87662168312129
H           -8.79315443553619        0.42712412953848       -2.46847503264434
H           -7.01207098426642        1.41119072677044       -1.07953497689226
H           -6.60057861722351        1.61360515137295        1.26584306770403

 projected vibrational frequencies (cm⁻¹)
eigval :       -0.00    -0.00    -0.00    -0.00     0.00     0.00
eigval :        9.26    11.27    15.05    24.83    31.55    33.04
eigval :       57.13    64.30    67.42    80.84    96.01   100.81
eigval :      105.56   122.28   140.32   142.74   153.23   181.76
eigval :      184.88   207.13   211.87   228.18   232.16   250.04
eigval :      270.47   271.83   281.28   299.90   322.25   335.70
eigval :      346.28   360.52   377.54   392.12   395.01   396.24
eigval :      418.68   422.26   423.23   430.21   435.30   437.83
eigval :      466.81   486.52   512.25   516.42   517.61   531.34
eigval :      538.17   538.68   545.38   556.14   568.10   573.04
eigval :      583.91   586.43   593.72   609.27   610.68   611.72
eigval :      623.68   645.54   653.76   671.17   674.79   675.73
eigval :      699.97   709.43   710.75   730.33   740.34   748.58
eigval :      755.37   763.13   766.75   768.72   772.32   776.70
eigval :      778.96   780.14   795.68   825.53   837.76   843.60
eigval :      851.86   860.89   863.79   872.65   874.41   876.30
eigval :      885.58   897.09   897.16   902.80   903.34   904.27
eigval :      905.82   907.11   909.83   915.43   921.34   922.01
eigval :      922.36   925.33   952.22   973.66   991.25  1006.41
eigval :     1011.26  1012.34  1050.86  1067.72  1069.49  1070.86
eigval :     1072.74  1086.24  1106.99  1113.85  1115.56  1121.95
eigval :     1126.95  1145.39  1147.74  1158.04  1172.85  1173.57
eigval :     1175.69  1179.79  1180.06  1183.33  1187.13  1197.03
eigval :     1230.86  1233.49  1233.72  1234.73  1249.98  1257.51
eigval :     1273.21  1283.56  1293.50  1294.13  1295.44  1296.46
eigval :     1321.37  1332.97  1339.31  1346.93  1348.89  1351.49
eigval :     1354.06  1359.41  1361.75  1365.01  1397.05  1410.12
eigval :     1415.78  1417.50  1418.68  1428.17  1445.22  1454.04
eigval :     1463.40  1466.67  1467.93  1477.89  1484.70  1484.92
eigval :     1494.90  1516.03  1550.04  1567.16  1568.30  1574.76
eigval :     1583.87  1584.23  1584.64  1585.84  1605.85  1607.49
eigval :     3072.17  3076.49  3078.42  3078.63  3078.90  3079.06
eigval :     3079.39  3084.03  3084.05  3085.35  3085.41  3087.72
eigval :     3089.65  3091.45  3092.02  3092.63  3093.18  3093.58
eigval :     3094.61  3095.31  3097.54  3097.80  3098.20  3098.63
eigval :     3099.73  3100.22  3102.10

   temp. (K)  partition function   enthalpy   heat capacity  entropy
                                   cal/mol     cal/K/mol   cal/K/mol   J/K/mol
 298.15  VIB  0.135E+16            19743.906    128.837    121.423
         ROT  0.747E+08              888.752      2.981     39.007
         INT  0.101E+24            20632.658    131.817    160.431
         TR   0.129E+29             1481.254      4.968     44.842
         TOT                       22113.9121   136.7855   205.2724   858.8596

       T/K    H(0)-H(T)+PV         H(T)/Eh          T*S/Eh         G(T)/Eh
   ------------------------------------------------------------------------
    298.15    0.352408E-01    0.575059E+00    0.975315E-01    0.477528E+00
   ------------------------------------------------------------------------

         :::::::::::::::::::::::::::::::::::::::::::::::::::::
         ::                  THERMODYNAMIC                  ::
         :::::::::::::::::::::::::::::::::::::::::::::::::::::
         :: total free energy        -109.827315588931 Eh   ::
         ::.................................................::
         :: total energy             -110.304843126185 Eh   ::
         :: zero point energy           0.539818302776 Eh   ::
         :: G(RRHO) w/o ZPVE           -0.062290765522 Eh   ::
         :: G(RRHO) contrib.            0.477527537254 Eh   ::
         :::::::::::::::::::::::::::::::::::::::::::::::::::::

           -------------------------------------------------
          | TOTAL ENERGY             -110.304843126185 Eh   |
          | TOTAL ENTHALPY           -109.729784061327 Eh   |
          | TOTAL FREE ENERGY        -109.827315588931 Eh   |
          | GRADIENT NORM               0.000154091102 Eh/α |
           -------------------------------------------------

 * finished run on 2025/09/14 at 02:58:41.757
