   * xtb version 6.7.1 (edcfbbe) compiled by 'albert@albert-system' on 2024-07-22

   ID    Z sym.   atoms
    1    6 C      1-13, 15-27, 29, 30, 32-44
    2    7 N      14, 28, 31
    3    1 H      45-71

          program call               : xtb data2507/gas/26DCzPPy/26DCzPPy_gas_T1_crest.xyz --gfn 2 --spinpol --tblite --uhf 2 --ohess vtight --parallel 40 --molden --ceasefiles --namespace data2507/gas/26DCzPPy/26DCzPPy_gas_T1_finalOpt
 * total energy  :  -110.3037080 Eh     change        0.3317976E-07 Eh
 * total energy  :  -110.3038638 Eh     change       -0.1557685E-03 Eh
 * total energy  :  -110.3015841 Eh     change        0.2279687E-02 Eh
 * total energy  :  -110.3043764 Eh     change       -0.2792331E-02 Eh
 * total energy  :  -110.3045516 Eh     change       -0.1751547E-03 Eh
 * total energy  :  -110.3047242 Eh     change       -0.1726666E-03 Eh
 * total energy  :  -110.3048066 Eh     change       -0.8235070E-04 Eh
 * total energy  :  -110.3048674 Eh     change       -0.6080438E-04 Eh
 * total energy  :  -110.3048843 Eh     change       -0.1689031E-04 Eh
 * total energy  :  -110.3048957 Eh     change       -0.1137607E-04 Eh
 * total energy  :  -110.3049213 Eh     change       -0.3874595E-06 Eh
 * total energy  :  -110.3049215 Eh     change       -0.2220133E-06 Eh
 * total energy  :  -110.3049217 Eh     change       -0.1329470E-06 Eh
 * total energy  :  -110.3049219 Eh     change       -0.2786713E-06 Eh
 * total energy  :  -110.3049222 Eh     change       -0.2413073E-06 Eh
 * total energy  :  -110.3049224 Eh     change       -0.2188502E-06 Eh
 * total energy  :  -110.3049226 Eh     change       -0.1567862E-06 Eh
 * total energy  :  -110.3049227 Eh     change       -0.1177602E-06 Eh
 * total energy  :  -110.3049227 Eh     change       -0.5406719E-07 Eh
   *** GEOMETRY OPTIMIZATION CONVERGED AFTER 40 ITERATIONS ***

 final structure:
================
71
 xtb: 6.7.1 (edcfbbe)
C           -5.17655126191323        3.52962512411286       -0.04445331078732
C           -3.85119219852962        3.84339523739644        0.16629765272070
C           -2.88554186221233        2.82933223294068        0.26006066529529
C           -1.47112742645885        3.06822771034858        0.42677617041815
C           -0.90160446612535        4.28228209575772        0.77588362043892
C            0.48448765810977        4.37694825582586        0.91398377843249
C            1.28193385837161        3.26331198666600        0.69266941824624
C            0.70026907971106        2.04873706608494        0.33906194683455
C            1.41915216202160        0.84374719635732        0.03306481801417
C            0.70031196051173       -0.27875290842326       -0.43691531788698
C            1.34035977301960       -1.44960042570193       -0.76194316873825
C            2.71805239977829       -1.56638442060405       -0.63173841549680
C            3.44356938111416       -0.47254528959649       -0.14927279422972
N            4.83722594545027       -0.57570910390557       -0.00337984089048
C            5.50593649827814       -1.57966324881077        0.66155978996149
C            4.99740356970212       -2.66680578681114        1.36005253329613
C            5.89867316101772       -3.52463650999570        1.96129130331534
C            7.27242937572404       -3.30791262194573        1.88257173369549
C            7.78382974923101       -2.21408894994999        1.20888598515702
C            6.89923187680306       -1.33907619607396        0.59621790430610
C            7.06595134986739       -0.12294742716343       -0.15236138426985
C            8.17336888406302        0.60898907380659       -0.55410259661467
C            7.97342231309333        1.75575100247193       -1.30031381598961
C            6.69081621450211        2.16488513022166       -1.65809805137390
C            5.57198608548971        1.45235747195340       -1.27048309986298
C            5.76485605357915        0.31289999511778       -0.50018935546529
C            2.80805815548826        0.70967317805883        0.18138007335325
N           -0.65019883876208        2.01387617045484        0.23803612585046
C           -3.31791558232430        1.49805669674031        0.16011897185288
C           -4.64642174271161        1.18983814781310       -0.06230099778872
N           -5.02869081287502       -0.15472693160112       -0.19075188585077
C           -6.07990494342648       -0.76839024590504        0.45535265395250
C           -6.97957040822742       -0.24705537343568        1.37582786724721
C           -7.93746121877981       -1.09724577619583        1.89488436941201
C           -7.99993544087066       -2.43754105285360        1.52118065208837
C           -7.08984975102521       -2.96973842460304        0.62697571379694
C           -6.11917905533773       -2.13590076949735        0.09203633006066
C           -5.02640477407058       -2.34640774943756       -0.81790246108424
C           -4.55606664552475       -3.45597320364787       -1.50493754770428
C           -3.45532724013751       -3.30725728884444       -2.32797542745291
C           -2.84049810588955       -2.06732684412098       -2.48556497304116
C           -3.29435704533453       -0.94676461676214       -1.81627382120173
C           -4.37946335198975       -1.09618055827909       -0.96184790821085
C           -5.59205496481887        2.21127253825347       -0.17405988198198
H           -5.90610615336162        4.32206818056515       -0.12837119994476
H           -3.55769645935307        4.87897632347761        0.24005986545350
H           -1.53220509059729        5.13662462714567        0.96180686015094
H            0.93484362169541        5.31837314993765        1.18849067983464
H            2.35519284966536        3.33581147281854        0.77083465701144
H           -0.37085823753138       -0.19206030575196       -0.53797656015934
H            0.76838051645404       -2.28938652292306       -1.12970121271203
H            3.23169052251632       -2.47135046856986       -0.91556752584258
H            3.93356969927655       -2.83027058732944        1.43911012805350
H            5.52962836299288       -4.37980777338970        2.50780636327685
H            7.94461732566996       -4.00231100401424        2.36414073355766
H            8.84814226141710       -2.03960556671134        1.16196496561157
H            9.16901735285379        0.28523445133796       -0.29095971021580
H            8.82247041556898        2.34102945703720       -1.62047792808181
H            6.56833707353177        3.05655425954379       -2.25489742992132
H            4.58198419677030        1.76436247144047       -1.56662338304584
H            3.39860215724523        1.51854431013586        0.58346114609077
H           -2.59141341396141        0.70987558399063        0.28607723810191
H           -6.92571373684861        0.78466097437817        1.68758200849701
H           -8.65068132673511       -0.71475447669208        2.60991553525650
H           -8.76515938555592       -3.06925869163896        1.94695228596164
H           -7.12758141137633       -4.01301583087253        0.35208620112037
H           -5.04309478331749       -4.41341583159910       -1.39751149723010
H           -3.07005412648057       -4.16025208852085       -2.86656703069916
H           -1.99256494092508       -1.97725836412665       -3.14834829406333
H           -2.82561938470422        0.01396550683474       -1.96446758473242
H           -6.62321264309178        1.97541668588112       -0.38523807205388

 projected vibrational frequencies (cm⁻¹)
eigval :       -0.00    -0.00    -0.00    -0.00     0.00     0.00
eigval :        9.19    10.82    14.48    25.55    30.06    34.15
eigval :       56.72    65.03    67.12    81.40    96.49   102.07
eigval :      104.68   122.71   140.40   142.87   153.25   178.75
eigval :      191.13   202.82   215.59   227.94   232.54   248.22
eigval :      270.72   271.57   282.35   299.72   322.67   336.06
eigval :      347.90   358.89   377.19   391.12   394.27   396.15
eigval :      421.70   422.52   424.96   430.38   435.99   437.34
eigval :      466.21   487.57   509.84   516.39   517.41   532.54
eigval :      538.31   538.57   544.70   556.51   563.58   578.36
eigval :      583.87   588.49   590.94   608.14   609.47   613.52
eigval :      622.71   646.49   652.68   671.21   674.78   675.69
eigval :      699.33   709.53   710.65   724.05   739.86   748.70
eigval :      755.44   763.19   767.32   768.82   773.51   776.05
eigval :      779.22   779.93   797.69   824.98   838.69   845.94
eigval :      853.40   859.64   863.14   873.37   875.27   875.33
eigval :      883.79   897.12   897.35   903.07   903.23   904.49
eigval :      905.88   906.85   910.63   914.86   921.63   922.13
eigval :      922.23   924.69   952.63   973.74   990.27  1006.04
eigval :     1011.33  1012.37  1052.09  1068.00  1069.15  1071.16
eigval :     1072.36  1086.02  1106.48  1114.14  1115.26  1122.14
eigval :     1126.58  1145.86  1147.37  1158.08  1172.98  1173.83
eigval :     1175.90  1179.90  1180.17  1183.23  1187.27  1197.31
eigval :     1230.50  1233.67  1233.70  1235.06  1249.76  1257.06
eigval :     1273.26  1282.25  1293.98  1294.48  1295.70  1296.49
eigval :     1322.03  1332.73  1339.49  1347.07  1349.04  1351.07
eigval :     1354.22  1359.28  1361.32  1364.66  1396.52  1410.50
eigval :     1416.69  1417.89  1418.99  1429.09  1445.97  1454.35
eigval :     1463.24  1466.83  1468.24  1476.35  1485.01  1485.21
eigval :     1495.91  1513.34  1549.68  1567.27  1568.48  1574.88
eigval :     1583.99  1584.54  1585.01  1585.68  1606.00  1607.82
eigval :     3072.85  3076.23  3078.51  3078.92  3079.07  3079.19
eigval :     3079.46  3084.05  3084.10  3085.47  3085.50  3088.24
eigval :     3089.96  3091.49  3092.04  3092.74  3093.31  3093.63
eigval :     3093.87  3094.99  3097.50  3097.72  3098.20  3098.67
eigval :     3099.82  3100.55  3101.96

   temp. (K)  partition function   enthalpy   heat capacity  entropy
                                   cal/mol     cal/K/mol   cal/K/mol   J/K/mol
 298.15  VIB  0.142E+16            19740.212    128.842    121.439
         ROT  0.749E+08              888.752      2.981     39.013
         INT  0.106E+24            20628.965    131.822    160.453
         TR   0.129E+29             1481.254      4.968     44.842
         TOT                       22110.2185   136.7906   205.2943   858.9514

       T/K    H(0)-H(T)+PV         H(T)/Eh          T*S/Eh         G(T)/Eh
   ------------------------------------------------------------------------
    298.15    0.352349E-01    0.575066E+00    0.975419E-01    0.477524E+00
   ------------------------------------------------------------------------

         :::::::::::::::::::::::::::::::::::::::::::::::::::::
         ::                  THERMODYNAMIC                  ::
         :::::::::::::::::::::::::::::::::::::::::::::::::::::
         :: total free energy        -109.827398722061 Eh   ::
         ::.................................................::
         :: total energy             -110.304922758675 Eh   ::
         :: zero point energy           0.539831108659 Eh   ::
         :: G(RRHO) w/o ZPVE           -0.062307072046 Eh   ::
         :: G(RRHO) contrib.            0.477524036613 Eh   ::
         :::::::::::::::::::::::::::::::::::::::::::::::::::::

           -------------------------------------------------
          | TOTAL ENERGY             -110.304922758675 Eh   |
          | TOTAL ENTHALPY           -109.729856774068 Eh   |
          | TOTAL FREE ENERGY        -109.827398722061 Eh   |
          | GRADIENT NORM               0.000124947867 Eh/α |
           -------------------------------------------------

 * finished run on 2025/09/14 at 03:04:57.568
