   * xtb version 6.7.1 (edcfbbe) compiled by 'albert@albert-system' on 2024-07-22

   ID    Z sym.   atoms
    1    6 C      1-13, 15-27, 29, 30, 32-44
    2    7 N      14, 28, 31
    3    1 H      45-71

          program call               : xtb data2507/gas/26DCzPPy/26DCzPPy_gas_S0_crest.xyz --gfn 2 --ohess vtight --parallel 40 --molden --ceasefiles --namespace data2507/gas/26DCzPPy/26DCzPPy_gas_S0_finalOpt
          :  Hamiltonian                  GFN2-xTB          :
 * total energy  :  -110.3999534 Eh     change       -0.2088655E-08 Eh
 * total energy  :  -110.3999544 Eh     change       -0.1004791E-05 Eh
 * total energy  :  -110.3999552 Eh     change       -0.7550125E-06 Eh
 * total energy  :  -110.3999574 Eh     change       -0.2182763E-05 Eh
 * total energy  :  -110.3999600 Eh     change       -0.2661346E-05 Eh
 * total energy  :  -110.3999623 Eh     change       -0.2221401E-05 Eh
 * total energy  :  -110.3999644 Eh     change       -0.2130216E-05 Eh
 * total energy  :  -110.3999669 Eh     change       -0.2542647E-05 Eh
 * total energy  :  -110.3999695 Eh     change       -0.2603005E-05 Eh
 * total energy  :  -110.3999711 Eh     change       -0.1603197E-05 Eh
 * total energy  :  -110.3999885 Eh     change       -0.3739211E-06 Eh
 * total energy  :  -110.3999889 Eh     change       -0.3198373E-06 Eh
 * total energy  :  -110.3999892 Eh     change       -0.3064143E-06 Eh
 * total energy  :  -110.3999895 Eh     change       -0.3741698E-06 Eh
 * total energy  :  -110.3999901 Eh     change       -0.5448497E-06 Eh
 * total energy  :  -110.3999908 Eh     change       -0.7548452E-06 Eh
 * total energy  :  -110.3999918 Eh     change       -0.9520902E-06 Eh
 * total energy  :  -110.3999928 Eh     change       -0.1023599E-05 Eh
 * total energy  :  -110.3999928 Eh     change       -0.7433997E-08 Eh
   *** GEOMETRY OPTIMIZATION CONVERGED AFTER 44 ITERATIONS ***

 final structure:
================
71
 xtb: 6.7.1 (edcfbbe)
C           -4.85292090228418        2.98916832472314        2.00526219913608
C           -3.55811433882429        3.37027667076238        1.69989858364071
C           -2.77129258762603        2.56299051504840        0.88311227572838
C           -1.37012870639168        2.87591934701726        0.56613806073946
C           -0.87455125257428        4.17833659926588        0.49668308636790
C            0.46098995245517        4.35414858077694        0.17848712558157
C            1.26191113158807        3.24719675415323       -0.04305002818981
C            0.68858795151214        1.97707505893624        0.05707104916384
C            1.44480001033289        0.73436387841548       -0.16120304533688
C            0.75128667374133       -0.44026051836714       -0.45493181556196
C            1.43179785691098       -1.62344027699303       -0.66544104537783
C            2.81329286994662       -1.65941005233159       -0.59587309802865
C            3.51604000174137       -0.49801799391405       -0.28846008962786
N            4.91548796495710       -0.51759371510567       -0.20719901801656
C            5.67528737371730       -1.41144743294754        0.52076504982626
C            5.26871020247936       -2.44201591570189        1.35612505011485
C            6.24779267466792       -3.17892064169624        1.99426622380234
C            7.60107908262479       -2.89832078631549        1.81816730968269
C            8.01084756582373       -1.85923565638620        1.00711180111924
C            7.04533141290764       -1.10414238427787        0.35432475923955
C            7.10555609274236        0.03002297961513       -0.52451509707312
C            8.15164061680455        0.76702177515818       -1.06397116177593
C            7.85478828739573        1.81167431525042       -1.91613673450762
C            6.53536993639396        2.11488370293789       -2.24514621354742
C            5.47784824702863        1.39626133217864       -1.72161198981249
C            5.76870814748386        0.36099392996711       -0.84446975036380
C            2.83125912592626        0.69059187026338       -0.06409989603601
N           -0.59799386950850        1.81994369035366        0.34341463329447
C           -3.30902499454946        1.38758367432083        0.37136549865442
C           -4.59964635358634        0.99345224382915        0.69555885734707
N           -5.09178471056671       -0.22216995840836        0.20687553419906
C           -4.40116018260319       -1.42060966849496        0.21453062864991
C           -3.14948749589520       -1.72039674295351        0.73484369892594
C           -2.69899576240673       -3.02180979529901        0.62231194473448
C           -3.47306212895138       -4.01199669384344        0.02117764696467
C           -4.73096191029745       -3.72687510713450       -0.47035572114644
C           -5.20432947967752       -2.42484010816147       -0.37239615061582
C           -6.43558290337326       -1.79249122012101       -0.75518911232172
C           -7.58743890082600       -2.24979432998976       -1.38122550577561
C           -8.60414118498393       -1.35116371913809       -1.63479416598727
C           -8.47407800087457       -0.00818771720663       -1.28865383529419
C           -7.33767715009614        0.47023202548217       -0.66484803039734
C           -6.32383835551035       -0.43354928967860       -0.38036476684695
C           -5.37603315210347        1.80346754348557        1.52148083960930
H           -5.45708416107155        3.61326443604808        2.64732816039788
H           -3.15376116131723        4.27860211720942        2.12003829806634
H           -1.52105952755342        5.02610807421662        0.65921006305061
H            0.87534606506244        5.34928172858331        0.09779730830337
H            2.29967381487590        3.37233090728962       -0.30766041914869
H           -0.32426789090396       -0.40586751153330       -0.51421490848784
H            0.88357294025069       -2.52437118984415       -0.89814691538539
H            3.35252261285327       -2.57479165719656       -0.78757087531886
H            4.22212626860296       -2.65541298341944        1.51330684751986
H            5.95718218431184       -3.98865581287369        2.64737031372257
H            8.33576422059881       -3.49953846027887        2.33288140375686
H            9.05885230564879       -1.63158189356765        0.88277675798290
H            9.17474732115006        0.52108490001076       -0.82251368140738
H            8.65338123120688        2.39887409324796       -2.34463400596416
H            6.33489274632799        2.92714186770591       -2.92850018317477
H            4.45963571267269        1.62476820842960       -1.99971044090126
H            3.39483760201083        1.56728137789529        0.21642067225068
H           -2.70680266877209        0.78625342345912       -0.29014474736092
H           -2.54644653892190       -0.96979286885357        1.22242605783617
H           -1.72508870021522       -3.27606579609463        1.01448454634698
H           -3.08406854079585       -5.01706083372362       -0.04958661846148
H           -5.33970697367329       -4.49683351660139       -0.92006246516263
H           -7.67911862780210       -3.28711032400800       -1.66617967164789
H           -9.50996864469742       -1.68653824220786       -2.11766298084606
H           -9.27820064372458        0.67605801798066       -1.51659384436073
H           -7.24063279362448        1.51758179585763       -0.42197090737657
H           -6.37161585916789        1.49191030708515        1.79839348589173

          :  Hamiltonian                  GFN2-xTB          :
         :: gradient norm              0.000063947804 Eh/a0 ::
         :: HOMO-LUMO gap              2.511941037592 eV    ::
         :: SCC energy              -112.489986397162 Eh    ::
         :: -> dispersion             -0.098032760105 Eh    ::
         :: repulsion energy           2.089993578528 Eh    ::

    * Orbital Energies and Occupations

         #    Occupation            Energy/Eh            Energy/eV
      -------------------------------------------------------------
         1        2.0000           -0.6746986             -18.3595
       ...           ...                  ...                  ...
        91        2.0000           -0.4158583             -11.3161
        92        2.0000           -0.4145350             -11.2801
        93        2.0000           -0.4118123             -11.2060
        94        2.0000           -0.4112698             -11.1912
        95        2.0000           -0.4083537             -11.1119
        96        2.0000           -0.4031942             -10.9715
        97        2.0000           -0.4019262             -10.9370
        98        2.0000           -0.3933538             -10.7037
        99        2.0000           -0.3766251             -10.2485
       100        2.0000           -0.3754495             -10.2165
       101        2.0000           -0.3698208             -10.0633
       102        2.0000           -0.3608404              -9.8190
       103        2.0000           -0.3597947              -9.7905 (HOMO)
       104                         -0.2674825              -7.2786 (LUMO)
       105                         -0.2649229              -7.2089
       106                         -0.2439730              -6.6388
       107                         -0.2431172              -6.6156
       108                         -0.2328331              -6.3357
       109                         -0.2326801              -6.3315
       110                         -0.2205093              -6.0004
       111                         -0.2198780              -5.9832
       112                         -0.2186959              -5.9510
       113                         -0.2009335              -5.4677
       114                         -0.1879258              -5.1137
       ...                                ...                  ...
       203                          0.7488931              20.3784
      -------------------------------------------------------------
                  HL-Gap            0.0923121 Eh            2.5119 eV

     #   Z          covCN         q      C6AA      α(0)
     1   6 C        2.919    -0.029    28.727     8.789
     2   6 C        2.921    -0.038    28.949     8.823
     3   6 C        2.982     0.008    27.841     8.655
     4   6 C        2.953     0.095    25.899     8.347
     5   6 C        2.916    -0.046    29.143     8.852
     6   6 C        2.925    -0.014    28.355     8.733
     7   6 C        2.916    -0.046    29.140     8.852
     8   6 C        2.950     0.094    25.903     8.348
     9   6 C        2.980     0.007    27.848     8.656
    10   6 C        2.926    -0.031    28.776     8.797
    11   6 C        2.918    -0.028    28.693     8.784
    12   6 C        2.922    -0.042    29.053     8.839
    13   6 C        2.912     0.065    26.555     8.450
    14   7 N        2.803    -0.045    22.102     6.982
    15   6 C        3.076     0.047    26.872     8.499
    16   6 C        2.910    -0.051    29.265     8.871
    17   6 C        2.924    -0.033    28.831     8.805
    18   6 C        2.920    -0.041    29.018     8.834
    19   6 C        2.912    -0.033    28.819     8.803
    20   6 C        3.068    -0.017    28.368     8.733
    21   6 C        3.068    -0.017    28.364     8.733
    22   6 C        2.913    -0.033    28.818     8.803
    23   6 C        2.920    -0.041    29.024     8.835
    24   6 C        2.924    -0.034    28.844     8.807
    25   6 C        2.910    -0.051    29.273     8.872
    26   6 C        3.077     0.046    26.877     8.500
    27   6 C        2.926    -0.047    29.179     8.859
    28   7 N        1.859    -0.241    27.143     7.722
    29   6 C        2.933    -0.042    29.043     8.838
    30   6 C        2.911     0.066    26.525     8.445
    31   7 N        2.803    -0.042    22.059     6.976
    32   6 C        3.074     0.046    26.884     8.501
    33   6 C        2.910    -0.051    29.278     8.873
    34   6 C        2.924    -0.033    28.833     8.806
    35   6 C        2.920    -0.041    29.021     8.834
    36   6 C        2.913    -0.033    28.828     8.804
    37   6 C        3.067    -0.017    28.360     8.732
    38   6 C        3.068    -0.017    28.361     8.732
    39   6 C        2.913    -0.033    28.820     8.803
    40   6 C        2.920    -0.041    29.020     8.834
    41   6 C        2.924    -0.034    28.841     8.807
    42   6 C        2.910    -0.051    29.274     8.872
    43   6 C        3.072     0.046    26.884     8.501
    44   6 C        2.922    -0.044    29.086     8.844
    45   1 H        0.926     0.037     2.489     2.467
    46   1 H        0.926     0.035     2.514     2.480
    47   1 H        0.926     0.035     2.520     2.482
    48   1 H        0.926     0.033     2.540     2.492
    49   1 H        0.926     0.035     2.518     2.481
    50   1 H        0.926     0.058     2.224     2.332
    51   1 H        0.926     0.040     2.445     2.445
    52   1 H        0.926     0.043     2.413     2.429
    53   1 H        0.926     0.028     2.621     2.532
    54   1 H        0.926     0.029     2.602     2.523
    55   1 H        0.926     0.028     2.620     2.531
    56   1 H        0.926     0.030     2.580     2.512
    57   1 H        0.926     0.031     2.578     2.511
    58   1 H        0.926     0.027     2.624     2.533
    59   1 H        0.926     0.028     2.620     2.531
    60   1 H        0.926     0.025     2.660     2.550
    61   1 H        0.926     0.042     2.428     2.437
    62   1 H        0.926     0.059     2.211     2.325
    63   1 H        0.926     0.036     2.502     2.474
    64   1 H        0.926     0.029     2.606     2.524
    65   1 H        0.926     0.027     2.633     2.538
    66   1 H        0.926     0.030     2.586     2.515
    67   1 H        0.926     0.030     2.580     2.512
    68   1 H        0.926     0.027     2.625     2.534
    69   1 H        0.926     0.028     2.614     2.528
    70   1 H        0.926     0.027     2.631     2.536
    71   1 H        0.926     0.043     2.414     2.430

molecular dipole:
                 x           y           z       tot (Debye)
 q only:       -0.298       0.452       0.095
   full:       -0.176       0.943       0.115       2.455

 projected vibrational frequencies (cm⁻¹)
eigval :       -0.00    -0.00     0.00     0.00     0.00     0.00
eigval :        8.02    11.31    14.98    25.58    31.14    36.57
eigval :       57.69    65.01    68.11    90.27    94.99   103.48
eigval :      106.42   122.67   143.63   144.47   158.07   186.72
eigval :      199.59   212.55   230.46   233.01   244.97   261.88
eigval :      272.03   273.57   283.77   298.96   324.12   336.91
eigval :      348.87   374.81   386.48   394.39   396.37   398.94
eigval :      423.34   424.21   430.34   433.42   437.85   441.25
eigval :      466.39   515.28   517.55   520.57   525.75   535.46
eigval :      541.29   541.35   550.87   582.33   586.70   593.36
eigval :      599.89   603.35   611.95   614.91   621.23   657.67
eigval :      667.92   672.29   674.92   676.59   681.07   704.62
eigval :      708.89   710.97   713.28   750.76   756.41   766.64
eigval :      769.65   770.42   781.07   781.62   782.76   801.63
eigval :      809.43   843.42   868.62   869.61   872.17   872.68
eigval :      882.67   888.60   892.53   896.36   897.37   899.09
eigval :      901.02   904.80   905.07   906.38   910.64   921.58
eigval :      922.30   923.36   927.20   931.76   932.98   934.39
eigval :      938.15   979.68  1001.09  1003.50  1008.50  1012.78
eigval :     1013.09  1070.13  1071.45  1073.59  1074.99  1089.76
eigval :     1112.89  1116.73  1120.43  1121.86  1126.78  1134.72
eigval :     1152.50  1153.90  1171.52  1175.87  1176.84  1179.90
eigval :     1181.35  1182.10  1184.64  1191.43  1195.90  1232.12
eigval :     1236.79  1237.08  1239.07  1253.09  1259.68  1265.91
eigval :     1292.51  1297.16  1301.19  1303.15  1304.97  1310.16
eigval :     1322.50  1327.14  1355.06  1356.61  1359.98  1361.35
eigval :     1362.83  1365.24  1394.09  1412.04  1422.77  1425.73
eigval :     1428.05  1428.47  1446.77  1453.75  1474.47  1476.54
eigval :     1478.71  1482.58  1488.26  1488.60  1557.58  1561.09
eigval :     1572.17  1573.20  1576.91  1578.35  1588.20  1588.75
eigval :     1589.38  1590.50  1598.92  1599.51  1614.75  1615.54
eigval :     3068.50  3074.17  3075.00  3075.71  3076.04  3079.14
eigval :     3079.85  3081.05  3081.49  3082.43  3082.51  3086.60
eigval :     3088.85  3089.18  3091.24  3092.00  3093.70  3094.52
eigval :     3095.36  3096.16  3096.71  3096.93  3098.23  3099.93
eigval :     3101.80  3115.79  3118.82

   temp. (K)  partition function   enthalpy   heat capacity  entropy
                                   cal/mol     cal/K/mol   cal/K/mol   J/K/mol
 298.15  VIB  0.753E+15            19306.231    126.019    118.932
         ROT  0.742E+08              888.752      2.981     38.995
         INT  0.559E+23            20194.984    129.000    157.927
         TR   0.129E+29             1481.254      4.968     44.842
         TOT                       21676.2377   133.9684   202.7689   848.3850

       T/K    H(0)-H(T)+PV         H(T)/Eh          T*S/Eh         G(T)/Eh
   ------------------------------------------------------------------------
    298.15    0.345433E-01    0.580574E+00    0.963420E-01    0.484232E+00
   ------------------------------------------------------------------------

         :::::::::::::::::::::::::::::::::::::::::::::::::::::
         ::                  THERMODYNAMIC                  ::
         :::::::::::::::::::::::::::::::::::::::::::::::::::::
         :: total free energy        -109.915761090079 Eh   ::
         ::.................................................::
         :: total energy             -110.399992818633 Eh   ::
         :: zero point energy           0.546030481059 Eh   ::
         :: G(RRHO) w/o ZPVE           -0.061798752505 Eh   ::
         :: G(RRHO) contrib.            0.484231728554 Eh   ::
         :::::::::::::::::::::::::::::::::::::::::::::::::::::

           -------------------------------------------------
          | TOTAL ENERGY             -110.399992818633 Eh   |
          | TOTAL ENTHALPY           -109.819419054043 Eh   |
          | TOTAL FREE ENERGY        -109.915761090079 Eh   |
          | GRADIENT NORM               0.000063946459 Eh/α |
          | HOMO-LUMO GAP               2.511940713301 eV   |
           -------------------------------------------------

 * finished run on 2025/09/14 at 02:58:25.760
