   * xtb version 6.7.1 (edcfbbe) compiled by 'albert@albert-system' on 2024-07-22

   ID    Z sym.   atoms
    1    6 C      1-6, 8-25
    2    5 B      7
    3    1 H      26-52

          program call               : xtb data2507/toluene/N-B/N-B_toluene_S0_crest.xyz --gfn 2 --gbsa toluene --ohess vtight --parallel 40 --molden --ceasefiles --namespace data2507/toluene/N-B/N-B_toluene_S0_finalOpt
      * Solvation model:               GBSA
        Solvent                        toluene
        Solvent mass                       9.2140E+01 g/mol
          :  Hamiltonian                  GFN2-xTB          :
 * total energy  :   -66.4117506 Eh     change       -0.1586329E-08 Eh
 * total energy  :   -66.4118092 Eh     change       -0.5858628E-04 Eh
 * total energy  :   -66.4118357 Eh     change       -0.2656754E-04 Eh
 * total energy  :   -66.4118436 Eh     change       -0.7886977E-05 Eh
 * total energy  :   -66.4118487 Eh     change       -0.5103727E-05 Eh
 * total energy  :   -66.4118547 Eh     change       -0.6010707E-05 Eh
 * total energy  :   -66.4118621 Eh     change       -0.7372378E-05 Eh
 * total energy  :   -66.4118675 Eh     change       -0.5333839E-05 Eh
 * total energy  :   -66.4118692 Eh     change       -0.1786993E-05 Eh
 * total energy  :   -66.4118704 Eh     change       -0.1174156E-05 Eh
 * total energy  :   -66.4118819 Eh     change       -0.1991708E-06 Eh
 * total energy  :   -66.4118822 Eh     change       -0.3079610E-06 Eh
 * total energy  :   -66.4118823 Eh     change       -0.1458897E-06 Eh
 * total energy  :   -66.4118824 Eh     change       -0.1206334E-06 Eh
 * total energy  :   -66.4118826 Eh     change       -0.1763461E-06 Eh
 * total energy  :   -66.4118828 Eh     change       -0.2118326E-06 Eh
 * total energy  :   -66.4118829 Eh     change       -0.1009030E-06 Eh
 * total energy  :   -66.4118829 Eh     change        0.1629500E-07 Eh
 * total energy  :   -66.4118830 Eh     change       -0.7170826E-07 Eh
   *** GEOMETRY OPTIMIZATION CONVERGED AFTER 30 ITERATIONS ***

 final structure:
================
52
 xtb: 6.7.1 (edcfbbe)
C           -5.24695781197473       -2.37716119008426        0.29597719413935
C           -3.91050082498019       -1.70436658445855        0.19702265835563
C           -2.92506035582673       -1.95344186132065        1.14453472031470
C           -1.68114742601308       -1.34950800012417        1.07654021757862
C           -0.67136308632845       -1.64571367858326        2.14720689717601
C           -1.38190787686497       -0.44499464230882        0.04037745639796
B           -0.00141809646336        0.30417279381140        0.00037811911416
C           -0.00610160388597        1.87132418442480        0.00408390816939
C           -1.06831264037684        2.59637023424356        0.55673229449920
C           -1.06999489510731        3.97852862133321        0.56988132110196
C           -0.01419908020861        4.67944522226605        0.00886730814271
C            1.04573015494821        3.98656900790546       -0.55430741515554
C            1.05204416479704        2.60440268359815       -0.54581286856608
C            1.38394939692951       -0.43570204151431       -0.04332422324353
C            2.37561356327770       -0.18976830955625        0.91701393723793
C            2.13585791545869        0.70539977774040        2.10102301040027
C            3.61670450704871       -0.80789100428280        0.82705587070499
C            3.92197407482173       -1.67515638174686       -0.20751800295266
C            5.25979774854136       -2.34642566252869       -0.29835415460097
C            2.93928363715648       -1.92469792113801       -1.15720313528206
C            1.69071597252536       -1.33000981170561       -1.08572899266752
C            0.68496743487533       -1.62377423009355       -2.16088476571204
C           -2.37605653927291       -0.19925839568853       -0.91709152528276
C           -2.14353753050586        0.70571292049323       -2.09507819397458
C           -3.61284938697924       -0.82727490175347       -0.83093478318771
H           -5.13068354584070       -3.46002327845705        0.25084941098426
H           -5.90200451154432       -2.06406508898630       -0.51364512845012
H           -5.72485537074060       -2.13436855137106        1.24498527271418
H           -3.13783532845105       -2.63910015969158        1.95425580677779
H            0.27866060412976       -1.93924010256376        1.70680543589363
H           -0.49533987099386       -0.76143419217995        2.75827345062434
H           -1.02148028030376       -2.44619034959666        2.79555755289797
H           -1.89989007071375        2.05758424333133        0.98986459779551
H           -1.89841439968156        4.51446628246065        1.01239290588313
H           -0.01733416039190        5.76042655344272        0.01058446861356
H            1.87115692345535        4.52872810843006       -0.99480877550083
H            1.88686054167875        2.07190883594966       -0.98049056467400
H            2.85264687709228        1.52658562340084        2.10165700919918
H            2.27566445642088        0.14419363130793        3.02521254424156
H            1.13357508996753        1.12083372875205        2.09358461376731
H            4.35904922216639       -0.60189878301743        1.58710223314734
H            5.98170458338895       -1.86720653697789        0.35909854271854
H            5.17389680826737       -3.39417902799794       -0.00714266473381
H            5.63724383809285       -2.31493439295813       -1.31927052380061
H            3.15714803242929       -2.60217107768797       -1.97242533953996
H           -0.26622840014609       -1.92011742310331       -1.72505080543638
H            1.03845054500589       -2.42122785278836       -2.81113306397262
H            0.50999138605432       -0.73739950309947       -2.76933964169645
H           -2.28803606928208        0.15208543135735       -3.02307696485986
H           -1.14156640570090        1.12191603773426       -2.08972937611610
H           -2.86088333774602        1.52637907251983       -2.08489235599463
H           -4.35674161830490       -0.62140200343636       -1.58952089579022

          :  Hamiltonian                  GFN2-xTB          :
         :: gradient norm              0.000042527511 Eh/a0 ::
         :: HOMO-LUMO gap              2.705974467854 eV    ::
         :: SCC energy               -67.615996204487 Eh    ::
         :: -> dispersion             -0.060866011629 Eh    ::
         :: -> Gsolv                  -0.025538791704 Eh    ::
         :: repulsion energy           1.204113214244 Eh    ::

    * Orbital Energies and Occupations

         #    Occupation            Energy/Eh            Energy/eV
      -------------------------------------------------------------
         1        2.0000           -0.6366750             -17.3248
       ...           ...                  ...                  ...
        51        2.0000           -0.4300978             -11.7036
        52        2.0000           -0.4171376             -11.3509
        53        2.0000           -0.4148190             -11.2878
        54        2.0000           -0.4112517             -11.1907
        55        2.0000           -0.4095366             -11.1441
        56        2.0000           -0.3994057             -10.8684
        57        2.0000           -0.3985810             -10.8459
        58        2.0000           -0.3950586             -10.7501
        59        2.0000           -0.3882767             -10.5655
        60        2.0000           -0.3775832             -10.2746
        61        2.0000           -0.3761832             -10.2365
        62        2.0000           -0.3697401             -10.0611
        63        2.0000           -0.3649312              -9.9303 (HOMO)
        64                         -0.2654885              -7.2243 (LUMO)
        65                         -0.2162577              -5.8847
        66                         -0.2103820              -5.7248
        67                         -0.2077325              -5.6527
        68                         -0.2046528              -5.5689
        69                         -0.2031643              -5.5284
        70                         -0.1652828              -4.4976
        71                         -0.0855215              -2.3272
        72                         -0.0846027              -2.3022
        73                         -0.0650009              -1.7688
        74                          0.0936741               2.5490
       ...                                ...                  ...
       127                          0.6678130              18.1721
      -------------------------------------------------------------
                  HL-Gap            0.0994427 Eh            2.7060 eV

     #   Z          covCN         q      C6AA      α(0)
     1   6 C        3.757    -0.106    22.584     6.775
     2   6 C        2.962     0.009    27.813     8.650
     3   6 C        2.929    -0.059    29.455     8.901
     4   6 C        2.967     0.010    27.797     8.648
     5   6 C        3.759    -0.112    22.699     6.792
     6   6 C        2.889    -0.083    30.083     8.992
     7   5 B        2.709     0.251    17.694     7.054
     8   6 C        2.884    -0.061    29.513     8.906
     9   6 C        2.923    -0.028    28.691     8.784
    10   6 C        2.915    -0.032    28.799     8.800
    11   6 C        2.920    -0.028    28.696     8.785
    12   6 C        2.915    -0.032    28.799     8.800
    13   6 C        2.924    -0.028    28.691     8.784
    14   6 C        2.889    -0.083    30.082     8.992
    15   6 C        2.967     0.010    27.782     8.646
    16   6 C        3.759    -0.110    22.652     6.785
    17   6 C        2.930    -0.059    29.460     8.901
    18   6 C        2.962     0.009    27.813     8.650
    19   6 C        3.757    -0.106    22.583     6.775
    20   6 C        2.929    -0.058    29.453     8.900
    21   6 C        2.967     0.010    27.799     8.648
    22   6 C        3.759    -0.112    22.698     6.792
    23   6 C        2.967     0.010    27.782     8.646
    24   6 C        3.759    -0.110    22.652     6.785
    25   6 C        2.930    -0.059    29.458     8.901
    26   1 H        0.925     0.043     2.415     2.430
    27   1 H        0.925     0.038     2.481     2.463
    28   1 H        0.925     0.042     2.419     2.432
    29   1 H        0.925     0.021     2.722     2.580
    30   1 H        0.925     0.049     2.333     2.389
    31   1 H        0.925     0.042     2.421     2.433
    32   1 H        0.925     0.036     2.499     2.472
    33   1 H        0.925     0.027     2.632     2.537
    34   1 H        0.925     0.024     2.670     2.555
    35   1 H        0.926     0.026     2.651     2.546
    36   1 H        0.925     0.024     2.670     2.555
    37   1 H        0.925     0.027     2.632     2.537
    38   1 H        0.925     0.041     2.442     2.444
    39   1 H        0.924     0.042     2.416     2.431
    40   1 H        0.925     0.040     2.444     2.445
    41   1 H        0.925     0.021     2.719     2.579
    42   1 H        0.925     0.038     2.475     2.460
    43   1 H        0.924     0.043     2.404     2.424
    44   1 H        0.925     0.041     2.437     2.441
    45   1 H        0.925     0.021     2.725     2.582
    46   1 H        0.925     0.049     2.333     2.389
    47   1 H        0.925     0.036     2.499     2.472
    48   1 H        0.925     0.042     2.423     2.434
    49   1 H        0.924     0.042     2.417     2.431
    50   1 H        0.925     0.040     2.444     2.445
    51   1 H        0.925     0.041     2.441     2.443
    52   1 H        0.925     0.021     2.722     2.580

molecular dipole:
                 x           y           z       tot (Debye)
 q only:       -0.002      -0.007       0.009
   full:       -0.004       0.063       0.014       0.165

 projected vibrational frequencies (cm⁻¹)
eigval :       -0.00     0.00     0.00     0.00     0.00     0.00
eigval :       28.98    29.58    31.72    35.85    49.65    53.05
eigval :       57.80    65.05    74.37    85.89   104.88   122.37
eigval :      128.46   133.07   159.76   161.13   182.91   190.34
eigval :      201.43   205.83   211.31   236.75   273.09   275.69
eigval :      307.62   321.36   329.06   346.33   361.03   414.47
eigval :      460.66   475.00   489.57   497.86   498.96   503.47
eigval :      506.86   512.49   536.50   554.10   587.01   596.28
eigval :      599.10   602.95   626.11   671.00   681.44   682.64
eigval :      742.05   842.88   845.57   875.52   881.84   883.06
eigval :      893.03   895.30   906.41   933.50   937.13   963.94
eigval :      964.31   972.36   972.98   986.21  1022.47  1023.33
eigval :     1029.36  1029.99  1031.18  1033.05  1034.23  1035.05
eigval :     1040.25  1040.98  1042.72  1043.04  1083.54  1102.13
eigval :     1118.82  1161.98  1184.75  1188.70  1204.08  1215.55
eigval :     1221.04  1233.81  1235.51  1282.54  1299.54  1301.51
eigval :     1306.90  1335.54  1338.15  1398.23  1398.79  1401.78
eigval :     1401.98  1403.90  1406.27  1417.79  1424.99  1426.72
eigval :     1451.25  1454.79  1459.81  1475.19  1477.22  1480.43
eigval :     1480.70  1481.73  1482.64  1483.68  1483.77  1487.52
eigval :     1488.05  1493.87  1494.92  1560.25  1560.78  1565.93
eigval :     1589.90  1599.57  1601.70  2990.47  2993.25  2993.41
eigval :     2996.80  3006.66  3007.45  3007.67  3008.39  3010.18
eigval :     3018.73  3029.04  3029.27  3034.75  3036.26  3036.93
eigval :     3037.12  3052.09  3052.72  3055.37  3056.24  3056.55
eigval :     3057.43  3064.95  3065.84  3066.42  3069.53  3078.57

   temp. (K)  partition function   enthalpy   heat capacity  entropy
                                   cal/mol     cal/K/mol   cal/K/mol   J/K/mol
 298.15  VIB  0.422E+12            14970.527     87.842     95.299
         ROT  0.105E+08              888.752      2.981     35.106
         INT  0.443E+19            15859.279     90.823    130.404
         TR   0.570E+28             1481.254      4.968     43.223
         TOT                       17340.5334    95.7907   173.6278   726.4586

       T/K    H(0)-H(T)+PV         H(T)/Eh          T*S/Eh         G(T)/Eh
   ------------------------------------------------------------------------
    298.15    0.276339E-01    0.458715E+00    0.824962E-01    0.376219E+00
   ------------------------------------------------------------------------

         :::::::::::::::::::::::::::::::::::::::::::::::::::::
         ::                  THERMODYNAMIC                  ::
         :::::::::::::::::::::::::::::::::::::::::::::::::::::
         :: total free energy         -66.035663732465 Eh   ::
         ::.................................................::
         :: total energy              -66.411882990760 Eh   ::
         :: zero point energy           0.431081513043 Eh   ::
         :: G(RRHO) w/o ZPVE           -0.054862254749 Eh   ::
         :: G(RRHO) contrib.            0.376219258295 Eh   ::
         :::::::::::::::::::::::::::::::::::::::::::::::::::::

           -------------------------------------------------
          | TOTAL ENERGY              -66.411882990760 Eh   |
          | TOTAL ENTHALPY            -65.953167578820 Eh   |
          | TOTAL FREE ENERGY         -66.035663732465 Eh   |
          | GRADIENT NORM               0.000042535147 Eh/α |
          | HOMO-LUMO GAP               2.705973083580 eV   |
           -------------------------------------------------

 * finished run on 2025/08/22 at 08:36:52.979
