   * xtb version 6.7.1 (edcfbbe) compiled by 'albert@albert-system' on 2024-07-22

   ID    Z sym.   atoms
    1    6 C      1-6, 8-25
    2    5 B      7
    3    1 H      26-52

          program call               : xtb data2507/toluene/N-B/N-B_toluene_S0_finalOpt.xtbopt.xyz --gfn 2 --uhf 2 --gbsa toluene --ohess vtight --parallel 40 --molden --ceasefiles --namespace data2507/toluene/N-B/N-B_toluene_T1_preOpt
      * Solvation model:               GBSA
        Solvent                        toluene
        Solvent mass                       9.2140E+01 g/mol
          :  Hamiltonian                  GFN2-xTB          :
 * total energy  :   -66.3031733 Eh     change       -0.3968481E-08 Eh
 * total energy  :   -66.3057835 Eh     change       -0.2610133E-02 Eh
 * total energy  :   -66.3066566 Eh     change       -0.8731749E-03 Eh
 * total energy  :   -66.3069181 Eh     change       -0.2615013E-03 Eh
 * total energy  :   -66.3074111 Eh     change       -0.4929066E-03 Eh
 * total energy  :   -66.3077697 Eh     change       -0.3586930E-03 Eh
 * total energy  :   -66.3081090 Eh     change       -0.3392408E-03 Eh
 * total energy  :   -66.3085060 Eh     change       -0.3970345E-03 Eh
 * total energy  :   -66.3088208 Eh     change       -0.3147406E-03 Eh
 * total energy  :   -66.3090473 Eh     change       -0.2265270E-03 Eh
 * total energy  :   -66.3106380 Eh     change       -0.1962205E-07 Eh
 * total energy  :   -66.3106382 Eh     change       -0.1697471E-06 Eh
 * total energy  :   -66.3106385 Eh     change       -0.2672419E-06 Eh
 * total energy  :   -66.3106387 Eh     change       -0.1985811E-06 Eh
 * total energy  :   -66.3106388 Eh     change       -0.1121900E-06 Eh
 * total energy  :   -66.3106390 Eh     change       -0.1587023E-06 Eh
 * total energy  :   -66.3106391 Eh     change       -0.1821081E-06 Eh
 * total energy  :   -66.3106394 Eh     change       -0.2677990E-06 Eh
 * total energy  :   -66.3106395 Eh     change       -0.6072227E-07 Eh
   *** GEOMETRY OPTIMIZATION CONVERGED AFTER 68 ITERATIONS ***

 final structure:
================
52
 xtb: 6.7.1 (edcfbbe)
C           -4.98105061338508       -2.72290909176739        0.00772943934171
C           -3.73323872411672       -1.89813816175748        0.00537523822139
C           -2.70415576105688       -2.17124678898117        0.90766091254508
C           -1.56359839499179       -1.39992103880133        0.96165783755381
C           -0.51506607011639       -1.70556627358594        1.98424315368225
C           -1.36844702548880       -0.33034665455966        0.03627035516156
B           -0.00119211291767        0.39886361363901       -0.00194138966475
C           -0.00514809618750        1.95690866788809        0.00428986705677
C           -1.05686955701919        2.68211273926468        0.59527911032033
C           -1.05795724493059        4.06038093808045        0.59893911099529
C           -0.01780951559498        4.77227057700648        0.01444005590922
C            1.02881577217842        4.07396163022184       -0.57497167723237
C            1.04045590823156        2.69574930011297       -0.58019536486755
C            1.37490156465749       -0.31566633540146       -0.04627253588994
C            2.43861000701491       -0.02117451616786        0.84969285112244
C            2.32643812463527        1.09417782667584        1.84274715516426
C            3.57274865196205       -0.80701994128479        0.86288357692027
C            3.74386746721151       -1.87443370810171       -0.01936764998360
C            4.98671895033668       -2.70611149803163        0.00326374256165
C            2.72106096165866       -2.14355429710348       -0.92803438761814
C            1.57826650021056       -1.37397352477580       -0.98193128612714
C            0.53756091855841       -1.67126280112144       -2.01462051896989
C           -2.43701244695966       -0.03526977752928       -0.85451436941355
C           -2.33277861193304        1.08807951759279       -1.83916608462367
C           -3.56952890663116       -0.82431833478705       -0.86880979608284
H           -4.74273035053805       -3.77000409421122       -0.18202107906888
H           -5.67882753474547       -2.37998559530514       -0.75238732546376
H           -5.47115608413606       -2.66977557637761        0.98055685610765
H           -2.82240827906034       -2.99371531074836        1.60084346905031
H            0.38813526276764       -2.07895738804813        1.50068507450055
H           -0.23900523387898       -0.80354798603293        2.52801523962302
H           -0.86610131755497       -2.45509533323990        2.69014225364713
H           -1.86689930643889        2.15046195884355        1.07441813484323
H           -1.87601101568924        4.59081417107516        1.06958568097821
H           -0.02252584937399        5.85285807066882        0.01848827061232
H            1.84192144620560        4.61518198452188       -1.04184438465710
H            1.85557025809981        2.17492251911532       -1.06259615127332
H            2.60091040470930        2.04578259869131        1.38630361053649
H            2.98524220539830        0.92092138808762        2.69142725128034
H            1.30085923965550        1.19296027831494        2.19285892616679
H            4.35613081263415       -0.58971063872440        1.57705511592971
H            5.81024566639461       -2.16651709609304        0.46565238821174
H            4.81244175518733       -3.61714782101697        0.57954833728909
H            5.27519560554199       -3.00186756167848       -1.00403278982515
H            2.84423381138185       -2.95924617853502       -1.62835332800779
H           -0.36804787750863       -2.05178747117354       -1.54106043613207
H            0.89491912233806       -2.41240450384120       -2.72615674465058
H            0.26277444405998       -0.76412462617708       -2.55057114010982
H           -2.99379686956721        0.91887986244638       -2.68695904788573
H           -1.30878235238972        1.19426597982643       -2.19175054013336
H           -2.60971299596120        2.03494263079980       -1.37424986330840
H           -4.35621537916308       -0.60276633661555       -1.57807869518480

          :  Hamiltonian                  GFN2-xTB          :
         :: gradient norm              0.000044008884 Eh/a0 ::
         :: HOMO-LUMO gap              1.082028624392 eV    ::
         :: SCC energy               -67.503682108789 Eh    ::
         :: -> dispersion             -0.061664103197 Eh    ::
         :: -> Gsolv                  -0.025521039664 Eh    ::
         :: repulsion energy           1.193042618530 Eh    ::

    * Orbital Energies and Occupations

         #    Occupation            Energy/Eh            Energy/eV
      -------------------------------------------------------------
         1        2.0000           -0.6361181             -17.3097
       ...           ...                  ...                  ...
        52        2.0000           -0.4166049             -11.3364
        53        2.0000           -0.4132751             -11.2458
        54        2.0000           -0.4121262             -11.2145
        55        2.0000           -0.4062080             -11.0535
        56        2.0000           -0.3901156             -10.6156
        57        2.0000           -0.3888623             -10.5815
        58        2.0000           -0.3873086             -10.5392
        59        2.0000           -0.3830852             -10.4243
        60        2.0000           -0.3809888             -10.3672
        61        2.0000           -0.3807310             -10.3602
        62        1.9995           -0.3721080             -10.1256
        63        1.0005           -0.3575548              -9.7296
        64        1.0000           -0.2575907              -7.0094 (HOMO)
        65                         -0.2178272              -5.9274 (LUMO)
        66                         -0.2093024              -5.6954
        67                         -0.2058310              -5.6009
        68                         -0.2051327              -5.5819
        69                         -0.2030978              -5.5266
        70                         -0.1499852              -4.0813
        71                         -0.0924499              -2.5157
        72                         -0.0813483              -2.2136
        73                         -0.0560236              -1.5245
        74                          0.0924285               2.5151
        75                          0.0945222               2.5721
       ...                                ...                  ...
       127                          0.6741600              18.3448
      -------------------------------------------------------------
                  HL-Gap            0.0397636 Eh            1.0820 eV

     #   Z          covCN         q      C6AA      α(0)
     1   6 C        3.757    -0.107    22.594     6.777
     2   6 C        2.961     0.012    27.755     8.641
     3   6 C        2.923    -0.057    29.418     8.895
     4   6 C        2.962     0.012    27.754     8.641
     5   6 C        3.758    -0.111    22.676     6.789
     6   6 C        2.887    -0.059    29.467     8.900
     7   5 B        2.714     0.170    18.841     7.277
     8   6 C        2.885    -0.039    28.979     8.826
     9   6 C        2.919    -0.042    29.040     8.837
    10   6 C        2.916    -0.037    28.914     8.818
    11   6 C        2.917    -0.051    29.274     8.872
    12   6 C        2.916    -0.037    28.914     8.818
    13   6 C        2.919    -0.042    29.042     8.837
    14   6 C        2.888    -0.058    29.443     8.896
    15   6 C        2.960     0.012    27.740     8.639
    16   6 C        3.759    -0.110    22.658     6.786
    17   6 C        2.924    -0.054    29.352     8.885
    18   6 C        2.961     0.012    27.757     8.642
    19   6 C        3.757    -0.107    22.593     6.777
    20   6 C        2.923    -0.057    29.411     8.894
    21   6 C        2.962     0.012    27.748     8.640
    22   6 C        3.758    -0.111    22.674     6.789
    23   6 C        2.960     0.012    27.742     8.639
    24   6 C        3.759    -0.110    22.658     6.786
    25   6 C        2.924    -0.054    29.350     8.884
    26   1 H        0.924     0.049     2.335     2.390
    27   1 H        0.925     0.041     2.434     2.440
    28   1 H        0.924     0.048     2.350     2.397
    29   1 H        0.925     0.025     2.655     2.548
    30   1 H        0.924     0.055     2.255     2.348
    31   1 H        0.925     0.048     2.344     2.394
    32   1 H        0.925     0.041     2.438     2.442
    33   1 H        0.926     0.017     2.778     2.606
    34   1 H        0.925     0.012     2.853     2.641
    35   1 H        0.926     0.010     2.895     2.661
    36   1 H        0.925     0.012     2.854     2.642
    37   1 H        0.926     0.017     2.776     2.606
    38   1 H        0.924     0.049     2.338     2.391
    39   1 H        0.925     0.039     2.460     2.453
    40   1 H        0.925     0.047     2.352     2.398
    41   1 H        0.925     0.025     2.662     2.551
    42   1 H        0.925     0.042     2.416     2.431
    43   1 H        0.924     0.051     2.306     2.375
    44   1 H        0.925     0.044     2.390     2.418
    45   1 H        0.925     0.025     2.655     2.548
    46   1 H        0.924     0.056     2.248     2.345
    47   1 H        0.925     0.041     2.435     2.440
    48   1 H        0.925     0.048     2.343     2.394
    49   1 H        0.925     0.039     2.461     2.453
    50   1 H        0.925     0.047     2.353     2.399
    51   1 H        0.924     0.049     2.336     2.390
    52   1 H        0.925     0.024     2.674     2.557

molecular dipole:
                 x           y           z       tot (Debye)
 q only:        0.017      -1.218       0.014
   full:        0.012      -1.202       0.025       3.055

 projected vibrational frequencies (cm⁻¹)
eigval :       -0.00    -0.00    -0.00    -0.00     0.00     0.00
eigval :      -49.95   -14.73    30.43    31.45    36.95    41.48
eigval :       62.57    83.55    90.47   121.22   130.30   146.66
eigval :      152.53   162.67   167.69   173.43   188.02   193.55
eigval :      199.86   202.49   204.82   210.83   270.61   274.08
eigval :      289.45   317.05   319.63   341.96   379.16   394.86
eigval :      461.41   466.99   472.05   473.39   482.48   494.39
eigval :      497.01   508.14   511.95   536.69   546.58   575.92
eigval :      591.16   593.55   622.03   628.18   659.09   666.72
eigval :      736.47   838.71   840.24   848.76   850.98   858.06
eigval :      861.48   872.63   874.86   916.45   924.55   957.47
eigval :      958.18   959.65   970.51   970.62   974.30  1006.88
eigval :     1011.88  1015.47  1016.02  1020.30  1022.63  1025.95
eigval :     1026.72  1033.68  1039.05  1040.03  1062.65  1075.00
eigval :     1095.32  1113.45  1134.43  1175.20  1176.62  1189.13
eigval :     1204.59  1223.00  1224.88  1255.24  1276.85  1304.26
eigval :     1317.88  1319.57  1322.28  1386.09  1394.68  1396.21
eigval :     1397.70  1399.96  1400.51  1401.93  1406.13  1407.34
eigval :     1409.94  1412.54  1432.13  1444.68  1445.18  1460.23
eigval :     1462.73  1463.72  1464.63  1470.30  1473.53  1476.34
eigval :     1479.67  1480.62  1482.75  1485.82  1488.07  1500.14
eigval :     1535.54  1550.94  1567.12  2972.93  2985.89  2986.84
eigval :     2987.91  2988.90  2989.96  3001.67  3015.57  3016.68
eigval :     3018.79  3022.81  3023.15  3023.75  3024.88  3030.62
eigval :     3030.78  3033.45  3038.46  3042.06  3042.55  3052.04
eigval :     3052.20  3054.63  3055.57  3063.27  3064.83  3073.79

   temp. (K)  partition function   enthalpy   heat capacity  entropy
                                   cal/mol     cal/K/mol   cal/K/mol   J/K/mol
 298.15  VIB  0.698E+11            14496.152     88.057     90.050
         ROT  0.103E+08              888.752      2.981     35.079
         INT  0.722E+18            15384.904     91.038    125.129
         TR   0.570E+28             1481.254      4.968     43.223
         TOT                       16866.1582    96.0060   168.3525   704.3868

       T/K    H(0)-H(T)+PV         H(T)/Eh          T*S/Eh         G(T)/Eh
   ------------------------------------------------------------------------
    298.15    0.268779E-01    0.453429E+00    0.799897E-01    0.373439E+00
   ------------------------------------------------------------------------

         :::::::::::::::::::::::::::::::::::::::::::::::::::::
         ::                  THERMODYNAMIC                  ::
         :::::::::::::::::::::::::::::::::::::::::::::::::::::
         :: total free energy         -65.937200190128 Eh   ::
         ::.................................................::
         :: total energy              -66.310639493439 Eh   ::
         :: zero point energy           0.426551064650 Eh   ::
         :: G(RRHO) w/o ZPVE           -0.053111761339 Eh   ::
         :: G(RRHO) contrib.            0.373439303311 Eh   ::
         :::::::::::::::::::::::::::::::::::::::::::::::::::::

           -------------------------------------------------
          | TOTAL ENERGY              -66.310639493439 Eh   |
          | TOTAL ENTHALPY            -65.857210494865 Eh   |
          | TOTAL FREE ENERGY         -65.937200190128 Eh   |
          | GRADIENT NORM               0.000044009571 Eh/α |
          | HOMO-LUMO GAP               1.082021674452 eV   |
           -------------------------------------------------

 * finished run on 2025/08/22 at 08:36:56.636
