   * xtb version 6.7.1 (edcfbbe) compiled by 'albert@albert-system' on 2024-07-22

   ID    Z sym.   atoms
    1    6 C      1-6, 8-25
    2    5 B      7
    3    1 H      26-52

          program call               : xtb data2507/toluene/N-B/N-B_toluene_T1_crest.xyz --gfn 2 --uhf 2 --gbsa toluene --ohess vtight --parallel 40 --molden --ceasefiles --namespace data2507/toluene/N-B/N-B_toluene_T1_finalOpt
      * Solvation model:               GBSA
        Solvent                        toluene
        Solvent mass                       9.2140E+01 g/mol
          :  Hamiltonian                  GFN2-xTB          :
 * total energy  :   -66.3105061 Eh     change       -0.6710835E-08 Eh
 * total energy  :   -66.3105939 Eh     change       -0.8772299E-04 Eh
 * total energy  :   -66.3106338 Eh     change       -0.3988704E-04 Eh
 * total energy  :   -66.3106459 Eh     change       -0.1213134E-04 Eh
 * total energy  :   -66.3106545 Eh     change       -0.8628022E-05 Eh
 * total energy  :   -66.3106618 Eh     change       -0.7265865E-05 Eh
 * total energy  :   -66.3106672 Eh     change       -0.5422972E-05 Eh
 * total energy  :   -66.3106699 Eh     change       -0.2723877E-05 Eh
 * total energy  :   -66.3106718 Eh     change       -0.1867142E-05 Eh
 * total energy  :   -66.3106739 Eh     change       -0.2087653E-05 Eh
 * total energy  :   -66.3106864 Eh     change       -0.2409765E-06 Eh
 * total energy  :   -66.3106866 Eh     change       -0.1984634E-06 Eh
 * total energy  :   -66.3106868 Eh     change       -0.2132640E-06 Eh
 * total energy  :   -66.3106870 Eh     change       -0.1854060E-06 Eh
 * total energy  :   -66.3106866 Eh     change        0.4220213E-06 Eh
 * total energy  :   -66.3106870 Eh     change       -0.3728798E-06 Eh
 * total energy  :   -66.3106871 Eh     change       -0.1400587E-06 Eh
 * total energy  :   -66.3106870 Eh     change        0.7931105E-07 Eh
 * total energy  :   -66.3106871 Eh     change       -0.9362446E-07 Eh
   *** GEOMETRY OPTIMIZATION CONVERGED AFTER 26 ITERATIONS ***

 final structure:
================
52
 xtb: 6.7.1 (edcfbbe)
C           -4.95990109808893       -2.74935246964552        0.28447586258080
C           -3.71982606580947       -1.91443791882899        0.24073835297330
C           -2.63809091062284       -2.18351832229575        1.07645189049797
C           -1.50025303941968       -1.40363368596167        1.06308711628420
C           -0.39293769899706       -1.70159086247704        2.02356757670378
C           -1.36601910266101       -0.33494510967677        0.12657641656085
B           -0.00280078825053        0.39355724082342        0.00230803458178
C           -0.00965631415452        1.95189872715699        0.00156186876853
C           -1.02339077832060        2.68041045388013        0.65139517885598
C           -1.02389772511044        4.05874776858672        0.64909882577892
C           -0.02061617822359        4.76733420819938       -0.00012030684176
C            0.98830380038275        4.06583166797451       -0.64831579047584
C            0.99839353390091        2.68754953169729       -0.64914790123255
C            1.36639460020949       -0.32324254913131       -0.12257024465595
C            2.48670022716667       -0.02097258399198        0.70005159015257
C            2.43559276632124        1.09843227862975        1.69403796636167
C            3.62138574689966       -0.80134315788821        0.64103125495749
C            3.73667698785706       -1.87779535200006       -0.24289296673215
C            4.99479807727049       -2.68512806539132       -0.29194000605008
C            2.65666028716924       -2.15875056208554       -1.07522548367025
C            1.51008028556805       -1.39056755383354       -1.05889845258420
C            0.40389485476424       -1.70083660436338       -2.01663326515786
C           -2.48795536574497       -0.04376891244180       -0.69738236875795
C           -2.44819354672166        1.07816020503645       -1.68881638286149
C           -3.61444688657112       -0.83731883153082       -0.64200079702723
H           -5.84489002270295       -2.14197973764828        0.10358920949961
H           -5.06099251596518       -3.24918958514326        1.24549911802490
H           -4.91797654608159       -3.51583847207520       -0.49228198905665
H           -2.70699305731843       -3.00624865945328        1.77599509829128
H           -0.70181545383959       -2.44381848289064        2.75639694988920
H            0.47891972534599       -2.08163987331254        1.48977902771646
H           -0.08277538788641       -0.79497323471407        2.54060820312776
H           -1.80367697367333        2.15156445894644        1.18044263173290
H           -1.81233748981577        4.59172475868722        1.16519621583823
H           -0.02492140381968        5.84796194977127       -0.00098371501677
H            1.77255123899370        4.60433873820202       -1.16505458489168
H            1.78289194673947        2.16419380247410       -1.17743265069439
H            2.67770728607489        2.04866590354200        1.21713343777630
H            3.14825714325716        0.93011661894892        2.49911037332137
H            1.43471057703963        1.19610390026154        2.10963223286010
H            4.45198748922741       -0.57766068635322        1.29757255514828
H            5.11158472478976       -3.25249871359493        0.63293637800227
H            4.97997358672279       -3.38393826265238       -1.12496500508594
H            5.86490705165149       -2.03642973365209       -0.39049025144445
H            2.73155782069493       -2.98066010901768       -1.77511621657854
H           -0.46234764136699       -2.09052765700685       -1.48058942816596
H            0.71908194254567       -2.43960274525180       -2.75028086195369
H            0.08217339476176       -0.79772463169764       -2.53274673748806
H           -3.15769290419235        0.90357067836329       -2.49535092434816
H           -1.44777950102647        1.18820731973800       -2.10253865328083
H           -2.70182303465624        2.02456889231408       -1.21022703358666
H           -4.44535709531287       -0.62107286252535       -1.30063663864793

          :  Hamiltonian                  GFN2-xTB          :
         :: gradient norm              0.000055633960 Eh/a0 ::
         :: HOMO-LUMO gap              1.084316139687 eV    ::
         :: SCC energy               -67.503656829487 Eh    ::
         :: -> dispersion             -0.061684683078 Eh    ::
         :: -> Gsolv                  -0.025497477122 Eh    ::
         :: repulsion energy           1.192969692539 Eh    ::

    * Orbital Energies and Occupations

         #    Occupation            Energy/Eh            Energy/eV
      -------------------------------------------------------------
         1        2.0000           -0.6360294             -17.3072
       ...           ...                  ...                  ...
        52        2.0000           -0.4164444             -11.3320
        53        2.0000           -0.4132571             -11.2453
        54        2.0000           -0.4121935             -11.2164
        55        2.0000           -0.4061682             -11.0524
        56        2.0000           -0.3900475             -10.6137
        57        2.0000           -0.3890128             -10.5856
        58        2.0000           -0.3871916             -10.5360
        59        2.0000           -0.3825217             -10.4089
        60        2.0000           -0.3814115             -10.3787
        61        2.0000           -0.3805759             -10.3560
        62        1.9996           -0.3722036             -10.1282
        63        1.0004           -0.3574741              -9.7274
        64        1.0000           -0.2576892              -7.0121 (HOMO)
        65                         -0.2178410              -5.9278 (LUMO)
        66                         -0.2097284              -5.7070
        67                         -0.2057911              -5.5999
        68                         -0.2046694              -5.5693
        69                         -0.2029810              -5.5234
        70                         -0.1498849              -4.0786
        71                         -0.0923623              -2.5133
        72                         -0.0813049              -2.2124
        73                         -0.0557792              -1.5178
        74                          0.0924309               2.5152
        75                          0.0945007               2.5715
       ...                                ...                  ...
       127                          0.6743088              18.3489
      -------------------------------------------------------------
                  HL-Gap            0.0398482 Eh            1.0843 eV

     #   Z          covCN         q      C6AA      α(0)
     1   6 C        3.757    -0.107    22.593     6.777
     2   6 C        2.961     0.012    27.757     8.642
     3   6 C        2.923    -0.057    29.406     8.893
     4   6 C        2.962     0.012    27.749     8.640
     5   6 C        3.758    -0.111    22.673     6.788
     6   6 C        2.887    -0.059    29.454     8.898
     7   5 B        2.714     0.170    18.844     7.278
     8   6 C        2.885    -0.040    28.981     8.826
     9   6 C        2.919    -0.042    29.040     8.837
    10   6 C        2.916    -0.037    28.915     8.818
    11   6 C        2.917    -0.051    29.270     8.872
    12   6 C        2.916    -0.037    28.915     8.818
    13   6 C        2.919    -0.042    29.039     8.837
    14   6 C        2.887    -0.059    29.460     8.899
    15   6 C        2.960     0.012    27.746     8.640
    16   6 C        3.759    -0.110    22.660     6.787
    17   6 C        2.925    -0.055    29.362     8.886
    18   6 C        2.961     0.011    27.757     8.642
    19   6 C        3.757    -0.107    22.593     6.777
    20   6 C        2.922    -0.056    29.401     8.892
    21   6 C        2.962     0.012    27.748     8.640
    22   6 C        3.758    -0.111    22.672     6.788
    23   6 C        2.960     0.012    27.744     8.639
    24   6 C        3.759    -0.110    22.660     6.786
    25   6 C        2.925    -0.055    29.357     8.885
    26   1 H        0.925     0.044     2.394     2.419
    27   1 H        0.925     0.043     2.414     2.430
    28   1 H        0.924     0.051     2.305     2.374
    29   1 H        0.925     0.025     2.664     2.552
    30   1 H        0.925     0.041     2.435     2.440
    31   1 H        0.924     0.056     2.248     2.345
    32   1 H        0.925     0.048     2.341     2.393
    33   1 H        0.926     0.017     2.776     2.606
    34   1 H        0.925     0.012     2.854     2.642
    35   1 H        0.926     0.010     2.895     2.661
    36   1 H        0.925     0.012     2.854     2.642
    37   1 H        0.926     0.017     2.777     2.606
    38   1 H        0.924     0.048     2.342     2.393
    39   1 H        0.925     0.039     2.462     2.454
    40   1 H        0.925     0.047     2.358     2.401
    41   1 H        0.925     0.025     2.653     2.547
    42   1 H        0.924     0.050     2.319     2.381
    43   1 H        0.925     0.041     2.433     2.439
    44   1 H        0.925     0.046     2.365     2.405
    45   1 H        0.925     0.024     2.671     2.556
    46   1 H        0.924     0.056     2.247     2.344
    47   1 H        0.925     0.041     2.435     2.440
    48   1 H        0.925     0.048     2.340     2.392
    49   1 H        0.925     0.039     2.461     2.453
    50   1 H        0.925     0.047     2.356     2.400
    51   1 H        0.924     0.048     2.340     2.392
    52   1 H        0.925     0.025     2.657     2.549

molecular dipole:
                 x           y           z       tot (Debye)
 q only:        0.007      -1.204       0.001
   full:        0.011      -1.181       0.001       3.002

 projected vibrational frequencies (cm⁻¹)
eigval :       -0.00    -0.00    -0.00    -0.00     0.00     0.00
eigval :      -50.49   -38.08    27.96    33.40    36.20    40.63
eigval :       61.35    81.48    90.37   120.35   132.22   147.04
eigval :      153.48   162.52   168.34   171.34   187.21   192.62
eigval :      198.43   201.42   205.57   209.89   270.05   273.74
eigval :      289.38   316.04   318.74   341.05   377.49   392.84
eigval :      458.93   466.12   471.91   472.50   483.97   493.93
eigval :      496.78   507.63   512.54   533.99   546.08   575.77
eigval :      591.16   593.04   622.12   627.53   658.42   665.92
eigval :      731.95   840.08   841.94   842.49   850.72   855.98
eigval :      862.20   873.10   874.28   910.86   919.09   958.24
eigval :      958.78   959.32   970.41   970.61   975.95  1005.54
eigval :     1011.34  1016.12  1016.76  1019.04  1021.68  1027.11
eigval :     1027.83  1034.11  1039.24  1040.61  1063.55  1074.80
eigval :     1095.37  1112.95  1134.07  1174.20  1175.43  1188.39
eigval :     1203.64  1222.37  1223.52  1254.74  1276.27  1306.31
eigval :     1317.63  1319.75  1319.79  1382.93  1394.68  1396.05
eigval :     1398.51  1399.46  1400.69  1402.19  1405.94  1408.05
eigval :     1409.96  1412.25  1432.13  1444.36  1445.16  1460.72
eigval :     1463.04  1465.70  1466.36  1470.30  1472.91  1475.12
eigval :     1478.47  1481.99  1482.24  1485.86  1486.93  1500.52
eigval :     1535.30  1550.75  1566.97  2972.57  2981.31  2986.58
eigval :     2987.03  2989.16  2989.58  3007.77  3015.53  3016.19
eigval :     3021.61  3022.87  3023.31  3023.42  3024.29  3029.64
eigval :     3029.84  3030.46  3037.14  3041.22  3041.40  3051.37
eigval :     3051.71  3054.59  3055.75  3063.05  3064.55  3073.48

   temp. (K)  partition function   enthalpy   heat capacity  entropy
                                   cal/mol     cal/K/mol   cal/K/mol   J/K/mol
 298.15  VIB  0.541E+10            13947.333     87.071     85.449
         ROT  0.103E+08              888.752      2.981     35.079
         INT  0.560E+17            14836.085     90.052    120.528
         TR   0.570E+28             1481.254      4.968     43.223
         TOT                       16317.3394    95.0204   163.7517   685.1370

       T/K    H(0)-H(T)+PV         H(T)/Eh          T*S/Eh         G(T)/Eh
   ------------------------------------------------------------------------
    298.15    0.260033E-01    0.452382E+00    0.778037E-01    0.374578E+00
   ------------------------------------------------------------------------

         :::::::::::::::::::::::::::::::::::::::::::::::::::::
         ::                  THERMODYNAMIC                  ::
         :::::::::::::::::::::::::::::::::::::::::::::::::::::
         :: total free energy         -65.936108884976 Eh   ::
         ::.................................................::
         :: total energy              -66.310687133596 Eh   ::
         :: zero point energy           0.426378612723 Eh   ::
         :: G(RRHO) w/o ZPVE           -0.051800364103 Eh   ::
         :: G(RRHO) contrib.            0.374578248620 Eh   ::
         :::::::::::::::::::::::::::::::::::::::::::::::::::::

           -------------------------------------------------
          | TOTAL ENERGY              -66.310687133596 Eh   |
          | TOTAL ENTHALPY            -65.858305185322 Eh   |
          | TOTAL FREE ENERGY         -65.936108884976 Eh   |
          | GRADIENT NORM               0.000055674668 Eh/α |
          | HOMO-LUMO GAP               1.084324904100 eV   |
           -------------------------------------------------

 * finished run on 2025/08/22 at 08:39:04.348
