   * xtb version 6.7.1 (edcfbbe) compiled by 'albert@albert-system' on 2024-07-22

   ID    Z sym.   atoms
    1    6 C      1-6, 8-25
    2    5 B      7
    3    1 H      26-52

          program call               : xtb data2507/toluene/N-B/N-B.xyz --gfn 2 --gbsa toluene --ohess vtight --parallel 40 --molden --ceasefiles --namespace data2507/toluene/N-B/N-B_toluene_S0_preOpt
      * Solvation model:               GBSA
        Solvent                        toluene
        Solvent mass                       9.2140E+01 g/mol
          :  Hamiltonian                  GFN2-xTB          :
 * total energy  :   -66.3879513 Eh     change       -0.4241883E-08 Eh
 * total energy  :   -66.4064058 Eh     change       -0.1845451E-01 Eh
 * total energy  :   -66.4094297 Eh     change       -0.3023838E-02 Eh
 * total energy  :   -66.4096931 Eh     change       -0.2634351E-03 Eh
 * total energy  :   -66.4098903 Eh     change       -0.1972342E-03 Eh
 * total energy  :   -66.4100055 Eh     change       -0.1152197E-03 Eh
 * total energy  :   -66.4101476 Eh     change       -0.1420835E-03 Eh
 * total energy  :   -66.4103170 Eh     change       -0.1694067E-03 Eh
 * total energy  :   -66.4104980 Eh     change       -0.1809614E-03 Eh
 * total energy  :   -66.4106958 Eh     change       -0.1977743E-03 Eh
 * total energy  :   -66.4118688 Eh     change       -0.7953554E-06 Eh
 * total energy  :   -66.4118696 Eh     change       -0.7972996E-06 Eh
 * total energy  :   -66.4118693 Eh     change        0.2529553E-06 Eh
 * total energy  :   -66.4118697 Eh     change       -0.3822272E-06 Eh
 * total energy  :   -66.4118706 Eh     change       -0.9629471E-06 Eh
 * total energy  :   -66.4118699 Eh     change        0.7503037E-06 Eh
 * total energy  :   -66.4118710 Eh     change       -0.1143168E-05 Eh
 * total energy  :   -66.4118714 Eh     change       -0.3400960E-06 Eh
 * total energy  :   -66.4118714 Eh     change       -0.7027325E-08 Eh
   *** GEOMETRY OPTIMIZATION CONVERGED AFTER 94 ITERATIONS ***

 final structure:
================
52
 xtb: 6.7.1 (edcfbbe)
C           -5.29273115494351       -2.07214124033793        0.60273407216036
C           -3.94491760093994       -1.43440431809100        0.44443067553158
C           -2.91302870682460       -1.72003381039300        1.32841225896813
C           -1.65454650082932       -1.15915232241817        1.18301270684703
C           -0.59171751285977       -1.49238510444449        2.18962193627973
C           -1.38850957585831       -0.26490802752519        0.13016113705976
B            0.01259478856972        0.43388413883106       -0.00062619153523
C            0.06361484998194        1.99987026864201       -0.01374505010060
C           -0.94002146476757        2.76713708893910        0.58896871340467
C           -0.89292865785196        4.14853400455427        0.58699649820274
C            0.15490108345732        4.80652242940619       -0.03736659899451
C            1.15765222483124        4.07149211686248       -0.64965778406826
C            1.11477737910496        2.69007807374790       -0.62850316913517
C            1.36583539013253       -0.35541497896785       -0.12102850384770
C            2.42399562761382       -0.12993941752066        0.77176501740568
C            2.28704924883725        0.78849135373632        1.95445124681937
C            3.63635512094749       -0.78839446962411        0.61236672825993
C            3.84826919618501       -1.67684571470393       -0.42849459935343
C            5.15740259629465       -2.39091550342359       -0.58600294826686
C            2.79978981376486       -1.90784644146468       -1.30896862976666
C            1.57643789159582       -1.27343078287377       -1.16616718596892
C            0.49445114425071       -1.55338813049004       -2.16867602484083
C           -2.43132562912381        0.01844519200727       -0.76415366961994
C           -2.24141640712554        0.92708429672718       -1.94723127191598
C           -3.68076064592184       -0.56520043077416       -0.60094241074053
H           -5.29826577281476       -3.05473960925036        0.12815903533509
H           -6.06611063570232       -1.46691882954586        0.13459019851711
H           -5.53674567324361       -2.20744329623718        1.65466819255097
H           -3.09749790422792       -2.39926268009207        2.15035052539645
H           -0.92813654584195       -2.28277659233424        2.85730208010461
H            0.31930188049644       -1.81590326683705        1.69173257064534
H           -0.34880574173545       -0.61665759797238        2.79005411652103
H           -1.76437458103142        2.26216226045799        1.07371551897026
H           -1.67725044558013        4.71732698769371        1.06736902651089
H            0.18991511743389        5.88693794255133       -0.04619793650227
H            1.97711715105544        4.57999922032633       -1.13888716512817
H            1.90520331689163        2.12475621698943       -1.10298170651971
H            2.50013219001021        0.24418210274013        2.87457541283119
H            1.28963073177641        1.21025386400585        2.02152942470142
H            3.00464977631417        1.60566502884476        1.87988652018472
H            4.43246389638433       -0.59878551916986        1.32054969947482
H            5.96535498397579       -1.82633663135162       -0.12547408730791
H            5.10950498735490       -3.36854673051800       -0.10366958188110
H            5.38917637954011       -2.54769465782370       -1.63770944191987
H            2.94309139584660       -2.60218162561219       -2.12649773683328
H           -0.43757355046967       -1.80322400659607       -1.66731517359237
H            0.77706324364131       -2.37835725122657       -2.81922551543993
H            0.31349990825090       -0.67583455687213       -2.78825007293685
H           -2.83905420532400        1.83069114334143       -1.82405997795996
H           -2.57639328059911        0.43044888578432       -2.85764790752172
H           -1.20288512925159        1.21719683581583       -2.06770505409333
H           -4.46423499167428       -0.33209590751230       -1.31021791688822

          :  Hamiltonian                  GFN2-xTB          :
         :: gradient norm              0.000050507131 Eh/a0 ::
         :: HOMO-LUMO gap              2.693891779821 eV    ::
         :: SCC energy               -67.615920605302 Eh    ::
         :: -> dispersion             -0.060913253669 Eh    ::
         :: -> Gsolv                  -0.025527400488 Eh    ::
         :: repulsion energy           1.204049218529 Eh    ::

    * Orbital Energies and Occupations

         #    Occupation            Energy/Eh            Energy/eV
      -------------------------------------------------------------
         1        2.0000           -0.6365400             -17.3211
       ...           ...                  ...                  ...
        51        2.0000           -0.4300645             -11.7027
        52        2.0000           -0.4171337             -11.3508
        53        2.0000           -0.4147256             -11.2853
        54        2.0000           -0.4113342             -11.1930
        55        2.0000           -0.4095822             -11.1453
        56        2.0000           -0.3991951             -10.8627
        57        2.0000           -0.3984565             -10.8426
        58        2.0000           -0.3950662             -10.7503
        59        2.0000           -0.3882539             -10.5649
        60        2.0000           -0.3776167             -10.2755
        61        2.0000           -0.3762185             -10.2374
        62        2.0000           -0.3698808             -10.0650
        63        2.0000           -0.3647823              -9.9262 (HOMO)
        64                         -0.2657836              -7.2323 (LUMO)
        65                         -0.2161487              -5.8817
        66                         -0.2102296              -5.7206
        67                         -0.2078776              -5.6566
        68                         -0.2045256              -5.5654
        69                         -0.2032515              -5.5308
        70                         -0.1648733              -4.4864
        71                         -0.0853156              -2.3216
        72                         -0.0845594              -2.3010
        73                         -0.0646383              -1.7589
        74                          0.0935645               2.5460
       ...                                ...                  ...
       127                          0.6676371              18.1673
      -------------------------------------------------------------
                  HL-Gap            0.0989987 Eh            2.6939 eV

     #   Z          covCN         q      C6AA      α(0)
     1   6 C        3.757    -0.106    22.583     6.775
     2   6 C        2.962     0.009    27.811     8.650
     3   6 C        2.929    -0.058    29.449     8.900
     4   6 C        2.967     0.010    27.796     8.648
     5   6 C        3.758    -0.112    22.697     6.792
     6   6 C        2.889    -0.083    30.087     8.993
     7   5 B        2.709     0.251    17.699     7.055
     8   6 C        2.884    -0.061    29.505     8.905
     9   6 C        2.924    -0.027    28.688     8.783
    10   6 C        2.915    -0.032    28.801     8.800
    11   6 C        2.920    -0.028    28.695     8.784
    12   6 C        2.915    -0.032    28.799     8.800
    13   6 C        2.924    -0.027    28.685     8.783
    14   6 C        2.889    -0.083    30.085     8.992
    15   6 C        2.967     0.010    27.781     8.645
    16   6 C        3.759    -0.110    22.651     6.785
    17   6 C        2.930    -0.059    29.464     8.902
    18   6 C        2.962     0.009    27.812     8.650
    19   6 C        3.757    -0.106    22.583     6.775
    20   6 C        2.929    -0.058    29.449     8.900
    21   6 C        2.967     0.010    27.800     8.648
    22   6 C        3.758    -0.112    22.693     6.792
    23   6 C        2.967     0.010    27.780     8.645
    24   6 C        3.759    -0.110    22.646     6.784
    25   6 C        2.930    -0.059    29.463     8.902
    26   1 H        0.924     0.044     2.399     2.422
    27   1 H        0.925     0.039     2.463     2.454
    28   1 H        0.925     0.040     2.452     2.449
    29   1 H        0.925     0.020     2.729     2.583
    30   1 H        0.925     0.036     2.499     2.472
    31   1 H        0.925     0.049     2.332     2.388
    32   1 H        0.925     0.042     2.423     2.434
    33   1 H        0.925     0.027     2.632     2.537
    34   1 H        0.925     0.024     2.673     2.557
    35   1 H        0.926     0.025     2.652     2.547
    36   1 H        0.925     0.024     2.671     2.556
    37   1 H        0.925     0.027     2.632     2.537
    38   1 H        0.925     0.042     2.419     2.432
    39   1 H        0.925     0.040     2.444     2.445
    40   1 H        0.925     0.041     2.440     2.443
    41   1 H        0.925     0.021     2.715     2.577
    42   1 H        0.925     0.039     2.463     2.454
    43   1 H        0.924     0.044     2.399     2.422
    44   1 H        0.925     0.040     2.452     2.449
    45   1 H        0.925     0.020     2.730     2.584
    46   1 H        0.925     0.049     2.333     2.388
    47   1 H        0.925     0.036     2.498     2.472
    48   1 H        0.925     0.041     2.430     2.438
    49   1 H        0.924     0.041     2.433     2.439
    50   1 H        0.925     0.042     2.426     2.436
    51   1 H        0.925     0.040     2.447     2.446
    52   1 H        0.925     0.021     2.716     2.577

molecular dipole:
                 x           y           z       tot (Debye)
 q only:       -0.003      -0.008       0.004
   full:        0.001       0.062       0.004       0.157

 projected vibrational frequencies (cm⁻¹)
eigval :       -0.00    -0.00     0.00     0.00     0.00     0.00
eigval :       26.25    30.73    31.64    36.78    44.67    49.27
eigval :       54.08    56.32    62.68    77.88   105.01   121.08
eigval :      129.00   130.95   159.64   161.77   182.28   189.95
eigval :      201.13   204.99   210.53   236.73   273.95   276.08
eigval :      306.97   320.31   328.72   345.75   362.07   414.09
eigval :      460.22   475.67   487.37   497.91   499.22   504.21
eigval :      506.91   513.28   537.94   551.90   587.01   596.17
eigval :      598.56   602.69   626.89   671.94   681.78   682.77
eigval :      743.48   842.62   844.68   875.17   882.97   884.89
eigval :      893.64   894.29   911.45   935.76   937.38   963.41
eigval :      963.56   972.26   973.03   986.38  1021.82  1022.95
eigval :     1027.98  1028.74  1031.25  1032.54  1033.33  1034.91
eigval :     1039.85  1040.37  1042.75  1043.43  1083.88  1102.42
eigval :     1119.74  1161.83  1182.58  1189.50  1205.86  1215.15
eigval :     1220.84  1234.41  1234.74  1285.24  1302.12  1303.60
eigval :     1307.35  1333.08  1335.28  1398.40  1398.76  1400.77
eigval :     1400.99  1403.68  1406.28  1417.89  1425.29  1426.93
eigval :     1451.13  1454.32  1461.01  1473.91  1478.13  1480.42
eigval :     1480.96  1481.75  1482.13  1482.64  1483.55  1485.71
eigval :     1487.03  1494.37  1494.91  1559.82  1560.39  1566.23
eigval :     1590.37  1598.95  1601.12  2987.26  2987.69  2993.89
eigval :     2994.46  3005.76  3007.17  3008.18  3009.35  3024.78
eigval :     3024.82  3029.30  3030.08  3030.63  3031.52  3037.41
eigval :     3037.49  3051.93  3052.30  3055.11  3055.78  3056.06
eigval :     3057.80  3064.93  3065.18  3065.68  3069.62  3078.75

   temp. (K)  partition function   enthalpy   heat capacity  entropy
                                   cal/mol     cal/K/mol   cal/K/mol   J/K/mol
 298.15  VIB  0.788E+12            15029.112     87.340     95.890
         ROT  0.105E+08              888.752      2.981     35.104
         INT  0.825E+19            15917.864     90.321    130.994
         TR   0.570E+28             1481.254      4.968     43.223
         TOT                       17399.1180    95.2891   174.2176   728.9265

       T/K    H(0)-H(T)+PV         H(T)/Eh          T*S/Eh         G(T)/Eh
   ------------------------------------------------------------------------
    298.15    0.277273E-01    0.458704E+00    0.827764E-01    0.375928E+00
   ------------------------------------------------------------------------

         :::::::::::::::::::::::::::::::::::::::::::::::::::::
         ::                  THERMODYNAMIC                  ::
         :::::::::::::::::::::::::::::::::::::::::::::::::::::
         :: total free energy         -66.035943472402 Eh   ::
         ::.................................................::
         :: total energy              -66.411871385307 Eh   ::
         :: zero point energy           0.430977059558 Eh   ::
         :: G(RRHO) w/o ZPVE           -0.055049146652 Eh   ::
         :: G(RRHO) contrib.            0.375927912906 Eh   ::
         :::::::::::::::::::::::::::::::::::::::::::::::::::::

           -------------------------------------------------
          | TOTAL ENERGY              -66.411871385307 Eh   |
          | TOTAL ENTHALPY            -65.953167066326 Eh   |
          | TOTAL FREE ENERGY         -66.035943472402 Eh   |
          | GRADIENT NORM               0.000050511814 Eh/α |
          | HOMO-LUMO GAP               2.693891059259 eV   |
           -------------------------------------------------

 * finished run on 2025/08/22 at 08:35:03.524
