   * xtb version 6.7.1 (edcfbbe) compiled by 'albert@albert-system' on 2024-07-22

   ID    Z sym.   atoms
    1    8 O      1, 3
    2   16 S      2
    3    6 C      4-7, 9-28, 30-45
    4    7 N      8, 29
    5    1 H      46-73

          program call               : xtb data2507/toluene/ethylacetate/ethylacetate.xyz --gfn 2 --gbsa toluene --ohess vtight --parallel 40 --molden --ceasefiles --namespace data2507/toluene/ethylacetate/ethylacetate_toluene_S0_preOpt
      * Solvation model:               GBSA
        Solvent                        toluene
        Solvent mass                       9.2140E+01 g/mol
          :  Hamiltonian                  GFN2-xTB          :
 * total energy  :  -117.1234626 Eh     change       -0.5575998E-08 Eh
 * total energy  :  -117.1356120 Eh     change       -0.1214945E-01 Eh
 * total energy  :  -117.1394948 Eh     change       -0.3882797E-02 Eh
 * total energy  :  -117.1405674 Eh     change       -0.1072580E-02 Eh
 * total energy  :  -117.1412210 Eh     change       -0.6536241E-03 Eh
 * total energy  :  -117.1415585 Eh     change       -0.3374939E-03 Eh
 * total energy  :  -117.1417989 Eh     change       -0.2403811E-03 Eh
 * total energy  :  -117.1419895 Eh     change       -0.1905942E-03 Eh
 * total energy  :  -117.1421632 Eh     change       -0.1736477E-03 Eh
 * total energy  :  -117.1423189 Eh     change       -0.1557535E-03 Eh
 * total energy  :  -117.1434521 Eh     change       -0.5272432E-06 Eh
 * total energy  :  -117.1434524 Eh     change       -0.3363222E-06 Eh
 * total energy  :  -117.1434527 Eh     change       -0.2522796E-06 Eh
 * total energy  :  -117.1434530 Eh     change       -0.3689355E-06 Eh
 * total energy  :  -117.1434536 Eh     change       -0.5201600E-06 Eh
 * total energy  :  -117.1434542 Eh     change       -0.6287773E-06 Eh
 * total energy  :  -117.1434549 Eh     change       -0.6603145E-06 Eh
 * total energy  :  -117.1434554 Eh     change       -0.5532946E-06 Eh
 * total energy  :  -117.1434554 Eh     change       -0.8723688E-08 Eh
   *** GEOMETRY OPTIMIZATION CONVERGED AFTER 152 ITERATIONS ***

 final structure:
================
73
 xtb: 6.7.1 (edcfbbe)
O           -0.06316957105172        4.63666898462739        0.14264083777951
S           -0.02624090850891        3.61718136346349       -0.88441199675721
O           -0.00903939054356        4.06957288095175       -2.25811261685712
C           -1.42412988294609        2.51475340604895       -0.65317178935325
C           -2.19091000119605        2.12759539326409       -1.73378819132495
C           -3.24953151342443        1.25765406155746       -1.53430521553930
C           -3.53339252804790        0.77611562297179       -0.25992430336287
N           -4.64099336112247       -0.10925445986856       -0.13407336018141
C           -5.86771373658855        0.47253039869396        0.25093781930420
C           -5.86433222456873        1.58848353099039        1.08565163488270
C           -7.03683160163145        2.23172731871126        1.44288948295454
C           -8.25097381659994        1.76953924009699        0.97119202459846
C           -8.26651345772441        0.67725147870785        0.12493600024520
C           -7.09784733596845        0.01549147038313       -0.24982728575252
C           -7.23421029129329       -1.09330411883612       -1.18154716446970
C           -6.43125663501509       -2.14914382325287       -1.32221995435092
C           -5.21305341579590       -2.45735968521460       -0.58844978678402
C           -4.85726631130366       -3.80229785943602       -0.49328609329309
C           -3.69138166453347       -4.21065919577006        0.12569658825111
C           -2.83887688653793       -3.25237826495008        0.64033205181716
C           -3.17459775116614       -1.91163393800463        0.56238073912392
C           -4.36303599635090       -1.48779275788874       -0.02922657274748
C           -2.74765017892409        1.18080294652758        0.82066264996762
C           -1.68951933893481        2.04952643077997        0.62097043243992
C            1.39857209430294        2.56411935851055       -0.59458903208897
C            2.09235003004744        2.66262130961489        0.59553196558158
C            3.16794933772606        1.82262161362352        0.82854279592439
C            3.54400557758401        0.88649370657685       -0.13499394534996
N            4.63593228773712       -0.01202751192020        0.02732865570534
C            4.37908485446211       -1.19522116912156        0.75195860944331
C            3.44174897327841       -1.17952675694748        1.78287775793668
C            3.11469410987597       -2.32789493832369        2.48325989741568
C            3.72387030803453       -3.52791057616582        2.16780511662116
C            4.63718060509243       -3.56177638868522        1.13141515341757
C            4.97965059817124       -2.41824986892853        0.41082533747730
C            5.91546032063684       -2.58308021112726       -0.69073571182624
C            6.75256326166423       -1.67632158374877       -1.19722992834583
C            6.94029572456958       -0.29552921138412       -0.77820453897204
C            8.18815819503526        0.27592487911342       -1.02371016618669
C            8.46296867919749        1.59504698639730       -0.71776726239628
C            7.46027183266032        2.37751730737509       -0.17689989295951
C            6.21473071884308        1.83012855363751        0.07862066306596
C            5.93340521805065        0.49352872908572       -0.19675217612066
C            2.82793225131781        0.80088189551464       -1.32641462711390
C            1.75088372848505        1.63820146710287       -1.55782017773576
H           -1.95384133008905        2.52078259338743       -2.71000240247729
H           -3.86695053113199        0.94520799507465       -2.36264512891738
H           -4.93042584334796        1.98377123326680        1.45159433284646
H           -6.99189141709956        3.09817506257612        2.08630587784912
H           -9.17206800694726        2.26318874366001        1.24213400028000
H           -9.20792203955551        0.32239535468696       -0.27039768672559
H           -8.13766654729975       -1.06066959880314       -1.77810569771027
H           -6.72647082495787       -2.91752170193600       -2.02631833606429
H           -5.51680496167506       -4.54010116899251       -0.92827547022867
H           -3.44258980709553       -5.25955265960518        0.18350740952126
H           -1.90512930231260       -3.53932740528119        1.10120572178691
H           -2.47868594913814       -1.18703423504538        0.95228618513066
H           -2.96739295439566        0.82445657755768        1.81668193226004
H           -1.07797194486008        2.38518270967025        1.44357710861098
H            1.78666471602788        3.40432690627059        1.31733616652612
H            3.70980994270988        1.89423180024471        1.76053918151193
H            2.93895639505843       -0.26033120243492        2.03699276696630
H            2.37976251047059       -2.27734811099570        3.27318512564560
H            3.47819690168820       -4.42996064060757        2.70768996781796
H            5.10055722326989       -4.49953661358941        0.85869821190516
H            5.95720656902213       -3.58958721236787       -1.08879056055379
H            7.42948843188305       -1.99405237016342       -1.98092056920882
H            8.95531700996654       -0.33770991102225       -1.47479293076718
H            9.43877722241865        2.01040635910846       -0.91963025325743
H            7.63747259500043        3.41954235140346        0.04554004565847
H            5.44640471714602        2.47183304221134        0.47802850094834
H            3.12643103964731        0.07329494288584       -2.06564943692133
H            1.19152127855361        1.59532014405664       -2.47876748629340

          :  Hamiltonian                  GFN2-xTB          :
         :: gradient norm              0.000066067268 Eh/a0 ::
         :: HOMO-LUMO gap              1.959775314888 eV    ::
         :: SCC energy              -119.201396100794 Eh    ::
         :: -> dispersion             -0.103323420961 Eh    ::
         :: -> Gsolv                  -0.054473912947 Eh    ::
         :: repulsion energy           2.057940681855 Eh    ::

    * Orbital Energies and Occupations

         #    Occupation            Energy/Eh            Energy/eV
      -------------------------------------------------------------
         1        2.0000           -0.7794758             -21.2106
       ...           ...                  ...                  ...
        96        2.0000           -0.4217473             -11.4763
        97        2.0000           -0.4189445             -11.4001
        98        2.0000           -0.4183912             -11.3850
        99        2.0000           -0.4183545             -11.3840
       100        2.0000           -0.4113492             -11.1934
       101        2.0000           -0.4095561             -11.1446
       102        2.0000           -0.4093126             -11.1380
       103        2.0000           -0.4045339             -11.0079
       104        2.0000           -0.4042995             -11.0015
       105        2.0000           -0.3859234             -10.5015
       106        2.0000           -0.3855821             -10.4922
       107        2.0000           -0.3464456              -9.4273
       108        2.0000           -0.3460300              -9.4160 (HOMO)
       109                         -0.2740096              -7.4562 (LUMO)
       110                         -0.2658037              -7.2329
       111                         -0.2636309              -7.1738
       112                         -0.2565700              -6.9816
       113                         -0.2531078              -6.8874
       114                         -0.2529380              -6.8828
       115                         -0.2248586              -6.1187
       116                         -0.2246350              -6.1126
       117                         -0.2185970              -5.9483
       118                         -0.2180814              -5.9343
       119                         -0.2085584              -5.6752
       ...                                ...                  ...
       213                          1.1673460              31.7651
      -------------------------------------------------------------
                  HL-Gap            0.0720204 Eh            1.9598 eV

     #   Z          covCN         q      C6AA      α(0)
     1   8 O        0.860    -0.574    25.498     6.770
     2  16 S        3.818     0.942   108.320    17.517
     3   8 O        0.860    -0.574    25.479     6.768
     4   6 C        2.971    -0.074    29.842     8.961
     5   6 C        2.951    -0.022    28.561     8.766
     6   6 C        2.927    -0.033    28.815     8.803
     7   6 C        2.926     0.079    26.229     8.399
     8   7 N        2.747    -0.107    23.343     7.176
     9   6 C        2.918     0.064    26.567     8.452
    10   6 C        2.924    -0.058    29.450     8.899
    11   6 C        2.920    -0.032    28.804     8.801
    12   6 C        2.915    -0.040    28.989     8.829
    13   6 C        2.933    -0.038    28.941     8.823
    14   6 C        2.972     0.000    28.022     8.683
    15   6 C        2.902    -0.038    28.951     8.822
    16   6 C        2.902    -0.038    28.943     8.821
    17   6 C        2.972    -0.000    28.034     8.685
    18   6 C        2.933    -0.038    28.937     8.822
    19   6 C        2.915    -0.040    28.998     8.830
    20   6 C        2.920    -0.032    28.801     8.801
    21   6 C        2.924    -0.059    29.477     8.904
    22   6 C        2.915     0.064    26.564     8.452
    23   6 C        2.922    -0.033    28.822     8.804
    24   6 C        2.960    -0.028    28.701     8.787
    25   6 C        2.971    -0.074    29.842     8.961
    26   6 C        2.953    -0.025    28.638     8.777
    27   6 C        2.922    -0.033    28.829     8.805
    28   6 C        2.925     0.079    26.228     8.399
    29   7 N        2.747    -0.108    23.363     7.179
    30   6 C        2.918     0.064    26.568     8.452
    31   6 C        2.924    -0.059    29.455     8.900
    32   6 C        2.920    -0.032    28.806     8.801
    33   6 C        2.915    -0.040    28.988     8.829
    34   6 C        2.933    -0.038    28.936     8.822
    35   6 C        2.972     0.000    28.018     8.682
    36   6 C        2.902    -0.038    28.949     8.822
    37   6 C        2.902    -0.038    28.938     8.820
    38   6 C        2.972    -0.000    28.031     8.685
    39   6 C        2.933    -0.038    28.939     8.822
    40   6 C        2.915    -0.040    28.995     8.830
    41   6 C        2.920    -0.032    28.803     8.801
    42   6 C        2.924    -0.059    29.463     8.901
    43   6 C        2.915     0.064    26.563     8.451
    44   6 C        2.927    -0.033    28.811     8.803
    45   6 C        2.957    -0.025    28.625     8.776
    46   1 H        0.926     0.066     2.129     2.282
    47   1 H        0.926     0.069     2.096     2.264
    48   1 H        0.926     0.032     2.552     2.498
    49   1 H        0.926     0.032     2.557     2.501
    50   1 H        0.926     0.032     2.556     2.500
    51   1 H        0.926     0.036     2.505     2.475
    52   1 H        0.925     0.037     2.491     2.468
    53   1 H        0.925     0.037     2.486     2.466
    54   1 H        0.926     0.035     2.513     2.479
    55   1 H        0.926     0.032     2.555     2.499
    56   1 H        0.926     0.034     2.537     2.491
    57   1 H        0.926     0.034     2.526     2.485
    58   1 H        0.926     0.070     2.090     2.261
    59   1 H        0.926     0.060     2.201     2.320
    60   1 H        0.926     0.065     2.143     2.289
    61   1 H        0.926     0.069     2.098     2.265
    62   1 H        0.926     0.033     2.537     2.491
    63   1 H        0.926     0.034     2.537     2.491
    64   1 H        0.926     0.033     2.549     2.497
    65   1 H        0.926     0.036     2.507     2.476
    66   1 H        0.925     0.037     2.484     2.465
    67   1 H        0.925     0.037     2.488     2.467
    68   1 H        0.926     0.036     2.509     2.477
    69   1 H        0.926     0.032     2.560     2.502
    70   1 H        0.926     0.032     2.560     2.502
    71   1 H        0.926     0.033     2.542     2.493
    72   1 H        0.926     0.070     2.091     2.261
    73   1 H        0.926     0.062     2.178     2.308

molecular dipole:
                 x           y           z       tot (Debye)
 q only:       -0.001      -2.744       0.490
   full:        0.032      -2.485       0.593       6.493

 projected vibrational frequencies (cm⁻¹)
eigval :       -0.00    -0.00    -0.00    -0.00     0.00     0.00
eigval :        3.12     6.97    10.99    16.27    23.91    31.87
eigval :       38.14    40.61    44.45    48.13    56.84    76.03
eigval :       79.53   105.13   112.23   124.52   140.79   147.20
eigval :      149.88   158.12   183.44   190.56   206.18   238.42
eigval :      242.88   269.19   277.98   281.00   299.11   306.09
eigval :      309.63   312.44   314.66   352.57   354.70   367.88
eigval :      377.46   385.10   388.20   399.65   405.71   423.01
eigval :      423.84   425.30   432.05   446.21   448.40   468.81
eigval :      480.62   497.21   498.07   518.66   523.53   537.45
eigval :      538.36   542.43   546.87   548.42   554.75   588.74
eigval :      589.64   602.96   604.36   627.78   638.81   672.04
eigval :      672.96   674.31   675.86   690.45   694.34   704.55
eigval :      709.73   710.54   720.53   762.49   764.20   773.81
eigval :      775.50   784.05   785.97   812.77   816.29   817.01
eigval :      819.32   857.12   857.94   865.91   867.38   868.06
eigval :      870.12   878.43   883.97   900.18   903.73   904.55
eigval :      905.47   907.21   908.44   908.60   909.72   917.28
eigval :      917.42   919.41   920.39   920.60   925.40   926.82
eigval :      928.62   947.75   950.83   998.54  1003.41  1067.67
eigval :     1103.82  1106.77  1107.49  1108.54  1111.98  1112.92
eigval :     1113.80  1114.62  1116.66  1120.64  1134.06  1134.14
eigval :     1164.89  1167.82  1177.48  1177.78  1183.08  1183.51
eigval :     1189.83  1190.65  1193.44  1212.07  1212.59  1215.83
eigval :     1216.35  1233.88  1234.92  1242.23  1245.45  1251.26
eigval :     1251.88  1268.87  1269.07  1274.73  1275.10  1288.74
eigval :     1290.43  1309.13  1309.56  1314.73  1314.94  1333.00
eigval :     1333.94  1378.15  1379.07  1386.45  1387.76  1415.92
eigval :     1416.00  1432.68  1432.77  1454.68  1455.55  1461.86
eigval :     1462.03  1484.54  1485.07  1565.35  1565.58  1568.33
eigval :     1568.61  1571.75  1572.09  1576.10  1577.17  1579.12
eigval :     1579.21  1583.63  1583.78  1677.06  1677.69  3037.74
eigval :     3038.39  3052.27  3052.93  3068.89  3069.15  3069.36
eigval :     3070.19  3075.20  3075.27  3075.71  3075.73  3081.82
eigval :     3082.37  3090.01  3090.21  3090.75  3090.82  3095.38
eigval :     3096.62  3099.24  3103.47  3104.87  3107.26  3111.73
eigval :     3111.85  3115.63  3117.01

   temp. (K)  partition function   enthalpy   heat capacity  entropy
                                   cal/mol     cal/K/mol   cal/K/mol   J/K/mol
 298.15  VIB  0.206E+19            21435.772    133.617    135.465
         ROT  0.783E+08              888.752      2.981     39.101
         INT  0.162E+27            22324.524    136.598    174.566
         TR   0.142E+29             1481.254      4.968     45.042
         TOT                       23805.7783   141.5658   219.6077   918.8387

       T/K    H(0)-H(T)+PV         H(T)/Eh          T*S/Eh         G(T)/Eh
   ------------------------------------------------------------------------
    298.15    0.379369E-01    0.589942E+00    0.104343E+00    0.485599E+00
   ------------------------------------------------------------------------

         :::::::::::::::::::::::::::::::::::::::::::::::::::::
         ::                  THERMODYNAMIC                  ::
         :::::::::::::::::::::::::::::::::::::::::::::::::::::
         :: total free energy        -116.657856304043 Eh   ::
         ::.................................................::
         :: total energy             -117.143455423677 Eh   ::
         :: zero point energy           0.552004910342 Eh   ::
         :: G(RRHO) w/o ZPVE           -0.066405790708 Eh   ::
         :: G(RRHO) contrib.            0.485599119634 Eh   ::
         :::::::::::::::::::::::::::::::::::::::::::::::::::::

           -------------------------------------------------
          | TOTAL ENERGY             -117.143455423677 Eh   |
          | TOTAL ENTHALPY           -116.553513590782 Eh   |
          | TOTAL FREE ENERGY        -116.657856304043 Eh   |
          | GRADIENT NORM               0.000066040358 Eh/α |
          | HOMO-LUMO GAP               1.959775433804 eV   |
           -------------------------------------------------

 * finished run on 2025/09/10 at 16:15:38.864
