   * xtb version 6.7.1 (edcfbbe) compiled by 'albert@albert-system' on 2024-07-22

   ID    Z sym.   atoms
    1    8 O      1, 3
    2   16 S      2
    3    6 C      4-7, 9-28, 30-45
    4    7 N      8, 29
    5    1 H      46-73

          program call               : xtb data2507/toluene/ethylacetate/ethylacetate_toluene_T1_crest.xyz --gfn 2 --uhf 2 --gbsa toluene --ohess vtight --parallel 40 --molden --ceasefiles --namespace data2507/toluene/ethylacetate/ethylacetate_toluene_T1_finalOpt
      * Solvation model:               GBSA
        Solvent                        toluene
        Solvent mass                       9.2140E+01 g/mol
          :  Hamiltonian                  GFN2-xTB          :
 * total energy  :  -117.0921132 Eh     change       -0.3768207E-08 Eh
 * total energy  :  -117.0922458 Eh     change       -0.1325403E-03 Eh
 * total energy  :  -117.0923352 Eh     change       -0.8944206E-04 Eh
 * total energy  :  -117.0923657 Eh     change       -0.3053564E-04 Eh
 * total energy  :  -117.0923887 Eh     change       -0.2292258E-04 Eh
 * total energy  :  -117.0924155 Eh     change       -0.2683434E-04 Eh
 * total energy  :  -117.0924341 Eh     change       -0.1862770E-04 Eh
 * total energy  :  -117.0924602 Eh     change       -0.2612861E-04 Eh
 * total energy  :  -117.0924930 Eh     change       -0.3277540E-04 Eh
 * total energy  :  -117.0925374 Eh     change       -0.4435316E-04 Eh
 * total energy  :  -117.0949414 Eh     change       -0.5470439E-06 Eh
 * total energy  :  -117.0949418 Eh     change       -0.4738213E-06 Eh
 * total energy  :  -117.0949423 Eh     change       -0.4083992E-06 Eh
 * total energy  :  -117.0949427 Eh     change       -0.4323766E-06 Eh
 * total energy  :  -117.0949431 Eh     change       -0.4559649E-06 Eh
 * total energy  :  -117.0949437 Eh     change       -0.5415028E-06 Eh
 * total energy  :  -117.0949444 Eh     change       -0.6936938E-06 Eh
 * total energy  :  -117.0949452 Eh     change       -0.8147632E-06 Eh
 * total energy  :  -117.0949453 Eh     change       -0.5636181E-07 Eh
   *** GEOMETRY OPTIMIZATION CONVERGED AFTER 152 ITERATIONS ***

 final structure:
================
73
 xtb: 6.7.1 (edcfbbe)
O           -0.42515619581938        4.35673426282195        1.43883327934133
S           -0.25278489567723        3.66554804522551        0.17669277062090
O           -0.22331463882923        4.48545501953140       -1.01758037274767
C           -1.56904406146108        2.44976839671347        0.01602901239669
C           -1.70535927783666        1.78183733092244       -1.18750309785398
C           -2.62827093534500        0.75789684447997       -1.29590067727778
C           -3.40670877927594        0.41169290508869       -0.19359018909528
N           -4.32999234105239       -0.67806901587550       -0.29426357410366
C           -5.66025344376496       -0.29664523330065       -0.32502730740670
C           -5.94077991611135        1.07140546679772       -0.46994001722723
C           -7.19863037739020        1.59811721874558       -0.29360247982154
C           -8.26345725149016        0.75237893774969        0.06012483342011
C           -8.05387175056452       -0.59132968661625        0.10643587450115
C           -6.78798248476124       -1.19313997231583       -0.17110789625714
C           -6.77988187013268       -2.56500370552427       -0.36854991653075
C           -5.71993379790428       -3.40105784905387       -0.76586709111449
C           -4.35715478011256       -3.15120857481796       -0.75184148329384
C           -3.49772691342115       -4.24600156098738       -1.07573268674007
C           -2.15655161676917       -4.22974676776862       -0.84712783001547
C           -1.57923608381232       -3.09712934974237       -0.24808257464570
C           -2.35000456864379       -1.98206315778853       -0.01815588874963
C           -3.71563497788180       -1.91920359076174       -0.33951659206322
C           -3.27731157776634        1.10548825440463        1.00699829532101
C           -2.34741354318380        2.12484838698656        1.11084879919852
C            1.19646852148911        2.63613419631155        0.23292093849928
C            2.04835034420442        2.55448332038130       -0.85511939335349
C            3.11420492949888        1.68345858184037       -0.83071470175727
C            3.34559055788908        0.86571723275964        0.28977903493856
N            4.37431227312980       -0.02694745121276        0.30253338478961
C            4.64077602791209       -0.88690197183223        1.39919244472748
C            5.08314751836758       -0.35978638255131        2.60610371502479
C            5.30343154446040       -1.19019539440095        3.68975079341271
C            5.07809959412645       -2.55382243106791        3.57016394154974
C            4.65134264357467       -3.08171882853532        2.36829069119570
C            4.44390265707094       -2.26491329020038        1.25379457201288
C            4.04788158331908       -2.86532888256066       -0.00970673719147
C            4.41586385239876       -2.45730330859068       -1.23163049051096
C            5.28478861758048       -1.33259939759507       -1.53750463277604
C            6.15439965759378       -1.41158346583134       -2.62830309544098
C            7.03116020256435       -0.38539281666594       -2.91728493932617
C            7.05517699611926        0.75270101488383       -2.12436366153651
C            6.18655911701010        0.86292788232609       -1.05408315375615
C            5.29418017306606       -0.16295930821405       -0.76906492909067
C            2.45605294506552        0.95490734931345        1.37615405142186
C            1.39527976139947        1.83036424075397        1.34245607614334
H           -1.09205569607029        2.07616113516547       -2.02398259661704
H           -2.74711830914289        0.21691082983078       -2.22221732512157
H           -5.14406708962561        1.75366255086915       -0.72162505635054
H           -7.35945810947656        2.65791235065896       -0.41456002724012
H           -9.24029129400838        1.16665306633497        0.26007921623040
H           -8.87611770133394       -1.25881294898301        0.32103444751564
H           -7.73967708624953       -3.05634770297264       -0.27248450968376
H           -6.00964401510843       -4.40480583062586       -1.04960060923560
H           -3.96613850467118       -5.13072722432377       -1.48254068056746
H           -1.54492093149244       -5.08576272392663       -1.08989657603233
H           -0.53408058850651       -3.09090546354993        0.01844897911510
H           -1.86693283789936       -1.12425909774573        0.42235374180259
H           -3.89625608928346        0.83497835994250        1.84881134058876
H           -2.21265402818808        2.67699399039168        2.02767793036576
H            1.86053516867826        3.18693672846552       -1.70900130645801
H            3.76927761457160        1.61766874798280       -1.68490305375025
H            5.23336790885083        0.70652875389891        2.69170906634479
H            5.63900428887527       -0.77387631602358        4.62764397656536
H            5.23688934024966       -3.20362187276906        4.41780830806628
H            4.48384588483589       -4.14495182290883        2.27460432013961
H            3.48016459312794       -3.78276057909194        0.07783893467352
H            4.13087717404231       -3.06041262642938       -2.08405425131400
H            6.14241021437274       -2.30053269606769       -3.24222683161907
H            7.69848609440491       -0.46850552845312       -3.76208619938211
H            7.74117786560749        1.55630560029425       -2.34591444587652
H            6.17805460002472        1.75346482557940       -0.44262464157246
H            2.59971385602155        0.32218164538564        2.23752755300448
H            0.71289886658549        1.90768560508753        2.17440022823364

          :  Hamiltonian                  GFN2-xTB          :
         :: gradient norm              0.000148134320 Eh/a0 ::
         :: HOMO-LUMO gap              0.367267267671 eV    ::
         :: SCC energy              -119.141793115806 Eh    ::
         :: -> dispersion             -0.104972655155 Eh    ::
         :: -> Gsolv                  -0.056102763788 Eh    ::
         :: repulsion energy           2.046847863670 Eh    ::

    * Orbital Energies and Occupations

         #    Occupation            Energy/Eh            Energy/eV
      -------------------------------------------------------------
         1        2.0000           -0.7718700             -21.0037
       ...           ...                  ...                  ...
        97        2.0000           -0.4205275             -11.4431
        98        2.0000           -0.4179056             -11.3718
        99        2.0000           -0.4173286             -11.3561
       100        2.0000           -0.4163348             -11.3290
       101        2.0000           -0.4094105             -11.1406
       102        2.0000           -0.4073424             -11.0844
       103        2.0000           -0.4070407             -11.0761
       104        2.0000           -0.4059914             -11.0476
       105        2.0000           -0.3893295             -10.5942
       106        2.0000           -0.3818320             -10.3902
       107        2.0000           -0.3625664              -9.8659
       108        1.0000           -0.3313369              -9.0161
       109        0.9991           -0.2835696              -7.7163 (HOMO)
       110        0.0008           -0.2700727              -7.3491 (LUMO)
       111        0.0001           -0.2681199              -7.2959
       112                         -0.2555740              -6.9545
       113                         -0.2434139              -6.6236
       114                         -0.2361627              -6.4263
       115                         -0.2297906              -6.2529
       116                         -0.2289012              -6.2287
       117                         -0.2239546              -6.0941
       118                         -0.2236862              -6.0868
       119                         -0.2090810              -5.6894
       120                         -0.1960487              -5.3348
       ...                                ...                  ...
       213                          1.1666677              31.7466
      -------------------------------------------------------------
                  HL-Gap            0.0134969 Eh            0.3673 eV

     #   Z          covCN         q      C6AA      α(0)
     1   8 O        0.860    -0.580    25.631     6.788
     2  16 S        3.823     0.929   108.725    17.550
     3   8 O        0.860    -0.579    25.603     6.784
     4   6 C        2.970    -0.073    29.828     8.958
     5   6 C        2.959    -0.024    28.603     8.772
     6   6 C        2.922    -0.031    28.767     8.795
     7   6 C        2.958     0.075    26.321     8.415
     8   7 N        2.750    -0.012    21.479     6.883
     9   6 C        2.917     0.046    26.970     8.516
    10   6 C        2.920    -0.054    29.350     8.884
    11   6 C        2.916    -0.043    29.075     8.842
    12   6 C        2.910    -0.036    28.887     8.813
    13   6 C        2.932    -0.045    29.128     8.851
    14   6 C        2.961     0.002    27.975     8.675
    15   6 C        2.908    -0.053    29.319     8.879
    16   6 C        2.908    -0.053    29.309     8.877
    17   6 C        2.961     0.002    27.978     8.676
    18   6 C        2.932    -0.045    29.122     8.850
    19   6 C        2.910    -0.036    28.891     8.814
    20   6 C        2.916    -0.043    29.080     8.843
    21   6 C        2.920    -0.054    29.353     8.885
    22   6 C        2.920     0.045    26.991     8.520
    23   6 C        2.922    -0.031    28.775     8.797
    24   6 C        2.952    -0.022    28.552     8.764
    25   6 C        2.970    -0.095    30.377     9.041
    26   6 C        2.952    -0.026    28.660     8.781
    27   6 C        2.924    -0.057    29.408     8.893
    28   6 C        2.914     0.076    26.309     8.411
    29   7 N        2.753    -0.067    22.535     7.050
    30   6 C        2.937     0.058    26.701     8.475
    31   6 C        2.920    -0.042    29.042     8.837
    32   6 C        2.919    -0.030    28.739     8.791
    33   6 C        2.917    -0.031    28.785     8.798
    34   6 C        2.927    -0.034    28.851     8.809
    35   6 C        2.973     0.007    27.855     8.657
    36   6 C        2.900    -0.036    28.883     8.812
    37   6 C        2.900    -0.035    28.881     8.812
    38   6 C        2.973     0.007    27.854     8.657
    39   6 C        2.927    -0.034    28.852     8.809
    40   6 C        2.917    -0.031    28.786     8.798
    41   6 C        2.919    -0.030    28.739     8.791
    42   6 C        2.920    -0.042    29.042     8.837
    43   6 C        2.937     0.058    26.699     8.474
    44   6 C        2.924    -0.056    29.399     8.892
    45   6 C        2.963    -0.030    28.744     8.794
    46   1 H        0.926     0.064     2.155     2.296
    47   1 H        0.926     0.070     2.089     2.260
    48   1 H        0.926     0.027     2.634     2.538
    49   1 H        0.926     0.026     2.638     2.540
    50   1 H        0.926     0.029     2.602     2.523
    51   1 H        0.926     0.031     2.571     2.508
    52   1 H        0.925     0.027     2.624     2.533
    53   1 H        0.925     0.028     2.618     2.530
    54   1 H        0.926     0.031     2.571     2.507
    55   1 H        0.926     0.030     2.580     2.512
    56   1 H        0.926     0.029     2.594     2.519
    57   1 H        0.926     0.027     2.630     2.536
    58   1 H        0.926     0.069     2.093     2.262
    59   1 H        0.926     0.067     2.113     2.273
    60   1 H        0.926     0.049     2.328     2.386
    61   1 H        0.926     0.050     2.320     2.382
    62   1 H        0.926     0.042     2.416     2.431
    63   1 H        0.926     0.043     2.413     2.429
    64   1 H        0.926     0.043     2.413     2.429
    65   1 H        0.926     0.045     2.385     2.415
    66   1 H        0.925     0.045     2.379     2.412
    67   1 H        0.925     0.046     2.374     2.410
    68   1 H        0.926     0.045     2.385     2.415
    69   1 H        0.926     0.043     2.413     2.429
    70   1 H        0.926     0.043     2.414     2.430
    71   1 H        0.926     0.042     2.418     2.432
    72   1 H        0.926     0.051     2.313     2.378
    73   1 H        0.926     0.044     2.396     2.421

molecular dipole:
                 x           y           z       tot (Debye)
 q only:        2.194      -3.557      -0.101
   full:        2.163      -3.316      -0.077      10.064

 projected vibrational frequencies (cm⁻¹)
eigval :       -0.00    -0.00    -0.00     0.00     0.00     0.00
eigval :       -3.93    -3.39     5.91    19.73    25.66    39.07
eigval :       43.93    47.33    56.14    58.10    62.72    86.16
eigval :       96.36   100.62   109.52   124.87   137.41   142.93
eigval :      152.27   161.08   185.86   195.58   214.79   232.63
eigval :      246.48   270.44   280.83   289.10   303.68   309.90
eigval :      315.98   318.78   322.92   335.51   351.92   358.75
eigval :      368.14   376.42   381.00   394.03   396.12   411.23
eigval :      425.56   430.23   441.18   446.98   448.35   461.49
eigval :      476.79   483.88   497.27   508.73   514.71   517.45
eigval :      530.73   536.88   552.78   553.48   558.26   579.99
eigval :      587.01   602.18   606.97   627.82   638.76   647.17
eigval :      654.83   658.28   672.40   685.07   685.85   694.15
eigval :      699.02   715.49   723.20   729.25   741.88   768.07
eigval :      768.25   778.84   786.42   793.43   796.39   802.54
eigval :      817.36   823.42   840.32   841.91   853.86   855.56
eigval :      858.43   868.58   882.13   882.32   885.93   887.42
eigval :      892.52   896.78   902.72   903.18   905.86   906.30
eigval :      908.57   911.54   915.34   917.44   919.29   922.09
eigval :      923.04   925.61   927.77   992.04   999.40  1063.31
eigval :     1087.67  1089.39  1089.63  1091.66  1100.91  1104.95
eigval :     1109.00  1116.75  1120.63  1125.33  1132.76  1142.32
eigval :     1163.82  1168.18  1174.89  1176.20  1177.77  1179.70
eigval :     1183.58  1185.48  1188.57  1193.09  1210.56  1212.11
eigval :     1217.21  1221.29  1231.61  1235.90  1239.07  1251.14
eigval :     1253.85  1258.27  1269.81  1282.22  1308.49  1310.85
eigval :     1317.45  1321.55  1323.59  1345.00  1358.21  1368.22
eigval :     1368.47  1369.56  1384.77  1387.87  1393.02  1413.87
eigval :     1418.70  1436.48  1437.59  1440.96  1447.64  1463.29
eigval :     1468.21  1469.43  1472.54  1492.15  1496.19  1558.53
eigval :     1561.38  1562.44  1563.66  1563.70  1570.92  1572.10
eigval :     1574.45  1584.83  1585.32  1588.34  1642.78  3045.50
eigval :     3048.74  3058.06  3061.99  3069.79  3070.73  3076.27
eigval :     3076.51  3079.76  3080.57  3082.13  3083.15  3086.36
eigval :     3086.88  3092.06  3092.35  3094.57  3094.96  3095.64
eigval :     3096.11  3096.86  3097.12  3104.54  3105.92  3106.28
eigval :     3106.76  3108.66  3109.51

   temp. (K)  partition function   enthalpy   heat capacity  entropy
                                   cal/mol     cal/K/mol   cal/K/mol   J/K/mol
 298.15  VIB  0.168E+19            21483.037    135.738    136.308
         ROT  0.738E+08              888.752      2.981     38.983
         INT  0.124E+27            22371.789    138.718    175.291
         TR   0.142E+29             1481.254      4.968     45.042
         TOT                       23853.0430   143.6866   220.3328   921.8724

       T/K    H(0)-H(T)+PV         H(T)/Eh          T*S/Eh         G(T)/Eh
   ------------------------------------------------------------------------
    298.15    0.380122E-01    0.588260E+00    0.104687E+00    0.483573E+00
   ------------------------------------------------------------------------

         :::::::::::::::::::::::::::::::::::::::::::::::::::::
         ::                  THERMODYNAMIC                  ::
         :::::::::::::::::::::::::::::::::::::::::::::::::::::
         :: total free energy        -116.611372129570 Eh   ::
         ::.................................................::
         :: total energy             -117.094945249164 Eh   ::
         :: zero point energy           0.550248094406 Eh   ::
         :: G(RRHO) w/o ZPVE           -0.066674974812 Eh   ::
         :: G(RRHO) contrib.            0.483573119594 Eh   ::
         :::::::::::::::::::::::::::::::::::::::::::::::::::::

           -------------------------------------------------
          | TOTAL ENERGY             -117.094945249164 Eh   |
          | TOTAL ENTHALPY           -116.506684911123 Eh   |
          | TOTAL FREE ENERGY        -116.611372129570 Eh   |
          | GRADIENT NORM               0.000148020510 Eh/α |
          | HOMO-LUMO GAP               0.367268491437 eV   |
           -------------------------------------------------

 * finished run on 2025/09/10 at 16:31:15.989
