   * xtb version 6.7.1 (edcfbbe) compiled by 'albert@albert-system' on 2024-07-22

   ID    Z sym.   atoms
    1    8 O      1, 3
    2   16 S      2
    3    6 C      4-7, 9-28, 30-45
    4    7 N      8, 29
    5    1 H      46-73

          program call               : xtb data2507/toluene/ethylacetate/ethylacetate_toluene_S0_finalOpt.xtbopt.xyz --gfn 2 --uhf 2 --gbsa toluene --ohess vtight --parallel 40 --molden --ceasefiles --namespace data2507/toluene/ethylacetate/ethylacetate_toluene_T1_preOpt
      * Solvation model:               GBSA
        Solvent                        toluene
        Solvent mass                       9.2140E+01 g/mol
          :  Hamiltonian                  GFN2-xTB          :
 * total energy  :  -117.0784992 Eh     change       -0.1241872E-08 Eh
 * total energy  :  -117.0837131 Eh     change       -0.5213948E-02 Eh
 * total energy  :  -117.0855045 Eh     change       -0.1791374E-02 Eh
 * total energy  :  -117.0860226 Eh     change       -0.5181078E-03 Eh
 * total energy  :  -117.0871226 Eh     change       -0.1099953E-02 Eh
 * total energy  :  -117.0885210 Eh     change       -0.1398454E-02 Eh
 * total energy  :  -117.0894077 Eh     change       -0.8867002E-03 Eh
 * total energy  :  -117.0902212 Eh     change       -0.8134626E-03 Eh
 * total energy  :  -117.0907261 Eh     change       -0.5048938E-03 Eh
 * total energy  :  -117.0910005 Eh     change       -0.2744507E-03 Eh
 * total energy  :  -117.0919867 Eh     change       -0.3064711E-06 Eh
 * total energy  :  -117.0919870 Eh     change       -0.2269474E-06 Eh
 * total energy  :  -117.0919872 Eh     change       -0.2139640E-06 Eh
 * total energy  :  -117.0919874 Eh     change       -0.2342762E-06 Eh
 * total energy  :  -117.0919877 Eh     change       -0.2824625E-06 Eh
 * total energy  :  -117.0919880 Eh     change       -0.3002959E-06 Eh
 * total energy  :  -117.0919882 Eh     change       -0.2188114E-06 Eh
 * total energy  :  -117.0919883 Eh     change       -0.1009329E-06 Eh
 * total energy  :  -117.0919883 Eh     change       -0.1803301E-08 Eh
   *** GEOMETRY OPTIMIZATION CONVERGED AFTER 41 ITERATIONS ***

 final structure:
================
73
 xtb: 6.7.1 (edcfbbe)
O           -0.14035085906425       -4.29823411811521       -0.02371608291960
S           -0.07017944552045       -3.20364310916416        0.92615964608286
O           -0.08129544645964       -3.56320068677635        2.33194786282997
C           -1.44475535349787       -2.09933408847198        0.61157940966089
C           -1.65902540212695       -1.02779315140427        1.46048232829290
C           -2.69451955576266       -0.15151586808156        1.21928586431444
C           -3.53750680311819       -0.31247451805346        0.10325008865793
N           -4.59930398061059        0.54695753935573       -0.11330427527409
C           -5.49291166171377        0.31614410872005       -1.17696116455740
C           -4.99052711973216        0.23990572494273       -2.46618702540460
C           -5.79438688605744       -0.11638355649932       -3.53496061335942
C           -7.12579024114308       -0.49011389159095       -3.29519826150395
C           -7.64616418568214       -0.41211300500394       -2.03796015063578
C           -6.88664103826275        0.07297124479115       -0.92635072506679
C           -7.51763323885049        0.24940845192392        0.29724945866590
C           -7.10440017106033        1.06236033314349        1.38510516602994
C           -5.96732156835841        1.85218947287241        1.48439125476107
C           -5.93414548446524        2.90351307777385        2.45492542282838
C           -4.88971813335581        3.77356011221518        2.55038587147103
C           -3.78015381946390        3.64443657884214        1.70034294912963
C           -3.72226120211500        2.57571301299155        0.82406678999157
C           -4.77009148153916        1.67505517797514        0.70954910302288
C           -3.32873893387479       -1.44072364884596       -0.71018454155366
C           -2.28858498367149       -2.31141553457268       -0.46254933396586
C            1.37874836554547       -2.22294174823983        0.59311173597333
C            2.14693701357302       -1.73234869637298        1.63484682801424
C            3.25306884610182       -0.95642180618059        1.37003554428202
C            3.61758040123353       -0.65753798659024        0.04526248193785
N            4.70515522771699        0.12122677266529       -0.22165740732596
C            5.14121962637980        0.41925156761484       -1.53803534099695
C            5.56499950872555       -0.60037444061290       -2.38192124085539
C            5.95340452373321       -0.31616540383161       -3.67809210144357
C            5.91855909326714        0.99249510621454       -4.13722064479001
C            5.51283062610800        2.00925304269562       -3.29660431656095
C            5.13707692679853        1.74850753857581       -1.97633849882615
C            4.77177581191013        2.85411439529434       -1.10579355709688
C            5.02475464230313        2.94429001931689        0.20660466338629
C            5.71618656011403        1.95443899664259        1.01620252343666
C            6.54868097415157        2.37694646932956        2.05573756633844
C            7.26667790261396        1.46984149362968        2.80844927969913
C            7.16514209830929        0.11192089920509        2.54297990467157
C            6.32918110047204       -0.33040405457644        1.53445655238453
C            5.59334859739924        0.57963691723855        0.78508967899200
C            2.79801555108350       -1.13379837863322       -0.99415176264646
C            1.69470502632797       -1.90936071682615       -0.71851102305624
H           -1.02089911968825       -0.90268007387299        2.32090872162763
H           -2.86676707986667        0.65278008358418        1.91519552965946
H           -3.94932604928480        0.47821951716506       -2.63293162222209
H           -5.39848766471922       -0.11512436503678       -4.53798306589352
H           -7.74058517927758       -0.82557789891001       -4.11762085782157
H           -8.67998538487311       -0.66971972141962       -1.85934492177245
H           -8.51797417123013       -0.15508957167804        0.37987630186862
H           -7.84073161561887        1.18918669567876        2.16800741514807
H           -6.79893571783684        3.01879745068494        3.09207508764833
H           -4.91560497348277        4.57624003424145        3.27280954445448
H           -2.97814641998205        4.36435017805800        1.73411165128036
H           -2.84928535678087        2.43678617102968        0.20165839577241
H           -3.99598144389315       -1.65158921956638       -1.52925399955984
H           -2.12544846659757       -3.17649208525546       -1.08649211043167
H            1.86694803918578       -1.98250122278103        2.64652198780774
H            3.84247894535453       -0.57198755577571        2.18726382358866
H            5.56961485573435       -1.61763176484209       -2.01821750814825
H            6.27343361696427       -1.11435902125263       -4.33073957575105
H            6.20960193274241        1.21626489339373       -5.15266755252680
H            5.49525446780685        3.02929232891361       -3.65221707028732
H            4.34208299071194        3.71069324519232       -1.60894083735311
H            4.79031652942354        3.87023435417548        0.71562920874939
H            6.63634957301418        3.43481226767506        2.25677258326486
H            7.90821598804028        1.81763910047441        3.60425107069624
H            7.72803789414403       -0.60085588107655        3.12655871194930
H            6.22487861413956       -1.38633655738474        1.33135486302453
H            3.03323064360819       -0.88528880186134       -2.01686968541842
H            1.07288412001711       -2.29296689819141       -1.51236486415013

          :  Hamiltonian                  GFN2-xTB          :
         :: gradient norm              0.000113363242 Eh/a0 ::
         :: HOMO-LUMO gap              0.341858552593 eV    ::
         :: SCC energy              -119.137230348133 Eh    ::
         :: -> dispersion             -0.103824748175 Eh    ::
         :: -> Gsolv                  -0.057217934839 Eh    ::
         :: repulsion energy           2.045242030071 Eh    ::

    * Orbital Energies and Occupations

         #    Occupation            Energy/Eh            Energy/eV
      -------------------------------------------------------------
         1        2.0000           -0.7669502             -20.8698
       ...           ...                  ...                  ...
        97        2.0000           -0.4195191             -11.4157
        98        2.0000           -0.4180613             -11.3760
        99        2.0000           -0.4158063             -11.3147
       100        2.0000           -0.4144562             -11.2779
       101        2.0000           -0.4112659             -11.1911
       102        2.0000           -0.4066611             -11.0658
       103        2.0000           -0.4032493             -10.9730
       104        2.0000           -0.4025547             -10.9541
       105        2.0000           -0.3894424             -10.5973
       106        2.0000           -0.3804070             -10.3514
       107        1.9936           -0.3618322              -9.8460
       108        1.0064           -0.3522373              -9.5849
       109        0.9987           -0.2821327              -7.6772 (HOMO)
       110        0.0013           -0.2695695              -7.3354 (LUMO)
       111                         -0.2528947              -6.8816
       112                         -0.2438364              -6.6351
       113                         -0.2420153              -6.5856
       114                         -0.2352942              -6.4027
       115                         -0.2290518              -6.2328
       116                         -0.2285541              -6.2193
       117                         -0.2233820              -6.0785
       118                         -0.2222887              -6.0488
       119                         -0.2189155              -5.9570
       120                         -0.2130744              -5.7981
       ...                                ...                  ...
       213                          1.1614741              31.6053
      -------------------------------------------------------------
                  HL-Gap            0.0125632 Eh            0.3419 eV

     #   Z          covCN         q      C6AA      α(0)
     1   8 O        0.860    -0.584    25.735     6.802
     2  16 S        3.817     0.919   109.021    17.573
     3   8 O        0.860    -0.585    25.761     6.805
     4   6 C        2.968    -0.080    29.995     8.984
     5   6 C        2.956    -0.026    28.656     8.780
     6   6 C        2.924    -0.045    29.124     8.850
     7   6 C        2.920     0.073    26.363     8.420
     8   7 N        2.751    -0.019    21.619     6.906
     9   6 C        2.920     0.044    27.016     8.523
    10   6 C        2.916    -0.044    29.088     8.844
    11   6 C        2.916    -0.043    29.067     8.841
    12   6 C        2.911    -0.032    28.797     8.799
    13   6 C        2.924    -0.044    29.087     8.844
    14   6 C        2.961     0.005    27.908     8.665
    15   6 C        2.903    -0.050    29.251     8.868
    16   6 C        2.903    -0.051    29.258     8.869
    17   6 C        2.961     0.005    27.909     8.665
    18   6 C        2.924    -0.044    29.094     8.845
    19   6 C        2.911    -0.032    28.795     8.799
    20   6 C        2.916    -0.043    29.067     8.841
    21   6 C        2.916    -0.044    29.088     8.844
    22   6 C        2.920     0.044    27.005     8.522
    23   6 C        2.923    -0.046    29.153     8.854
    24   6 C        2.949    -0.024    28.593     8.770
    25   6 C        2.970    -0.091    30.285     9.027
    26   6 C        2.953    -0.026    28.657     8.780
    27   6 C        2.924    -0.056    29.397     8.891
    28   6 C        2.914     0.075    26.320     8.413
    29   7 N        2.752    -0.066    22.516     7.048
    30   6 C        2.938     0.058    26.695     8.474
    31   6 C        2.920    -0.042    29.049     8.838
    32   6 C        2.919    -0.030    28.741     8.791
    33   6 C        2.917    -0.032    28.791     8.799
    34   6 C        2.927    -0.034    28.854     8.809
    35   6 C        2.973     0.007    27.853     8.657
    36   6 C        2.900    -0.035    28.882     8.812
    37   6 C        2.900    -0.035    28.880     8.811
    38   6 C        2.973     0.007    27.852     8.657
    39   6 C        2.927    -0.034    28.854     8.809
    40   6 C        2.917    -0.032    28.790     8.799
    41   6 C        2.919    -0.030    28.740     8.791
    42   6 C        2.920    -0.042    29.046     8.838
    43   6 C        2.938     0.058    26.694     8.473
    44   6 C        2.924    -0.056    29.389     8.890
    45   6 C        2.959    -0.029    28.713     8.789
    46   1 H        0.926     0.054     2.276     2.359
    47   1 H        0.926     0.065     2.145     2.290
    48   1 H        0.926     0.038     2.481     2.463
    49   1 H        0.926     0.035     2.522     2.483
    50   1 H        0.926     0.034     2.534     2.489
    51   1 H        0.926     0.034     2.527     2.486
    52   1 H        0.925     0.030     2.587     2.515
    53   1 H        0.925     0.030     2.584     2.514
    54   1 H        0.926     0.034     2.529     2.487
    55   1 H        0.926     0.034     2.530     2.487
    56   1 H        0.926     0.035     2.514     2.479
    57   1 H        0.926     0.037     2.491     2.468
    58   1 H        0.926     0.065     2.144     2.290
    59   1 H        0.926     0.058     2.222     2.331
    60   1 H        0.926     0.049     2.336     2.390
    61   1 H        0.926     0.050     2.319     2.381
    62   1 H        0.926     0.041     2.431     2.438
    63   1 H        0.926     0.042     2.416     2.431
    64   1 H        0.926     0.043     2.412     2.429
    65   1 H        0.926     0.045     2.381     2.413
    66   1 H        0.925     0.046     2.367     2.406
    67   1 H        0.925     0.046     2.368     2.406
    68   1 H        0.926     0.045     2.380     2.413
    69   1 H        0.926     0.043     2.413     2.429
    70   1 H        0.926     0.042     2.418     2.432
    71   1 H        0.926     0.041     2.433     2.439
    72   1 H        0.926     0.051     2.309     2.376
    73   1 H        0.926     0.044     2.391     2.418

molecular dipole:
                 x           y           z       tot (Debye)
 q only:        1.755       3.870      -1.273
   full:        1.747       3.627      -1.221      10.692

 projected vibrational frequencies (cm⁻¹)
eigval :       -0.00    -0.00    -0.00    -0.00     0.00     0.00
eigval :        6.13     7.20     7.79    27.69    38.52    40.12
eigval :       43.15    49.35    56.62    61.79    68.92    84.12
eigval :       99.93   102.94   119.44   126.69   140.86   144.99
eigval :      150.52   163.16   184.13   215.57   228.82   234.10
eigval :      253.18   263.50   277.98   298.40   302.33   308.45
eigval :      311.33   322.66   330.84   334.17   349.84   357.57
eigval :      363.80   372.75   378.64   381.26   403.50   426.42
eigval :      429.51   432.20   435.55   440.74   448.30   471.98
eigval :      478.15   479.06   498.41   502.97   507.88   517.00
eigval :      526.01   544.69   553.45   556.83   559.64   580.30
eigval :      586.80   603.31   606.87   621.71   635.32   655.58
eigval :      659.86   665.39   671.16   673.30   685.63   693.44
eigval :      704.43   715.20   720.61   723.50   742.70   765.20
eigval :      770.83   783.80   787.10   792.19   799.02   806.46
eigval :      809.65   817.48   835.42   843.01   851.29   856.75
eigval :      858.79   858.96   882.59   884.38   890.36   891.49
eigval :      901.62   902.63   904.48   906.31   907.10   909.69
eigval :      915.94   917.58   920.05   920.18   922.20   922.54
eigval :      929.15   932.45   932.95   990.09   995.97  1060.50
eigval :     1071.61  1073.60  1090.12  1090.31  1099.19  1101.74
eigval :     1117.01  1122.22  1127.26  1129.79  1133.09  1136.66
eigval :     1146.88  1172.18  1172.71  1175.33  1178.12  1178.69
eigval :     1179.35  1184.10  1190.28  1199.42  1203.26  1209.64
eigval :     1211.46  1214.69  1231.41  1235.69  1253.98  1254.12
eigval :     1256.23  1257.71  1274.88  1279.71  1281.72  1297.50
eigval :     1317.83  1321.72  1330.15  1343.45  1353.54  1355.80
eigval :     1364.11  1367.12  1374.05  1378.26  1392.78  1404.68
eigval :     1412.39  1418.76  1426.83  1437.28  1448.19  1463.17
eigval :     1463.49  1467.58  1471.25  1484.33  1489.43  1522.97
eigval :     1551.39  1555.87  1558.60  1561.06  1563.79  1564.78
eigval :     1573.30  1582.47  1584.46  1585.14  1641.91  3049.15
eigval :     3049.89  3062.21  3062.50  3070.45  3071.12  3071.66
eigval :     3071.89  3076.17  3076.81  3079.63  3080.42  3082.55
eigval :     3083.25  3086.50  3086.95  3094.04  3095.01  3096.27
eigval :     3096.90  3099.05  3101.46  3101.60  3102.20  3106.32
eigval :     3107.46  3118.57  3119.77

   temp. (K)  partition function   enthalpy   heat capacity  entropy
                                   cal/mol     cal/K/mol   cal/K/mol   J/K/mol
 298.15  VIB  0.129E+18            21369.058    136.154    133.714
         ROT  0.836E+08              888.752      2.981     39.230
         INT  0.108E+26            22257.811    139.135    172.945
         TR   0.142E+29             1481.254      4.968     45.042
         TOT                       23739.0647   144.1030   217.9865   912.0557

       T/K    H(0)-H(T)+PV         H(T)/Eh          T*S/Eh         G(T)/Eh
   ------------------------------------------------------------------------
    298.15    0.378306E-01    0.587795E+00    0.103572E+00    0.484222E+00
   ------------------------------------------------------------------------

         :::::::::::::::::::::::::::::::::::::::::::::::::::::
         ::                  THERMODYNAMIC                  ::
         :::::::::::::::::::::::::::::::::::::::::::::::::::::
         :: total free energy        -116.607766105621 Eh   ::
         ::.................................................::
         :: total energy             -117.091988319917 Eh   ::
         :: zero point energy           0.549964050260 Eh   ::
         :: G(RRHO) w/o ZPVE           -0.065741835963 Eh   ::
         :: G(RRHO) contrib.            0.484222214297 Eh   ::
         :::::::::::::::::::::::::::::::::::::::::::::::::::::

           -------------------------------------------------
          | TOTAL ENERGY             -117.091988319917 Eh   |
          | TOTAL ENTHALPY           -116.504193661966 Eh   |
          | TOTAL FREE ENERGY        -116.607766105621 Eh   |
          | GRADIENT NORM               0.000113352999 Eh/α |
          | HOMO-LUMO GAP               0.341860929420 eV   |
           -------------------------------------------------

 * finished run on 2025/09/10 at 16:24:15.415
