   * xtb version 6.7.1 (edcfbbe) compiled by 'albert@albert-system' on 2024-07-22

   ID    Z sym.   atoms
    1    8 O      1, 3
    2   16 S      2
    3    6 C      4-7, 9-28, 30-45
    4    7 N      8, 29
    5    1 H      46-73

          program call               : xtb data2507/toluene/ethylacetate/ethylacetate_toluene_S0_crest.xyz --gfn 2 --gbsa toluene --ohess vtight --parallel 40 --molden --ceasefiles --namespace data2507/toluene/ethylacetate/ethylacetate_toluene_S0_finalOpt
      * Solvation model:               GBSA
        Solvent                        toluene
        Solvent mass                       9.2140E+01 g/mol
          :  Hamiltonian                  GFN2-xTB          :
 * total energy  :  -117.1753378 Eh     change       -0.4002061E-09 Eh
 * total energy  :  -117.1754922 Eh     change       -0.1543150E-03 Eh
 * total energy  :  -117.1755706 Eh     change       -0.7841334E-04 Eh
 * total energy  :  -117.1755809 Eh     change       -0.1030320E-04 Eh
 * total energy  :  -117.1755909 Eh     change       -0.9974991E-05 Eh
 * total energy  :  -117.1755940 Eh     change       -0.3116299E-05 Eh
 * total energy  :  -117.1755992 Eh     change       -0.5220348E-05 Eh
 * total energy  :  -117.1756014 Eh     change       -0.2198898E-05 Eh
 * total energy  :  -117.1756059 Eh     change       -0.4495319E-05 Eh
 * total energy  :  -117.1756087 Eh     change       -0.2769805E-05 Eh
 * total energy  :  -117.1756119 Eh     change       -0.1602677E-05 Eh
 * total energy  :  -117.1756136 Eh     change       -0.1640020E-05 Eh
 * total energy  :  -117.1756147 Eh     change       -0.1137299E-05 Eh
 * total energy  :  -117.1756153 Eh     change       -0.5428233E-06 Eh
 * total energy  :  -117.1756157 Eh     change       -0.3967173E-06 Eh
 * total energy  :  -117.1756161 Eh     change       -0.4411187E-06 Eh
 * total energy  :  -117.1756166 Eh     change       -0.5318861E-06 Eh
 * total energy  :  -117.1756170 Eh     change       -0.4081842E-06 Eh
 * total energy  :  -117.1756171 Eh     change       -0.7910496E-07 Eh
   *** GEOMETRY OPTIMIZATION CONVERGED AFTER 20 ITERATIONS ***

 final structure:
================
73
 xtb: 6.7.1 (edcfbbe)
O           -0.09470130914625       -4.37807549653761        0.01956102266065
S           -0.03472562206218       -3.27668986365815        0.96570888221001
O           -0.02643129655199       -3.63885756802019        2.37323567638077
C           -1.41032269359157       -2.18391736631594        0.65574826983184
C           -1.58216924234144       -1.07807912871101        1.47106978638749
C           -2.61511714088181       -0.19976159896134        1.23264019702855
C           -3.49764899334478       -0.40622904333273        0.15763463636836
N           -4.53460950416483        0.45250821862994       -0.06961599904215
C           -5.44321148801949        0.29918292120138       -1.14733185784749
C           -4.99262800034146        0.40166584021890       -2.45793415173204
C           -5.86516860274206        0.20789321056989       -3.51286738828358
C           -7.19603453246979       -0.09090125316053       -3.26064301604275
C           -7.65041643253383       -0.17591934673379       -1.96003946969550
C           -6.79148534681940        0.03710595756951       -0.87883172257007
C           -7.32237591198671       -0.00761413186799        0.47380538117942
C           -6.92388003966508        0.74544001027921        1.50740462722996
C           -5.88060657785692        1.75754118672947        1.48255164560472
C           -6.01803207838961        2.90433210125789        2.26885300930542
C           -5.07604225117534        3.91255109596922        2.23173942811659
C           -3.96615427007541        3.79581973093181        1.40792345693311
C           -3.79796173003361        2.65929430236272        0.63859555176467
C           -4.73649235498966        1.63554250054362        0.68592449572098
C           -3.31807169091387       -1.54897538120563       -0.64025162950997
C           -2.28004336513328       -2.42049508946207       -0.39351655300193
C            1.41353320242551       -2.29253167615000        0.62599011852603
C            2.18960100972924       -1.80420362867573        1.66221105788827
C            3.28547631895478       -1.01470597310808        1.39210911329194
C            3.63168518349303       -0.70035611620175        0.06683366297788
N            4.70425240527342        0.09940884331651       -0.20607495602766
C            5.12273695732680        0.40913514853470       -1.52523345315627
C            5.55682227051484       -0.60017134950303       -2.37626760859398
C            5.92634986008556       -0.30580277090699       -3.67573881888040
C            5.86345070771324        1.00310716430980       -4.13087450167979
C            5.44805322313879        2.01014687751732       -3.28317468283640
C            5.08996845510175        1.73902192082762       -1.96022837850666
C            4.71209451378436        2.83535065532935       -1.08306674270720
C            4.97449708174779        2.92644947348096        0.22720064947385
C            5.69110260499752        1.94751477340036        1.02857809745226
C            6.52382996902257        2.38336543476011        2.06221657940141
C            7.26408884065114        1.48816285663810        2.80773198264928
C            7.18523044006251        0.12928179704841        2.54010741862168
C            6.35026657856864       -0.32625028779179        1.53653368299274
C            5.59162449262549        0.57126428512798        0.79481566278925
C            2.80827854281422       -1.17963543726326       -0.96725804219088
C            1.71454859116124       -1.96729205923363       -0.68576565450918
H           -0.90507890440417       -0.92648174369956        2.29735420976293
H           -2.75492064925903        0.64852955366271        1.88377371156407
H           -3.94937353280909        0.61421090076608       -2.64025581921336
H           -5.50616765764971        0.27925348599868       -4.52854419342531
H           -7.87771524224161       -0.25691488728003       -4.08142372454653
H           -8.68914244869508       -0.40001849458151       -1.76468747315243
H           -8.18287504042257       -0.65080089749494        0.60642024588443
H           -7.47772850484917        0.68158342896011        2.43527208041229
H           -6.88656325955568        2.99953355685548        2.90437555231466
H           -5.20412959411790        4.79240504116120        2.84444258244533
H           -3.22870941456449        4.58352103124575        1.37308940396701
H           -2.92685225424137        2.54497239775376        0.01011612752696
H           -4.00475360477508       -1.75368605747914       -1.44650907215377
H           -2.13085986843654       -3.30145571554130       -0.99902260536026
H            1.92234131949043       -2.06471905402489        2.67493620288159
H            3.87867394412883       -0.63017344704093        2.20669909505629
H            5.58293242345762       -1.61813981066844       -2.01538083892664
H            6.25334188971183       -1.09666891215641       -4.33393483171990
H            6.13954572547614        1.23466465957752       -5.14878265191830
H            5.40784261008440        3.03057013088733       -3.63593245570299
H            4.26204018684113        3.68514271949067       -1.58000941378879
H            4.72704728940564        3.84640634444812        0.74101279697469
H            6.59330144932488        3.44229373613758        2.26501962229642
H            7.90515946052871        1.84605214831433        3.59947444488661
H            7.76507251575594       -0.57435509513165        3.11827332131533
H            6.26373057039514       -1.38355889502656        1.33205153889505
H            3.03037067097600       -0.92194389005927       -1.99076182265532
H            1.08702472348614       -2.34989030962910       -1.47588033559277

          :  Hamiltonian                  GFN2-xTB          :
         :: gradient norm              0.000137367440 Eh/a0 ::
         :: HOMO-LUMO gap              2.417283633260 eV    ::
         :: SCC energy              -119.239408371775 Eh    ::
         :: -> dispersion             -0.103971657789 Eh    ::
         :: -> Gsolv                  -0.059906807333 Eh    ::
         :: repulsion energy           2.063791244793 Eh    ::

    * Orbital Energies and Occupations

         #    Occupation            Energy/Eh            Energy/eV
      -------------------------------------------------------------
         1        2.0000           -0.7605490             -20.6956
       ...           ...                  ...                  ...
        96        2.0000           -0.4167272             -11.3397
        97        2.0000           -0.4164846             -11.3331
        98        2.0000           -0.4161850             -11.3250
        99        2.0000           -0.4156284             -11.3098
       100        2.0000           -0.4144645             -11.2782
       101        2.0000           -0.4141713             -11.2702
       102        2.0000           -0.4053653             -11.0306
       103        2.0000           -0.4051343             -11.0243
       104        2.0000           -0.3968559             -10.7990
       105        2.0000           -0.3882440             -10.5647
       106        2.0000           -0.3874790             -10.5438
       107        2.0000           -0.3605518              -9.8111
       108        2.0000           -0.3573029              -9.7227 (HOMO)
       109                         -0.2684693              -7.3054 (LUMO)
       110                         -0.2683655              -7.3026
       111                         -0.2463614              -6.7038
       112                         -0.2400522              -6.5322
       113                         -0.2327480              -6.3334
       114                         -0.2321514              -6.3172
       115                         -0.2301462              -6.2626
       116                         -0.2273041              -6.1853
       117                         -0.2270554              -6.1785
       118                         -0.2248694              -6.1190
       119                         -0.2223454              -6.0503
       ...                                ...                  ...
       213                          1.1584641              31.5234
      -------------------------------------------------------------
                  HL-Gap            0.0888335 Eh            2.4173 eV

     #   Z          covCN         q      C6AA      α(0)
     1   8 O        0.860    -0.590    25.874     6.820
     2  16 S        3.822     0.907   109.357    17.601
     3   8 O        0.860    -0.592    25.915     6.825
     4   6 C        2.969    -0.091    30.278     9.026
     5   6 C        2.961    -0.029    28.730     8.792
     6   6 C        2.924    -0.057    29.413     8.894
     7   6 C        2.914     0.075    26.332     8.415
     8   7 N        2.752    -0.071    22.615     7.063
     9   6 C        2.937     0.059    26.676     8.471
    10   6 C        2.920    -0.043    29.060     8.840
    11   6 C        2.919    -0.030    28.751     8.793
    12   6 C        2.917    -0.032    28.804     8.801
    13   6 C        2.927    -0.035    28.862     8.810
    14   6 C        2.973     0.007    27.869     8.659
    15   6 C        2.900    -0.036    28.885     8.812
    16   6 C        2.900    -0.036    28.886     8.812
    17   6 C        2.973     0.007    27.867     8.659
    18   6 C        2.927    -0.035    28.861     8.810
    19   6 C        2.917    -0.032    28.803     8.801
    20   6 C        2.919    -0.030    28.750     8.793
    21   6 C        2.920    -0.043    29.060     8.840
    22   6 C        2.937     0.059    26.678     8.471
    23   6 C        2.924    -0.058    29.433     8.897
    24   6 C        2.951    -0.026    28.659     8.780
    25   6 C        2.969    -0.091    30.271     9.025
    26   6 C        2.952    -0.027    28.665     8.781
    27   6 C        2.924    -0.057    29.428     8.896
    28   6 C        2.914     0.075    26.332     8.414
    29   7 N        2.752    -0.071    22.611     7.062
    30   6 C        2.938     0.059    26.676     8.471
    31   6 C        2.920    -0.042    29.054     8.839
    32   6 C        2.919    -0.030    28.748     8.792
    33   6 C        2.917    -0.032    28.803     8.801
    34   6 C        2.927    -0.035    28.863     8.810
    35   6 C        2.973     0.007    27.866     8.659
    36   6 C        2.900    -0.036    28.884     8.812
    37   6 C        2.900    -0.035    28.882     8.812
    38   6 C        2.973     0.007    27.865     8.659
    39   6 C        2.927    -0.035    28.863     8.810
    40   6 C        2.917    -0.032    28.802     8.801
    41   6 C        2.919    -0.030    28.748     8.792
    42   6 C        2.920    -0.042    29.053     8.839
    43   6 C        2.938     0.059    26.675     8.471
    44   6 C        2.924    -0.057    29.413     8.894
    45   6 C        2.959    -0.029    28.719     8.790
    46   1 H        0.926     0.040     2.446     2.445
    47   1 H        0.926     0.048     2.339     2.392
    48   1 H        0.926     0.043     2.415     2.430
    49   1 H        0.926     0.043     2.413     2.429
    50   1 H        0.926     0.042     2.420     2.433
    51   1 H        0.926     0.044     2.400     2.423
    52   1 H        0.925     0.044     2.397     2.421
    53   1 H        0.925     0.044     2.395     2.420
    54   1 H        0.926     0.044     2.399     2.422
    55   1 H        0.926     0.043     2.415     2.430
    56   1 H        0.926     0.043     2.405     2.425
    57   1 H        0.926     0.043     2.413     2.429
    58   1 H        0.926     0.047     2.353     2.399
    59   1 H        0.926     0.045     2.377     2.411
    60   1 H        0.926     0.045     2.378     2.411
    61   1 H        0.926     0.048     2.350     2.397
    62   1 H        0.926     0.040     2.446     2.446
    63   1 H        0.926     0.042     2.426     2.436
    64   1 H        0.926     0.042     2.417     2.431
    65   1 H        0.926     0.045     2.385     2.415
    66   1 H        0.925     0.046     2.373     2.409
    67   1 H        0.925     0.046     2.374     2.409
    68   1 H        0.926     0.045     2.386     2.415
    69   1 H        0.926     0.042     2.418     2.432
    70   1 H        0.926     0.042     2.428     2.437
    71   1 H        0.926     0.040     2.447     2.446
    72   1 H        0.926     0.048     2.339     2.391
    73   1 H        0.926     0.041     2.433     2.439

molecular dipole:
                 x           y           z       tot (Debye)
 q only:        0.067       4.764      -1.414
   full:        0.116       4.496      -1.367      11.948

 projected vibrational frequencies (cm⁻¹)
eigval :       -0.00    -0.00    -0.00    -0.00     0.00     0.00
eigval :        3.80     6.04     7.11    24.81    33.00    43.31
eigval :       47.87    55.07    55.61    57.05    60.41    78.11
eigval :       98.76    99.98   109.54   120.38   135.31   142.69
eigval :      144.62   165.01   181.19   214.95   215.65   225.63
eigval :      256.78   262.59   279.86   299.08   303.56   309.49
eigval :      312.33   314.41   335.46   350.42   357.16   357.85
eigval :      364.31   371.77   377.58   379.21   403.04   424.37
eigval :      428.78   438.76   441.31   448.14   449.20   467.23
eigval :      478.49   498.69   501.39   517.02   517.26   529.94
eigval :      547.07   553.64   553.91   555.48   557.36   586.85
eigval :      587.27   606.44   607.47   622.22   637.09   656.77
eigval :      660.96   671.42   672.15   685.81   686.32   712.94
eigval :      715.19   715.38   728.55   768.81   770.28   780.82
eigval :      782.14   786.44   787.65   796.06   798.18   816.26
eigval :      818.84   855.78   856.71   858.68   858.88   881.56
eigval :      882.61   882.73   882.99   903.26   906.11   906.24
eigval :      906.87   908.64   910.64   916.68   917.04   918.83
eigval :      918.89   919.62   921.28   922.18   922.87   926.35
eigval :      928.23   929.22   930.20   992.24   997.45  1057.30
eigval :     1089.69  1089.80  1090.02  1090.30  1101.63  1102.16
eigval :     1117.19  1121.27  1126.72  1128.31  1132.79  1133.79
eigval :     1170.29  1174.01  1175.14  1177.07  1177.45  1179.40
eigval :     1182.35  1189.80  1191.82  1209.88  1210.39  1211.61
eigval :     1212.92  1232.00  1232.52  1235.58  1235.93  1255.63
eigval :     1257.49  1257.60  1257.83  1282.13  1282.83  1317.71
eigval :     1317.84  1321.78  1322.08  1342.69  1342.98  1354.02
eigval :     1357.18  1367.40  1369.15  1410.91  1411.65  1419.02
eigval :     1419.18  1437.57  1437.76  1464.74  1464.99  1467.74
eigval :     1468.14  1489.56  1491.78  1560.21  1560.73  1562.80
eigval :     1562.99  1564.78  1565.11  1574.93  1577.76  1585.17
eigval :     1585.40  1585.57  1586.35  1645.22  1645.49  3047.29
eigval :     3048.35  3060.95  3061.79  3075.33  3075.81  3076.27
eigval :     3076.61  3078.75  3079.57  3079.74  3080.43  3085.71
eigval :     3086.23  3086.48  3087.01  3091.32  3091.68  3092.47
eigval :     3093.84  3095.51  3095.83  3096.34  3096.65  3102.16
eigval :     3104.14  3105.53  3106.38

   temp. (K)  partition function   enthalpy   heat capacity  entropy
                                   cal/mol     cal/K/mol   cal/K/mol   J/K/mol
 298.15  VIB  0.391E+18            21298.144    134.919    134.693
         ROT  0.835E+08              888.752      2.981     39.229
         INT  0.327E+26            22186.896    137.900    173.922
         TR   0.142E+29             1481.254      4.968     45.042
         TOT                       23668.1500   142.8684   218.9642   916.1464

       T/K    H(0)-H(T)+PV         H(T)/Eh          T*S/Eh         G(T)/Eh
   ------------------------------------------------------------------------
    298.15    0.377176E-01    0.590126E+00    0.104037E+00    0.486089E+00
   ------------------------------------------------------------------------

         :::::::::::::::::::::::::::::::::::::::::::::::::::::
         ::                  THERMODYNAMIC                  ::
         :::::::::::::::::::::::::::::::::::::::::::::::::::::
         :: total free energy        -116.689528524593 Eh   ::
         ::.................................................::
         :: total energy             -117.175617130756 Eh   ::
         :: zero point energy           0.552407985057 Eh   ::
         :: G(RRHO) w/o ZPVE           -0.066319378894 Eh   ::
         :: G(RRHO) contrib.            0.486088606163 Eh   ::
         :::::::::::::::::::::::::::::::::::::::::::::::::::::

           -------------------------------------------------
          | TOTAL ENERGY             -117.175617130756 Eh   |
          | TOTAL ENTHALPY           -116.585491547915 Eh   |
          | TOTAL FREE ENERGY        -116.689528524593 Eh   |
          | GRADIENT NORM               0.000137340959 Eh/α |
          | HOMO-LUMO GAP               2.417283775179 eV   |
           -------------------------------------------------

 * finished run on 2025/09/10 at 16:24:09.170
