   * xtb version 6.7.1 (edcfbbe) compiled by 'albert@albert-system' on 2024-07-22

   ID    Z sym.   atoms
    1    6 C      1-9, 11-15, 17-22, 24-27, 29-45, 47-54
    2    7 N      10, 28, 46
    3    8 O      16, 23
    4    1 H      55-93

          program call               : xtb data2507/toluene/26DAcBPy/26DAcBPy_toluene_S0_crest.xyz --gfn 2 --gbsa toluene --ohess vtight --parallel 40 --molden --ceasefiles --namespace data2507/toluene/26DAcBPy/26DAcBPy_toluene_S0_finalOpt
      * Solvation model:               GBSA
        Solvent                        toluene
        Solvent mass                       9.2140E+01 g/mol
          :  Hamiltonian                  GFN2-xTB          :
 * total energy  :  -141.8081021 Eh     change       -0.2663995E-08 Eh
 * total energy  :  -141.8082811 Eh     change       -0.1789808E-03 Eh
 * total energy  :  -141.8083838 Eh     change       -0.1026705E-03 Eh
 * total energy  :  -141.8084381 Eh     change       -0.5428339E-04 Eh
 * total energy  :  -141.8085171 Eh     change       -0.7903232E-04 Eh
 * total energy  :  -141.8086060 Eh     change       -0.8890387E-04 Eh
 * total energy  :  -141.8086680 Eh     change       -0.6199821E-04 Eh
 * total energy  :  -141.8087047 Eh     change       -0.3663981E-04 Eh
 * total energy  :  -141.8087467 Eh     change       -0.4207166E-04 Eh
 * total energy  :  -141.8087722 Eh     change       -0.2551081E-04 Eh
 * total energy  :  -141.8094719 Eh     change       -0.1768347E-05 Eh
 * total energy  :  -141.8094738 Eh     change       -0.1848537E-05 Eh
 * total energy  :  -141.8094756 Eh     change       -0.1807321E-05 Eh
 * total energy  :  -141.8094772 Eh     change       -0.1633487E-05 Eh
 * total energy  :  -141.8094786 Eh     change       -0.1383210E-05 Eh
 * total energy  :  -141.8094797 Eh     change       -0.1096753E-05 Eh
 * total energy  :  -141.8094806 Eh     change       -0.8785761E-06 Eh
 * total energy  :  -141.8094813 Eh     change       -0.7451665E-06 Eh
 * total energy  :  -141.8094813 Eh     change       -0.3912447E-08 Eh
   *** GEOMETRY OPTIMIZATION CONVERGED AFTER 94 ITERATIONS ***

 final structure:
================
93
 xtb: 6.7.1 (edcfbbe)
C            4.38047739311425       -3.09049604073283        0.70787796754715
C            3.07466423624500       -3.49084749124691        1.41772841977164
C            3.38596494163225       -4.26798236664581        2.71189812747677
C            2.26462743091726       -4.39440828828109        0.51021826360436
C            2.81470707798076       -5.60064280368666        0.09426205372396
C            2.10582744873637       -6.51134011605380       -0.66557085978857
C            0.79071565662087       -6.23252043909273       -0.99125924391266
C            0.22296174058600       -5.03964193415149       -0.59532443477487
C            0.95679152267121       -4.08710054474540        0.12013582644972
N            0.36604143349418       -2.87567225473517        0.47728383931472
C           -0.93605450457064       -2.58336805208719        0.02298798022516
C           -1.21397587525929       -2.52194001794066       -1.34317874938672
C           -2.48973271287039       -2.24103434932908       -1.78390282248761
C           -3.50718188550630       -1.96331531984537       -0.87130685267573
C           -4.84421561067207       -1.58876684145224       -1.36564348545693
O           -5.38635934130531       -2.11489456235567       -2.32264063046992
C           -5.47399213048117       -0.43718916752660       -0.65220677417327
C           -6.85177557183104       -0.22333921478090       -0.68280447297431
C           -7.35672382117251        0.90166388334666       -0.04954609276195
C           -6.47412143338539        1.77785389237930        0.56030090855207
C           -5.10688616270548        1.49245838669130        0.51618994715868
C           -4.13288236962894        2.42362126740432        1.16392846781508
O           -4.50003904316774        3.13618825395213        2.08867110906434
C           -2.75141637191926        2.44055596997163        0.66094481679517
C           -2.38803868205123        1.99352318570512       -0.61130980676556
C           -1.07218469296718        2.03788019505230       -1.02381272862834
C           -0.07850986206306        2.53453310612706       -0.17897907481204
N            1.27319839074889        2.61685268077616       -0.55334375522440
C            2.02380343949268        1.51446366432951       -0.96884646680544
C            1.43110479330233        0.29681240537020       -1.29686986073642
C            2.19064235005485       -0.74325168583657       -1.79559879167521
C            3.54975892776951       -0.58228510462981       -1.98261942547604
C            4.15545762083080        0.59551798230821       -1.57953737427874
C            3.42177874250170        1.63933779733346       -1.04014407069065
C            4.07229896063880        2.85547988400059       -0.40749020251714
C            5.52933540142801        3.04548890059817       -0.83168293588040
C            4.03929545698785        2.64043898636948        1.12174729348699
C            3.21319864295036        4.06196071256386       -0.71938006337832
C            3.72431025985845        5.32773819460569       -0.96210069401942
C            2.89258626370290        6.41836300207569       -1.15096239719289
C            1.52033177977672        6.24941687963187       -1.10876654553334
C            0.98861036583427        4.99295657080370       -0.89798360637979
C            1.82403609354631        3.89427192787539       -0.69562184553652
C           -0.44872300928786        3.03752155882435        1.07266446089920
C           -1.75945900553596        2.98729026778507        1.48496426171039
N           -4.62927847604244        0.40054902225111       -0.06289150258621
C           -3.23248677355598       -2.03008033786076        0.49490711167048
C           -1.96860095537174       -2.35967580409599        0.93525864482717
C            1.03335727696430       -1.95719164280244        1.28724523263027
C            0.44094810155083       -0.72775680466812        1.59257769280356
C            1.06548521257876        0.18169702825603        2.41903832045436
C            2.31331964443887       -0.10232710311087        2.94166595909926
C            2.92684482989841       -1.29077570331188        2.59727504805768
C            2.31668488804050       -2.22794116583363        1.77360836217769
H            4.14987312207838       -2.49061509565502       -0.16970410927883
H            4.93820978768364       -3.96825631260562        0.39395283574486
H            5.01490627155933       -2.50335234134539        1.36573237224495
H            3.95701295677041       -5.16680281515220        2.49678011927533
H            2.45850704915295       -4.56007079649980        3.20188701582019
H            3.96036438477497       -3.65702862185441        3.40252724206405
H            3.82748749982312       -5.84460743352586        0.37651013531235
H            2.56680951297582       -7.43606591697152       -0.97849414000308
H            0.19967353181088       -6.94415249027289       -1.54880085533950
H           -0.81158984986866       -4.85258585348696       -0.83629085413442
H           -0.42384196448617       -2.69940015389366       -2.05674346101771
H           -2.70791927830407       -2.19591595301348       -2.84067427195087
H           -7.48866215382888       -0.93320323529658       -1.18736170923803
H           -8.41880344012023        1.09571237144996       -0.03812461721813
H           -6.80948474835410        2.67393284305354        1.05924160354652
H           -3.14123447366394        1.63532760109936       -1.29389013190566
H           -0.81900122279942        1.73422237605864       -2.02814463382887
H            0.37408543256372        0.14855339167778       -1.15354526488112
H            1.71606707801014       -1.67922537915547       -2.04781743535115
H            4.14294697738721       -1.37522488382272       -2.41390686760607
H            5.22455604907714        0.68156529905997       -1.68091261583351
H            6.11903952631388        2.17561617510001       -0.55587693194535
H            5.96177925736719        3.89778742154952       -0.31447641583708
H            5.60657887204910        3.20394556149448       -1.90523159714296
H            4.42943419331052        3.51955983033375        1.63082879870258
H            4.64588983894225        1.77782114715145        1.38791788636457
H            3.02374129224725        2.45866612056641        1.46386423960019
H            4.78999241211060        5.48309899554131       -0.99759337161072
H            3.31708950989750        7.39520574940730       -1.32808596421379
H            0.85946416758833        7.09086599988554       -1.25611917952621
H           -0.08276257707212        4.85944873964190       -0.89998733939228
H            0.30835420424367        3.47292088210996        1.70835282947287
H           -2.04786675203006        3.35743312259539        2.45804498006909
H           -4.02106468038377       -1.85854046529186        1.21127436342772
H           -1.76694685134439       -2.44234733057311        1.99292755302961
H           -0.52225068236607       -0.47147609402299        1.18067986078553
H            0.56819988696770        1.11128303531811        2.65022306515069
H            2.80874500386200        0.59583188789469        3.59912447439751
H            3.91254327639831       -1.49240048451405        2.98731260867359

          :  Hamiltonian                  GFN2-xTB          :
         :: gradient norm              0.000051339578 Eh/a0 ::
         :: HOMO-LUMO gap              1.044241725351 eV    ::
         :: SCC energy              -144.267522444228 Eh    ::
         :: -> dispersion             -0.145127765705 Eh    ::
         :: -> Gsolv                  -0.052034526278 Eh    ::
         :: repulsion energy           2.458041141883 Eh    ::

    * Orbital Energies and Occupations

         #    Occupation            Energy/Eh            Energy/eV
      -------------------------------------------------------------
         1        2.0000           -0.7239402             -19.6994
       ...           ...                  ...                  ...
       119        2.0000           -0.4108693             -11.1803
       120        2.0000           -0.4084922             -11.1156
       121        2.0000           -0.4073943             -11.0858
       122        2.0000           -0.4047302             -11.0133
       123        2.0000           -0.4042657             -11.0006
       124        2.0000           -0.4028601             -10.9624
       125        2.0000           -0.3977786             -10.8241
       126        2.0000           -0.3963044             -10.7840
       127        2.0000           -0.3937335             -10.7140
       128        2.0000           -0.3918716             -10.6634
       129        2.0000           -0.3871217             -10.5341
       130        2.0000           -0.3528452              -9.6014
       131        2.0000           -0.3491580              -9.5011 (HOMO)
       132                         -0.3107828              -8.4568 (LUMO)
       133                         -0.3079168              -8.3788
       134                         -0.2647423              -7.2040
       135                         -0.2539440              -6.9102
       136                         -0.2414766              -6.5709
       137                         -0.2413069              -6.5663
       138                         -0.2257523              -6.1430
       139                         -0.2249306              -6.1207
       140                         -0.2221547              -6.0451
       141                         -0.2206275              -6.0036
       142                         -0.2190598              -5.9609
       ...                                ...                  ...
       255                          0.6835843              18.6013
      -------------------------------------------------------------
                  HL-Gap            0.0383752 Eh            1.0442 eV

     #   Z          covCN         q      C6AA      α(0)
     1   6 C        3.761    -0.106    22.566     6.772
     2   6 C        3.910     0.021    20.156     6.381
     3   6 C        3.761    -0.104    22.536     6.767
     4   6 C        2.980    -0.011    28.273     8.722
     5   6 C        2.928    -0.037    28.916     8.819
     6   6 C        2.917    -0.044    29.093     8.845
     7   6 C        2.920    -0.034    28.853     8.809
     8   6 C        2.924    -0.059    29.468     8.902
     9   6 C        2.925     0.057    26.722     8.477
    10   7 N        2.751    -0.060    22.409     7.031
    11   6 C        2.924     0.076    26.298     8.410
    12   6 C        2.920    -0.037    28.915     8.818
    13   6 C        2.922    -0.017    28.443     8.746
    14   6 C        2.974    -0.010    28.260     8.720
    15   6 C        2.831     0.227    23.233     7.899
    16   8 O        0.857    -0.400    21.690     6.244
    17   6 C        2.956     0.073    26.360     8.421
    18   6 C        2.916    -0.024    28.605     8.770
    19   6 C        2.924    -0.007    28.191     8.707
    20   6 C        2.918    -0.024    28.592     8.769
    21   6 C        2.953     0.076    26.305     8.412
    22   6 C        2.829     0.221    23.341     7.917
    23   8 O        0.858    -0.413    21.933     6.279
    24   6 C        2.970    -0.014    28.352     8.734
    25   6 C        2.919    -0.020    28.516     8.757
    26   6 C        2.918    -0.040    29.000     8.831
    27   6 C        2.923     0.080    26.224     8.398
    28   7 N        2.753    -0.064    22.488     7.043
    29   6 C        2.926     0.057    26.724     8.478
    30   6 C        2.921    -0.057    29.427     8.896
    31   6 C        2.921    -0.033    28.828     8.805
    32   6 C        2.918    -0.043    29.078     8.843
    33   6 C        2.925    -0.040    29.005     8.832
    34   6 C        2.985    -0.010    28.266     8.721
    35   6 C        3.911     0.022    20.150     6.380
    36   6 C        3.758    -0.108    22.618     6.780
    37   6 C        3.766    -0.100    22.458     6.754
    38   6 C        2.984    -0.009    28.230     8.716
    39   6 C        2.924    -0.040    28.988     8.829
    40   6 C        2.918    -0.042    29.045     8.838
    41   6 C        2.919    -0.034    28.851     8.808
    42   6 C        2.922    -0.055    29.354     8.885
    43   6 C        2.940     0.056    26.747     8.482
    44   6 C        2.921    -0.036    28.899     8.816
    45   6 C        2.924    -0.015    28.392     8.738
    46   7 N        1.847    -0.233    26.944     7.693
    47   6 C        2.920    -0.019    28.481     8.752
    48   6 C        2.921    -0.037    28.924     8.819
    49   6 C        2.925     0.058    26.701     8.474
    50   6 C        2.924    -0.057    29.425     8.896
    51   6 C        2.921    -0.035    28.879     8.812
    52   6 C        2.917    -0.043    29.073     8.842
    53   6 C        2.929    -0.037    28.914     8.818
    54   6 C        2.981    -0.011    28.276     8.722
    55   1 H        0.925     0.036     2.503     2.474
    56   1 H        0.925     0.042     2.418     2.432
    57   1 H        0.925     0.041     2.429     2.437
    58   1 H        0.925     0.043     2.411     2.428
    59   1 H        0.925     0.030     2.589     2.516
    60   1 H        0.925     0.043     2.410     2.428
    61   1 H        0.926     0.036     2.508     2.477
    62   1 H        0.926     0.028     2.615     2.529
    63   1 H        0.926     0.028     2.608     2.526
    64   1 H        0.926     0.028     2.609     2.526
    65   1 H        0.926     0.057     2.230     2.335
    66   1 H        0.926     0.053     2.279     2.361
    67   1 H        0.926     0.066     2.130     2.283
    68   1 H        0.926     0.066     2.132     2.283
    69   1 H        0.926     0.066     2.128     2.281
    70   1 H        0.926     0.050     2.324     2.384
    71   1 H        0.926     0.056     2.244     2.342
    72   1 H        0.926     0.031     2.565     2.505
    73   1 H        0.926     0.026     2.642     2.542
    74   1 H        0.926     0.028     2.611     2.527
    75   1 H        0.926     0.042     2.419     2.432
    76   1 H        0.925     0.044     2.391     2.418
    77   1 H        0.925     0.044     2.397     2.421
    78   1 H        0.925     0.038     2.474     2.460
    79   1 H        0.925     0.041     2.441     2.443
    80   1 H        0.925     0.042     2.428     2.437
    81   1 H        0.925     0.035     2.518     2.481
    82   1 H        0.926     0.043     2.414     2.429
    83   1 H        0.926     0.031     2.578     2.511
    84   1 H        0.926     0.030     2.589     2.516
    85   1 H        0.926     0.025     2.665     2.553
    86   1 H        0.926     0.054     2.271     2.357
    87   1 H        0.926     0.058     2.219     2.329
    88   1 H        0.926     0.043     2.411     2.428
    89   1 H        0.926     0.054     2.265     2.353
    90   1 H        0.926     0.024     2.672     2.556
    91   1 H        0.926     0.026     2.637     2.539
    92   1 H        0.926     0.031     2.575     2.509
    93   1 H        0.926     0.036     2.497     2.471

molecular dipole:
                 x           y           z       tot (Debye)
 q only:        2.281      -0.046       0.198
   full:        1.581       0.017       0.189       4.047

 projected vibrational frequencies (cm⁻¹)
eigval :       -0.00    -0.00    -0.00    -0.00     0.00     0.00
eigval :        4.24    18.45    22.50    28.93    31.41    35.67
eigval :       37.82    41.40    52.16    55.75    63.24    76.03
eigval :       76.53    84.58   105.47   106.19   114.47   116.72
eigval :      123.80   124.92   135.34   137.50   156.40   165.16
eigval :      170.17   175.28   179.70   187.71   205.10   209.62
eigval :      217.86   229.07   240.50   242.39   267.37   272.87
eigval :      277.46   292.16   302.48   307.10   312.82   316.66
eigval :      330.56   334.56   340.43   347.86   364.04   369.12
eigval :      375.28   377.44   380.29   387.94   389.16   393.73
eigval :      400.57   410.43   413.91   418.05   446.57   447.52
eigval :      454.24   459.98   480.97   486.18   498.71   502.29
eigval :      510.28   515.57   535.39   545.48   549.40   552.45
eigval :      563.68   565.96   574.39   582.01   590.53   595.25
eigval :      603.92   608.12   616.70   626.25   646.30   648.57
eigval :      673.92   683.92   685.18   685.64   695.67   696.67
eigval :      701.62   709.06   724.09   730.93   742.14   744.40
eigval :      773.22   778.28   779.69   783.86   793.80   813.95
eigval :      816.04   820.77   827.20   828.97   861.56   866.11
eigval :      866.58   871.34   874.77   882.01   890.61   903.76
eigval :      903.90   904.58   910.78   912.79   912.99   914.56
eigval :      916.38   919.97   920.63   921.05   922.85   926.87
eigval :      931.05   934.46   937.10   937.79   939.32   942.46
eigval :      946.30   957.39   965.42   982.65  1007.48  1009.05
eigval :     1014.67  1026.23  1026.62  1073.77  1075.93  1082.71
eigval :     1083.71  1102.99  1110.97  1116.18  1118.65  1120.34
eigval :     1132.90  1136.86  1140.26  1142.78  1150.52  1152.88
eigval :     1158.70  1171.73  1173.60  1179.34  1182.79  1182.89
eigval :     1185.34  1186.57  1188.02  1189.28  1192.89  1204.42
eigval :     1213.16  1240.45  1243.03  1248.57  1248.82  1260.71
eigval :     1261.54  1262.35  1266.86  1273.59  1279.49  1281.16
eigval :     1294.78  1301.98  1304.46  1309.84  1311.24  1314.01
eigval :     1324.12  1325.79  1327.43  1331.85  1333.03  1333.60
eigval :     1393.76  1396.59  1400.38  1402.04  1403.64  1411.17
eigval :     1413.32  1419.16  1433.67  1436.53  1437.24  1441.55
eigval :     1461.18  1468.88  1471.82  1473.38  1481.53  1485.74
eigval :     1486.71  1488.78  1490.92  1492.02  1496.37  1501.83
eigval :     1502.61  1527.04  1541.82  1547.12  1548.56  1551.50
eigval :     1567.77  1573.23  1574.26  1574.65  1584.53  1587.91
eigval :     1589.25  1591.07  1599.48  1600.88  1641.39  1667.99
eigval :     3021.33  3023.99  3029.60  3031.67  3033.33  3038.68
eigval :     3040.05  3041.77  3045.53  3048.88  3050.81  3052.61
eigval :     3074.08  3074.75  3074.83  3080.17  3081.37  3082.26
eigval :     3084.32  3084.33  3085.61  3086.74  3087.92  3089.83
eigval :     3092.38  3092.50  3093.51  3094.25  3095.22  3097.24
eigval :     3098.95  3100.50  3103.00  3103.38  3104.40  3112.46
eigval :     3114.14  3116.13  3118.43

   temp. (K)  partition function   enthalpy   heat capacity  entropy
                                   cal/mol     cal/K/mol   cal/K/mol   J/K/mol
 298.15  VIB  0.167E+21            26937.813    170.226    166.616
         ROT  0.824E+08              888.752      2.981     39.204
         INT  0.137E+29            27826.565    173.207    205.819
         TR   0.180E+29             1481.254      4.968     45.506
         TOT                       29307.8188   178.1751   251.3250  1051.5438

       T/K    H(0)-H(T)+PV         H(T)/Eh          T*S/Eh         G(T)/Eh
   ------------------------------------------------------------------------
    298.15    0.467050E-01    0.777043E+00    0.119413E+00    0.657630E+00
   ------------------------------------------------------------------------

         :::::::::::::::::::::::::::::::::::::::::::::::::::::
         ::                  THERMODYNAMIC                  ::
         :::::::::::::::::::::::::::::::::::::::::::::::::::::
         :: total free energy        -141.151850961185 Eh   ::
         ::.................................................::
         :: total energy             -141.809481301511 Eh   ::
         :: zero point energy           0.730337979159 Eh   ::
         :: G(RRHO) w/o ZPVE           -0.072707638833 Eh   ::
         :: G(RRHO) contrib.            0.657630340326 Eh   ::
         :::::::::::::::::::::::::::::::::::::::::::::::::::::

           -------------------------------------------------
          | TOTAL ENERGY             -141.809481301511 Eh   |
          | TOTAL ENTHALPY           -141.032438340223 Eh   |
          | TOTAL FREE ENERGY        -141.151850961185 Eh   |
          | GRADIENT NORM               0.000051342330 Eh/α |
          | HOMO-LUMO GAP               1.044241541827 eV   |
           -------------------------------------------------

 * finished run on 2025/09/07 at 03:23:29.461
