   * xtb version 6.7.1 (edcfbbe) compiled by 'albert@albert-system' on 2024-07-22

   ID    Z sym.   atoms
    1    6 C      1-9, 11-15, 17-22, 24-27, 29-45, 47-54
    2    7 N      10, 28, 46
    3    8 O      16, 23
    4    1 H      55-93

          program call               : xtb data2507/toluene/26DAcBPy/26DAcBPy_toluene_T1_crest.xyz --gfn 2 --uhf 2 --gbsa toluene --ohess vtight --parallel 40 --molden --ceasefiles --namespace data2507/toluene/26DAcBPy/26DAcBPy_toluene_T1_finalOpt
      * Solvation model:               GBSA
        Solvent                        toluene
        Solvent mass                       9.2140E+01 g/mol
          :  Hamiltonian                  GFN2-xTB          :
 * total energy  :  -141.7491534 Eh     change       -0.1079923E-07 Eh
 * total energy  :  -141.7496312 Eh     change       -0.4778478E-03 Eh
 * total energy  :  -141.7498992 Eh     change       -0.2679393E-03 Eh
 * total energy  :  -141.7499835 Eh     change       -0.8435303E-04 Eh
 * total energy  :  -141.7501085 Eh     change       -0.1249520E-03 Eh
 * total energy  :  -141.7502205 Eh     change       -0.1120782E-03 Eh
 * total energy  :  -141.7503075 Eh     change       -0.8695803E-04 Eh
 * total energy  :  -141.7503695 Eh     change       -0.6199152E-04 Eh
 * total energy  :  -141.7504085 Eh     change       -0.3899134E-04 Eh
 * total energy  :  -141.7504445 Eh     change       -0.3606148E-04 Eh
 * total energy  :  -141.7514207 Eh     change       -0.3913570E-06 Eh
 * total energy  :  -141.7514211 Eh     change       -0.3994122E-06 Eh
 * total energy  :  -141.7514214 Eh     change       -0.3380338E-06 Eh
 * total energy  :  -141.7514217 Eh     change       -0.2896678E-06 Eh
 * total energy  :  -141.7514220 Eh     change       -0.2592336E-06 Eh
 * total energy  :  -141.7514222 Eh     change       -0.2433848E-06 Eh
 * total energy  :  -141.7514226 Eh     change       -0.4083426E-06 Eh
 * total energy  :  -141.7514231 Eh     change       -0.5221931E-06 Eh
 * total energy  :  -141.7514231 Eh     change       -0.9715620E-08 Eh
   *** GEOMETRY OPTIMIZATION CONVERGED AFTER 122 ITERATIONS ***

 final structure:
================
93
 xtb: 6.7.1 (edcfbbe)
C            4.19389652268793       -3.71228509955700        0.44483955911188
C            2.94921637144553       -3.89096782105547        1.33480876277601
C            3.34139506191141       -4.55173592428674        2.67198867948240
C            1.96537884902109       -4.79535684464051        0.62601233745663
C            2.33018039512415       -6.10045123794377        0.32162854837760
C            1.45660176729152       -6.98299382593780       -0.28588220876634
C            0.16721317645279       -6.56807091545917       -0.58387529526312
C           -0.21895874569716       -5.27659309408096       -0.30416280162153
C            0.67673051964226       -4.36451403419696        0.27438678608896
N            0.27088821455768       -3.06298990596722        0.51254496698213
C           -0.99265314960888       -2.64474982168478        0.01456660479689
C           -1.20652353112329       -2.57152581404190       -1.36076597966819
C           -2.43782130557806       -2.18963709962041       -1.85031989895695
C           -3.46829300093948       -1.82881507057358       -0.97961653259122
C           -4.78087775758143       -1.41024500655955       -1.50783044964865
O           -5.30637399747759       -1.95508727969216       -2.49026014398978
C           -5.40384860425950       -0.27895840580489       -0.80661831819182
C           -6.78490854863469       -0.03330182106210       -0.86240506582542
C           -7.28505066809911        1.05733199387931       -0.16676487685662
C           -6.41961414743208        1.88563598408466        0.52273796221504
C           -5.03858929542764        1.60900883247291        0.47425128583501
C           -4.07709757077667        2.48333555800017        1.15467548744093
O           -4.44388852456782        3.22744014519311        2.09011836092374
C           -2.68408152634227        2.47583284112943        0.69831348969340
C           -2.30315976722939        2.09756587738117       -0.59524398230483
C           -0.98938983975099        2.18187276248667       -1.00216249447552
C           -0.00685060837433        2.63729348552828       -0.12285732401590
N            1.35147648230464        2.77062816551496       -0.50679594231154
C            2.13137167659795        1.68142759959035       -0.86069864913381
C            1.55335998279994        0.44071207318460       -1.14639526971825
C            2.33079141835653       -0.61000344814503       -1.58409642251409
C            3.69506006249826       -0.44188941924754       -1.74555738935365
C            4.28184730728589        0.76589355834255       -1.40635793431208
C            3.52959877559817        1.83276327147241       -0.94399690372475
C            4.15600189378164        3.10169993783368       -0.40295098766334
C            5.58324730073993        3.32451884751062       -0.90775574120629
C            4.20456318434123        2.95249959901061        1.13646888860634
C            3.24227018310279        4.26830450962296       -0.70914331399792
C            3.70190489348270        5.55464020326903       -0.94304634502798
C            2.82764141180368        6.61650157317852       -1.10729598408033
C            1.46023935592664        6.40291646811768       -1.03547697788224
C            0.97532718080267        5.13091646909008       -0.82022097697458
C            1.85463964471728        4.05435087722651       -0.65909122291401
C           -0.37892194776965        3.04753542797164        1.15946731113402
C           -1.69293131560631        2.97560892960761        1.55808402419053
N           -4.57725034001341        0.53697100913288       -0.15898479326043
C           -3.24684699427084       -1.90909020490122        0.39782031733546
C           -2.02948957736843       -2.32791121529113        0.89032422938878
C            1.06512312764066       -2.16779083025990        1.20755356102264
C            0.59226190812058       -0.87686635728990        1.48413264315625
C            1.36182711169916        0.02563819067983        2.18264118752114
C            2.63317997766518       -0.32903126277480        2.60334356570725
C            3.11568585049725       -1.59051346800346        2.31017264406255
C            2.35753276944706       -2.52815708638150        1.62234592951904
H            3.90675977348317       -3.26166104017069       -0.50210302156730
H            4.66383727388029       -4.67071503044134        0.24516526536370
H            4.92154027042914       -3.06637747120790        0.92658956745286
H            3.77412754631806       -5.53344567490032        2.50606129361234
H            2.46132350029049       -4.66599189188703        3.30219327991733
H            4.06864571505185       -3.94623314687735        3.20385661155177
H            3.32291059335090       -6.44446922034342        0.56556254941589
H            1.77264232042697       -7.98979236270517       -0.51172339273121
H           -0.53903106369113       -7.25099732879526       -1.03108028996985
H           -1.22756909240275       -4.96597491792650       -0.52550672621108
H           -0.40702728565383       -2.82626113186200       -2.04063030344899
H           -2.61754508905366       -2.14377119712586       -2.91429864400049
H           -7.41590403423797       -0.70408976669249       -1.42392994863039
H           -8.34683178444277        1.26037370301812       -0.16680590136648
H           -6.75654825811922        2.74683525433845        1.07845656441223
H           -3.05116036047278        1.75945714176642       -1.29426092402430
H           -0.72687873827042        1.93561340506242       -2.02070654040770
H            0.49154234734103        0.30386555372294       -1.03318990662365
H            1.86550219503479       -1.55684013143446       -1.81013685141617
H            4.30758099842191       -1.24954584067023       -2.11577142257199
H            5.35007799663256        0.86001768684296       -1.50355980671627
H            6.21941763654997        2.49125007843733       -0.62498214434299
H            6.00939244592652        4.21334634675689       -0.45204181462835
H            5.59952038480720        3.43617352328587       -1.98944585098374
H            4.59295543277367        3.86393497618190        1.58534462122996
H            4.85097855160506        2.12080923534593        1.40532840090767
H            3.21190437635885        2.76179748692724        1.53635534643458
H            4.75974177514178        5.75049553702861       -0.99449175289395
H            3.21422653431430        7.60807331214774       -1.28685470318375
H            0.77014754878243        7.22377777905622       -1.15900453983232
H           -0.08939559919573        4.95816702871740       -0.79218536055229
H            0.37292259661789        3.43880658342856        1.82997128759208
H           -1.99336489960385        3.29916078684495        2.54406564415074
H           -4.04563570129258       -1.66658811804159        1.08169146642030
H           -1.87580536548797       -2.41883980455222        1.95566515454970
H           -0.38942354012571       -0.58029020668957        1.15270536496137
H            0.96113835713404        1.00453517898183        2.39451338126782
H            3.24389333100300        0.37093281313422        3.15182064426268
H            4.11255597466911       -1.84801888623273        2.63091803998354

          :  Hamiltonian                  GFN2-xTB          :
         :: gradient norm              0.000074595326 Eh/a0 ::
         :: HOMO-LUMO gap              0.031072693762 eV    ::
         :: SCC energy              -144.196260616496 Eh    ::
         :: -> dispersion             -0.143475878018 Eh    ::
         :: -> Gsolv                  -0.072542043051 Eh    ::
         :: repulsion energy           2.444837471552 Eh    ::

    * Orbital Energies and Occupations

         #    Occupation            Energy/Eh            Energy/eV
      -------------------------------------------------------------
         1        2.0000           -0.6894487             -18.7609
       ...           ...                  ...                  ...
       120        2.0000           -0.4131605             -11.2427
       121        2.0000           -0.4123091             -11.2195
       122        2.0000           -0.4111090             -11.1868
       123        2.0000           -0.4100046             -11.1568
       124        2.0000           -0.4082370             -11.1087
       125        2.0000           -0.4070437             -11.0762
       126        2.0000           -0.4046795             -11.0119
       127        2.0000           -0.3989040             -10.8547
       128        2.0000           -0.3787979             -10.3076
       129        1.9029           -0.3654003              -9.9430
       130        1.5907           -0.3636307              -9.8949
       131        1.5065           -0.3633068              -9.8861
       132        0.6459           -0.2892032              -7.8696 (HOMO)
       133        0.3541           -0.2880610              -7.8385 (LUMO)
       134                         -0.2464537              -6.7063
       135                         -0.2418608              -6.5814
       136                         -0.2413366              -6.5671
       137                         -0.2396629              -6.5216
       138                         -0.2377488              -6.4695
       139                         -0.2338788              -6.3642
       140                         -0.2333151              -6.3488
       141                         -0.2323546              -6.3227
       142                         -0.2309673              -6.2849
       143                         -0.2285252              -6.2185
       ...                                ...                  ...
       255                          0.6805509              18.5187
      -------------------------------------------------------------
                  HL-Gap            0.0011422 Eh            0.0311 eV

     #   Z          covCN         q      C6AA      α(0)
     1   6 C        3.761    -0.109    22.631     6.782
     2   6 C        3.909     0.024    20.111     6.374
     3   6 C        3.761    -0.109    22.623     6.780
     4   6 C        2.979    -0.001    28.046     8.687
     5   6 C        2.926    -0.033    28.812     8.803
     6   6 C        2.917    -0.032    28.796     8.800
     7   6 C        2.918    -0.028    28.693     8.784
     8   6 C        2.922    -0.049    29.206     8.862
     9   6 C        2.929     0.059    26.675     8.470
    10   7 N        2.753    -0.019    21.626     6.907
    11   6 C        2.927     0.057    26.714     8.476
    12   6 C        2.919    -0.037    28.916     8.818
    13   6 C        2.922    -0.022    28.555     8.763
    14   6 C        2.973    -0.005    28.145     8.702
    15   6 C        2.832     0.196    23.831     8.000
    16   8 O        0.857    -0.477    23.274     6.468
    17   6 C        2.941     0.067    26.511     8.445
    18   6 C        2.915    -0.046    29.150     8.853
    19   6 C        2.921    -0.019    28.487     8.752
    20   6 C        2.916    -0.043    29.077     8.842
    21   6 C        2.938     0.069    26.463     8.437
    22   6 C        2.832     0.184    24.063     8.038
    23   8 O        0.857    -0.499    23.761     6.535
    24   6 C        2.969    -0.011    28.281     8.723
    25   6 C        2.920    -0.030    28.754     8.793
    26   6 C        2.916    -0.040    29.000     8.831
    27   6 C        2.924     0.054    26.790     8.488
    28   7 N        2.754    -0.025    21.723     6.922
    29   6 C        2.929     0.059    26.684     8.471
    30   6 C        2.921    -0.050    29.231     8.866
    31   6 C        2.919    -0.029    28.717     8.788
    32   6 C        2.918    -0.033    28.819     8.803
    33   6 C        2.923    -0.036    28.901     8.816
    34   6 C        2.983    -0.002    28.078     8.692
    35   6 C        3.910     0.024    20.114     6.375
    36   6 C        3.758    -0.113    22.712     6.794
    37   6 C        3.766    -0.102    22.496     6.760
    38   6 C        2.982    -0.001    28.056     8.689
    39   6 C        2.923    -0.036    28.892     8.815
    40   6 C        2.918    -0.032    28.804     8.801
    41   6 C        2.918    -0.029    28.720     8.788
    42   6 C        2.921    -0.046    29.147     8.853
    43   6 C        2.939     0.058    26.691     8.473
    44   6 C        2.919    -0.038    28.947     8.823
    45   6 C        2.924    -0.024    28.611     8.772
    46   7 N        1.851    -0.250    27.363     7.753
    47   6 C        2.922    -0.023    28.579     8.767
    48   6 C        2.918    -0.037    28.919     8.819
    49   6 C        2.926     0.060    26.657     8.467
    50   6 C        2.923    -0.048    29.197     8.861
    51   6 C        2.919    -0.029    28.716     8.787
    52   6 C        2.917    -0.032    28.805     8.801
    53   6 C        2.926    -0.033    28.819     8.804
    54   6 C        2.979    -0.001    28.055     8.688
    55   1 H        0.925     0.041     2.437     2.441
    56   1 H        0.925     0.052     2.297     2.370
    57   1 H        0.925     0.052     2.292     2.367
    58   1 H        0.925     0.052     2.300     2.372
    59   1 H        0.925     0.036     2.505     2.475
    60   1 H        0.925     0.052     2.290     2.366
    61   1 H        0.926     0.051     2.306     2.375
    62   1 H        0.926     0.043     2.407     2.426
    63   1 H        0.926     0.040     2.444     2.445
    64   1 H        0.926     0.039     2.466     2.456
    65   1 H        0.926     0.054     2.275     2.358
    66   1 H        0.926     0.047     2.356     2.400
    67   1 H        0.926     0.038     2.472     2.459
    68   1 H        0.926     0.040     2.449     2.447
    69   1 H        0.926     0.039     2.464     2.455
    70   1 H        0.926     0.040     2.447     2.446
    71   1 H        0.926     0.047     2.354     2.399
    72   1 H        0.926     0.042     2.428     2.437
    73   1 H        0.926     0.036     2.509     2.477
    74   1 H        0.926     0.044     2.394     2.420
    75   1 H        0.926     0.056     2.245     2.343
    76   1 H        0.925     0.052     2.296     2.370
    77   1 H        0.925     0.050     2.316     2.380
    78   1 H        0.925     0.044     2.402     2.424
    79   1 H        0.925     0.048     2.339     2.392
    80   1 H        0.925     0.051     2.304     2.374
    81   1 H        0.925     0.037     2.490     2.468
    82   1 H        0.926     0.055     2.262     2.352
    83   1 H        0.926     0.043     2.415     2.430
    84   1 H        0.926     0.039     2.462     2.454
    85   1 H        0.926     0.035     2.511     2.478
    86   1 H        0.926     0.047     2.364     2.404
    87   1 H        0.926     0.046     2.367     2.406
    88   1 H        0.926     0.036     2.509     2.477
    89   1 H        0.926     0.051     2.310     2.377
    90   1 H        0.926     0.037     2.487     2.466
    91   1 H        0.926     0.038     2.479     2.462
    92   1 H        0.926     0.046     2.365     2.405
    93   1 H        0.926     0.053     2.287     2.365

molecular dipole:
                 x           y           z       tot (Debye)
 q only:        9.042      -1.505       0.407
   full:        8.122      -1.363       0.376      20.955

 projected vibrational frequencies (cm⁻¹)
eigval :       -0.00    -0.00    -0.00     0.00     0.00     0.00
eigval :        9.72    13.98    23.41    24.66    30.06    32.39
eigval :       34.34    41.72    46.65    53.17    61.71    68.60
eigval :       71.47    81.85   104.66   106.86   107.80   114.43
eigval :      122.35   125.62   134.69   138.95   156.45   160.65
eigval :      169.00   171.02   174.87   190.46   204.64   208.74
eigval :      217.58   227.74   238.08   240.95   257.49   267.24
eigval :      276.14   287.02   298.83   303.39   309.22   314.51
eigval :      330.50   331.94   342.02   345.30   363.73   365.36
eigval :      374.46   377.54   381.03   383.31   385.17   394.53
eigval :      403.30   408.41   411.17   417.67   443.64   444.00
eigval :      448.76   456.80   472.52   477.32   502.40   504.56
eigval :      506.75   515.96   534.97   540.87   544.07   545.41
eigval :      558.11   559.74   570.78   579.74   585.87   591.02
eigval :      594.67   605.06   609.55   611.67   632.13   644.24
eigval :      662.81   668.89   678.35   688.04   688.90   690.62
eigval :      698.69   702.49   707.38   711.30   727.06   741.61
eigval :      764.81   769.45   773.12   775.51   780.93   804.17
eigval :      810.40   811.91   817.69   826.55   843.38   858.68
eigval :      862.75   868.60   870.14   874.38   880.10   884.16
eigval :      903.46   904.58   905.94   909.19   909.72   912.72
eigval :      914.09   914.40   918.66   919.28   921.98   922.90
eigval :      925.13   925.92   929.70   931.71   935.81   937.77
eigval :      938.70   958.89   965.79   984.26   987.76  1003.59
eigval :     1012.52  1015.77  1023.31  1071.93  1073.75  1080.90
eigval :     1083.33  1091.41  1106.00  1108.09  1112.98  1113.92
eigval :     1121.41  1129.63  1134.03  1138.47  1139.51  1143.09
eigval :     1148.54  1161.87  1166.45  1172.31  1175.63  1178.65
eigval :     1182.14  1183.39  1184.15  1187.11  1189.17  1196.11
eigval :     1212.79  1223.63  1237.94  1239.74  1243.12  1251.78
eigval :     1254.68  1258.57  1259.60  1260.48  1262.37  1267.35
eigval :     1279.04  1292.76  1295.03  1304.04  1304.89  1306.75
eigval :     1317.94  1320.28  1326.84  1327.33  1331.11  1333.37
eigval :     1334.02  1356.35  1391.06  1396.49  1398.70  1401.80
eigval :     1408.46  1415.83  1417.46  1418.05  1423.88  1428.05
eigval :     1432.07  1446.17  1449.55  1453.31  1453.91  1460.44
eigval :     1468.11  1474.36  1479.44  1480.95  1481.93  1486.40
eigval :     1490.83  1495.13  1495.28  1499.01  1516.50  1522.97
eigval :     1533.29  1552.51  1555.01  1557.03  1563.61  1564.90
eigval :     1569.90  1575.22  1577.26  1577.87  1587.05  1588.93
eigval :     3028.11  3030.26  3035.34  3037.62  3041.89  3041.92
eigval :     3043.28  3049.25  3051.39  3056.58  3059.75  3060.55
eigval :     3063.16  3073.45  3080.70  3080.88  3082.24  3083.94
eigval :     3085.33  3086.01  3087.57  3090.76  3091.75  3092.49
eigval :     3092.56  3094.11  3096.14  3096.37  3097.71  3098.21
eigval :     3102.27  3103.06  3105.32  3106.47  3110.43  3114.80
eigval :     3120.91  3124.39  3126.34

   temp. (K)  partition function   enthalpy   heat capacity  entropy
                                   cal/mol     cal/K/mol   cal/K/mol   J/K/mol
 298.15  VIB  0.248E+21            27193.091    171.217    167.751
         ROT  0.866E+08              888.752      2.981     39.302
         INT  0.214E+29            28081.843    174.198    207.053
         TR   0.180E+29             1481.254      4.968     45.506
         TOT                       29563.0970   179.1662   252.5588  1056.7062

       T/K    H(0)-H(T)+PV         H(T)/Eh          T*S/Eh         G(T)/Eh
   ------------------------------------------------------------------------
    298.15    0.471118E-01    0.773354E+00    0.119999E+00    0.653355E+00
   ------------------------------------------------------------------------

         :::::::::::::::::::::::::::::::::::::::::::::::::::::
         ::                  THERMODYNAMIC                  ::
         :::::::::::::::::::::::::::::::::::::::::::::::::::::
         :: total free energy        -141.098068364409 Eh   ::
         ::.................................................::
         :: total energy             -141.751423145210 Eh   ::
         :: zero point energy           0.726241838586 Eh   ::
         :: G(RRHO) w/o ZPVE           -0.072887057785 Eh   ::
         :: G(RRHO) contrib.            0.653354780801 Eh   ::
         :::::::::::::::::::::::::::::::::::::::::::::::::::::

           -------------------------------------------------
          | TOTAL ENERGY             -141.751423145210 Eh   |
          | TOTAL ENTHALPY           -140.978069512804 Eh   |
          | TOTAL FREE ENERGY        -141.098068364409 Eh   |
          | GRADIENT NORM               0.000078494730 Eh/α |
          | HOMO-LUMO GAP               0.031081597929 eV   |
           -------------------------------------------------

 * finished run on 2025/09/07 at 03:35:47.130
