   * xtb version 6.7.1 (edcfbbe) compiled by 'albert@albert-system' on 2024-07-22

   ID    Z sym.   atoms
    1    6 C      1-9, 11-15, 17-22, 24-27, 29-45, 47-54
    2    7 N      10, 28, 46
    3    8 O      16, 23
    4    1 H      55-93

          program call               : xtb data2507/toluene/26DAcBPy/26DAcBPy_toluene_S0_finalOpt.xtbopt.xyz --gfn 2 --uhf 2 --gbsa toluene --ohess vtight --parallel 40 --molden --ceasefiles --namespace data2507/toluene/26DAcBPy/26DAcBPy_toluene_T1_preOpt
      * Solvation model:               GBSA
        Solvent                        toluene
        Solvent mass                       9.2140E+01 g/mol
          :  Hamiltonian                  GFN2-xTB          :
 * total energy  :  -141.7474261 Eh     change       -0.2287862E-08 Eh
 * total energy  :  -141.7498298 Eh     change       -0.2403663E-02 Eh
 * total energy  :  -141.7504922 Eh     change       -0.6624334E-03 Eh
 * total energy  :  -141.7505978 Eh     change       -0.1055247E-03 Eh
 * total energy  :  -141.7506777 Eh     change       -0.7990115E-04 Eh
 * total energy  :  -141.7507255 Eh     change       -0.4788614E-04 Eh
 * total energy  :  -141.7507575 Eh     change       -0.3200875E-04 Eh
 * total energy  :  -141.7507782 Eh     change       -0.2066911E-04 Eh
 * total energy  :  -141.7507991 Eh     change       -0.2084048E-04 Eh
 * total energy  :  -141.7508223 Eh     change       -0.2328756E-04 Eh
 * total energy  :  -141.7513816 Eh     change       -0.3614183E-05 Eh
 * total energy  :  -141.7513845 Eh     change       -0.2844185E-05 Eh
 * total energy  :  -141.7513868 Eh     change       -0.2334911E-05 Eh
 * total energy  :  -141.7513890 Eh     change       -0.2162855E-05 Eh
 * total energy  :  -141.7513911 Eh     change       -0.2082782E-05 Eh
 * total energy  :  -141.7513930 Eh     change       -0.1926833E-05 Eh
 * total energy  :  -141.7513946 Eh     change       -0.1632183E-05 Eh
 * total energy  :  -141.7513959 Eh     change       -0.1272341E-05 Eh
 * total energy  :  -141.7513959 Eh     change       -0.4638480E-08 Eh
   *** GEOMETRY OPTIMIZATION CONVERGED AFTER 94 ITERATIONS ***

 final structure:
================
93
 xtb: 6.7.1 (edcfbbe)
C            4.29899840214065       -3.49549275195055        0.56010908982691
C            3.04638204287857       -3.72307314390066        1.42737847788416
C            3.43967798874668       -4.36964276522384        2.77118576530699
C            2.10990740292154       -4.66407229863302        0.70248471082197
C            2.53026663880865       -5.95385104367804        0.40460796919734
C            1.70024198779458       -6.87143059519450       -0.21194464049539
C            0.39840100402238       -6.50922451869539       -0.52408089676865
C           -0.04236198074039       -5.23382090266165       -0.25123965490645
C            0.80973144108323       -4.28490599010960        0.33396657036608
N            0.35054329239838       -2.99921217439036        0.56273075247587
C           -0.92571078703765       -2.63419716957540        0.05639798414010
C           -1.14158101159518       -2.59018441388087       -1.31996916852298
C           -2.38475412090651       -2.25801187623767       -1.81575202567365
C           -3.42719403435651       -1.91810290015729       -0.95113665025408
C           -4.75196026074146       -1.54670493948831       -1.48502474558049
O           -5.26467213728595       -2.12502575451034       -2.45475225273880
C           -5.40185669908833       -0.41762110370479       -0.80493527915000
C           -6.78836696975791       -0.20536952826126       -0.86246556193336
C           -7.31227768642511        0.88662831603338       -0.18650557153378
C           -6.46523014287415        1.74863365457796        0.48412138070227
C           -5.07794780330643        1.50407776287776        0.43682806041589
C           -4.13507583850291        2.41474679309527        1.09487784986183
O           -4.51663144361608        3.17371785812867        2.01239176079107
C           -2.74210275845034        2.42374582604385        0.63825373452848
C           -2.35331225947489        2.02118235180303       -0.64555499793340
C           -1.04020781193582        2.11470707355297       -1.05252637670424
C           -0.06568412869503        2.60527232166126       -0.18316825516119
N            1.29172455092704        2.74580577648643       -0.56642755126449
C            2.08296419213500        1.66063243104201       -0.90790235112774
C            1.52022141814349        0.40901173479835       -1.17628215573235
C            2.30878425717578       -0.63445467869055       -1.61185533217829
C            3.66899440740529       -0.44899493939682       -1.78752107034115
C            4.24250794192548        0.76785911396561       -1.45816160521300
C            3.47928105429525        1.82744753990791       -0.99741196535265
C            4.09230390343103        3.10646673009750       -0.46524471794573
C            5.51889208271147        3.33865353617741       -0.96742246286277
C            4.13750502023877        2.97003786911159        1.07537666234888
C            3.16772277507670        4.26068110335903       -0.78469782464564
C            3.61496622199256        5.54871868390335       -1.03274497649638
C            2.73035960756759        6.59939779410009       -1.21233908924307
C            1.36504765546554        6.37219791387447       -1.14315854207000
C            0.89261876412919        5.09790763602104       -0.91386053828273
C            1.78237457537248        4.03282442049426       -0.73510092347129
C           -0.44739594453967        3.04554363334274        1.08657773812035
C           -1.76069967609670        2.96308879532750        1.48532123162041
N           -4.59350925453323        0.43008457264477       -0.17543073840454
C           -3.20452232486390       -1.97079710313868        0.42735156599443
C           -1.97419924206621       -2.34075469411544        0.92655594414533
C            1.10157190088321       -2.07171909261237        1.26381466145933
C            0.57987224341555       -0.79604091306993        1.52364622038865
C            1.30328300286323        0.13462311033771        2.23438266463531
C            2.57723427450181       -0.17405855105247        2.68264550834918
C            3.11003986147336       -1.41780325305088        2.40146550981538
C            2.39869033062680       -2.38356093055818        1.70260899130918
H            4.01213394753835       -3.04551658797756       -0.38700309826609
H            4.80421302476064       -4.43575526678497        0.36033654841121
H            4.99641582301898       -2.82986348885618        1.05941599660072
H            3.92005726964262       -5.33014188836520        2.61211615903426
H            2.55274191602542       -4.52584137285707        3.38246280670209
H            4.12731662754854       -3.73362656229939        3.31989976100551
H            3.53271999110416       -6.25757914284870        0.66188160742155
H            2.05912015749734       -7.86493518076794       -0.43266021166793
H           -0.27503657894247       -7.22094070195594       -0.97696024046259
H           -1.06054989503708       -4.96536281365175       -0.48344059879090
H           -0.33411453993776       -2.82828150287435       -1.99631678762380
H           -2.56456560113456       -2.23414406954840       -2.88043080698750
H           -7.40488284991312       -0.90122111033889       -1.40934685410575
H           -8.37855544534693        1.06457039720286       -0.18748351095622
H           -6.82119347764085        2.61249348498956        1.02362117659770
H           -3.09487166004187        1.65548920905375       -1.33747568112874
H           -0.77292206206448        1.84830065261862       -2.06468488352677
H            0.46151993457242        0.25756561336899       -1.05304408356378
H            1.85554049354619       -1.58971262499283       -1.82652654428729
H            4.28868860539331       -1.24951516196341       -2.16153564990143
H            5.30875674054341        0.87523833608273       -1.56282538715968
H            6.16188858553165        2.51398914733454       -0.67489942195681
H            5.93482582596705        4.23561710453737       -0.51825107115939
H            5.53785131634617        3.44091451851216       -2.05000852713947
H            4.51869634686639        3.88756694123233        1.51791683334371
H            4.78831274856777        2.14453706438566        1.35269485584542
H            3.14507238834193        2.77553844498540        1.47390790741280
H            4.67093070760712        5.75457489556660       -1.08362010838782
H            3.10723770128684        7.59276269950441       -1.40227198646603
H            0.66697439881179        7.18425395823348       -1.27948107503400
H           -0.17038171932682        4.91462818884103       -0.88809102732504
H            0.29680935015953        3.46775181722774        1.74674628117352
H           -2.06809222779320        3.30822681944054        2.46180047007731
H           -4.01178417188073       -1.74551822673167        1.10719516122589
H           -1.81890570592902       -2.41065881580446        1.99323981711046
H           -0.40411265441535       -0.53325461443525        1.17096979011369
H            0.86432288511977        1.09932126026114        2.43489009564739
H            3.15126681877568        0.54776871151996        3.24237058499422
H            4.10915169979022       -1.63887688539034        2.74171767596567

          :  Hamiltonian                  GFN2-xTB          :
         :: gradient norm              0.000060325221 Eh/a0 ::
         :: HOMO-LUMO gap              0.031742158769 eV    ::
         :: SCC energy              -144.196172845619 Eh    ::
         :: -> dispersion             -0.143899235821 Eh    ::
         :: -> Gsolv                  -0.072390251987 Eh    ::
         :: repulsion energy           2.444776949978 Eh    ::

    * Orbital Energies and Occupations

         #    Occupation            Energy/Eh            Energy/eV
      -------------------------------------------------------------
         1        2.0000           -0.6896787             -18.7671
       ...           ...                  ...                  ...
       120        2.0000           -0.4132142             -11.2441
       121        2.0000           -0.4121648             -11.2156
       122        2.0000           -0.4111289             -11.1874
       123        2.0000           -0.4100911             -11.1591
       124        2.0000           -0.4081932             -11.1075
       125        2.0000           -0.4069085             -11.0725
       126        2.0000           -0.4048249             -11.0158
       127        2.0000           -0.3989442             -10.8558
       128        2.0000           -0.3788573             -10.3092
       129        1.9062           -0.3654297              -9.9438
       130        1.5936           -0.3636355              -9.8950
       131        1.5002           -0.3632762              -9.8852
       132        0.6489           -0.2892227              -7.8702 (HOMO)
       133        0.3511           -0.2880560              -7.8384 (LUMO)
       134                         -0.2465168              -6.7081
       135                         -0.2419021              -6.5825
       136                         -0.2414727              -6.5708
       137                         -0.2397213              -6.5231
       138                         -0.2378245              -6.4715
       139                         -0.2341240              -6.3708
       140                         -0.2333219              -6.3490
       141                         -0.2323650              -6.3230
       142                         -0.2308479              -6.2817
       143                         -0.2282974              -6.2123
       ...                                ...                  ...
       255                          0.6808008              18.5255
      -------------------------------------------------------------
                  HL-Gap            0.0011667 Eh            0.0317 eV

     #   Z          covCN         q      C6AA      α(0)
     1   6 C        3.761    -0.109    22.640     6.783
     2   6 C        3.910     0.024    20.111     6.374
     3   6 C        3.761    -0.109    22.622     6.780
     4   6 C        2.979    -0.001    28.044     8.687
     5   6 C        2.926    -0.033    28.811     8.803
     6   6 C        2.917    -0.032    28.796     8.800
     7   6 C        2.918    -0.028    28.694     8.784
     8   6 C        2.922    -0.049    29.208     8.863
     9   6 C        2.929     0.059    26.677     8.470
    10   7 N        2.753    -0.019    21.619     6.906
    11   6 C        2.927     0.057    26.712     8.476
    12   6 C        2.919    -0.037    28.916     8.818
    13   6 C        2.922    -0.022    28.556     8.763
    14   6 C        2.973    -0.005    28.142     8.702
    15   6 C        2.832     0.196    23.826     7.999
    16   8 O        0.857    -0.476    23.262     6.467
    17   6 C        2.941     0.066    26.512     8.445
    18   6 C        2.915    -0.046    29.153     8.854
    19   6 C        2.921    -0.019    28.487     8.752
    20   6 C        2.916    -0.043    29.077     8.842
    21   6 C        2.938     0.069    26.466     8.437
    22   6 C        2.832     0.184    24.065     8.039
    23   8 O        0.857    -0.499    23.765     6.536
    24   6 C        2.969    -0.011    28.280     8.723
    25   6 C        2.920    -0.030    28.755     8.794
    26   6 C        2.916    -0.040    29.003     8.831
    27   6 C        2.924     0.054    26.790     8.488
    28   7 N        2.753    -0.025    21.722     6.922
    29   6 C        2.928     0.059    26.685     8.472
    30   6 C        2.921    -0.050    29.234     8.867
    31   6 C        2.919    -0.029    28.724     8.789
    32   6 C        2.918    -0.033    28.823     8.804
    33   6 C        2.923    -0.036    28.902     8.816
    34   6 C        2.983    -0.002    28.080     8.692
    35   6 C        3.910     0.024    20.114     6.375
    36   6 C        3.758    -0.113    22.713     6.795
    37   6 C        3.766    -0.103    22.501     6.761
    38   6 C        2.982    -0.001    28.055     8.688
    39   6 C        2.923    -0.036    28.892     8.815
    40   6 C        2.918    -0.032    28.804     8.801
    41   6 C        2.918    -0.029    28.721     8.788
    42   6 C        2.921    -0.046    29.146     8.853
    43   6 C        2.939     0.058    26.693     8.473
    44   6 C        2.919    -0.038    28.947     8.823
    45   6 C        2.924    -0.024    28.612     8.772
    46   7 N        1.851    -0.250    27.359     7.752
    47   6 C        2.922    -0.023    28.577     8.766
    48   6 C        2.918    -0.037    28.918     8.818
    49   6 C        2.926     0.060    26.659     8.467
    50   6 C        2.922    -0.048    29.198     8.861
    51   6 C        2.919    -0.029    28.725     8.789
    52   6 C        2.917    -0.032    28.805     8.801
    53   6 C        2.926    -0.033    28.820     8.804
    54   6 C        2.979    -0.001    28.055     8.688
    55   1 H        0.925     0.042     2.428     2.437
    56   1 H        0.925     0.052     2.297     2.370
    57   1 H        0.925     0.052     2.294     2.369
    58   1 H        0.925     0.052     2.300     2.372
    59   1 H        0.925     0.036     2.507     2.476
    60   1 H        0.925     0.052     2.291     2.367
    61   1 H        0.926     0.051     2.305     2.374
    62   1 H        0.926     0.043     2.407     2.426
    63   1 H        0.926     0.040     2.443     2.444
    64   1 H        0.926     0.039     2.463     2.454
    65   1 H        0.926     0.054     2.270     2.356
    66   1 H        0.926     0.047     2.356     2.400
    67   1 H        0.926     0.038     2.472     2.459
    68   1 H        0.926     0.040     2.450     2.448
    69   1 H        0.926     0.039     2.464     2.455
    70   1 H        0.926     0.040     2.447     2.446
    71   1 H        0.926     0.047     2.354     2.399
    72   1 H        0.926     0.042     2.428     2.437
    73   1 H        0.926     0.036     2.507     2.476
    74   1 H        0.926     0.044     2.400     2.422
    75   1 H        0.926     0.056     2.244     2.342
    76   1 H        0.925     0.052     2.296     2.369
    77   1 H        0.925     0.050     2.316     2.380
    78   1 H        0.925     0.044     2.402     2.424
    79   1 H        0.925     0.049     2.338     2.391
    80   1 H        0.925     0.051     2.304     2.374
    81   1 H        0.925     0.037     2.488     2.466
    82   1 H        0.926     0.055     2.261     2.352
    83   1 H        0.926     0.043     2.415     2.430
    84   1 H        0.926     0.039     2.462     2.454
    85   1 H        0.926     0.035     2.511     2.478
    86   1 H        0.926     0.047     2.361     2.403
    87   1 H        0.926     0.046     2.367     2.406
    88   1 H        0.926     0.035     2.510     2.477
    89   1 H        0.926     0.051     2.310     2.377
    90   1 H        0.926     0.037     2.489     2.467
    91   1 H        0.926     0.038     2.474     2.460
    92   1 H        0.926     0.046     2.364     2.404
    93   1 H        0.926     0.053     2.287     2.365

molecular dipole:
                 x           y           z       tot (Debye)
 q only:        9.075      -1.302       0.445
   full:        8.150      -1.181       0.412      20.958

 projected vibrational frequencies (cm⁻¹)
eigval :       -0.00     0.00     0.00     0.00     0.00     0.00
eigval :       12.72    17.58    24.95    28.31    30.45    33.13
eigval :       36.22    44.55    53.77    54.97    64.28    71.08
eigval :       73.24    85.34   106.11   108.52   109.21   114.92
eigval :      122.19   127.19   135.39   139.27   157.20   160.71
eigval :      169.99   171.40   175.55   189.16   208.85   211.26
eigval :      218.17   228.34   238.06   241.82   261.05   267.88
eigval :      276.06   288.31   299.64   303.83   309.63   315.47
eigval :      331.01   333.12   342.21   346.26   364.16   365.76
eigval :      374.38   378.02   381.33   383.81   385.75   394.87
eigval :      402.57   408.51   411.45   417.89   444.24   444.29
eigval :      448.44   456.55   472.66   476.78   503.10   504.78
eigval :      506.73   515.82   535.06   541.08   543.88   546.22
eigval :      558.07   559.82   571.22   579.86   585.91   590.66
eigval :      594.50   605.21   609.94   612.13   632.14   644.65
eigval :      663.05   669.06   678.47   688.40   688.94   690.74
eigval :      698.83   702.47   707.24   711.54   727.09   741.72
eigval :      764.64   769.69   773.53   776.34   779.85   803.51
eigval :      808.51   812.84   817.61   826.99   843.48   853.92
eigval :      863.47   868.89   869.43   875.17   879.96   881.84
eigval :      902.32   905.00   906.36   907.68   909.94   911.89
eigval :      912.81   914.03   915.23   915.71   918.61   922.29
eigval :      925.20   926.07   929.92   932.09   936.38   937.88
eigval :      938.95   959.44   966.81   984.30   988.30  1005.53
eigval :     1013.33  1015.56  1023.18  1072.53  1073.95  1081.16
eigval :     1083.35  1091.43  1106.21  1108.84  1113.25  1113.92
eigval :     1123.93  1130.81  1132.87  1138.75  1139.70  1143.43
eigval :     1148.74  1160.61  1167.63  1171.24  1175.28  1178.87
eigval :     1182.28  1183.58  1184.44  1187.01  1189.22  1196.00
eigval :     1212.32  1221.89  1238.01  1239.48  1243.29  1252.05
eigval :     1254.27  1258.45  1259.63  1260.82  1262.52  1267.20
eigval :     1278.81  1292.66  1294.27  1303.58  1304.10  1306.45
eigval :     1317.98  1320.57  1326.93  1327.37  1331.03  1333.27
eigval :     1333.95  1356.45  1392.69  1396.63  1398.93  1401.35
eigval :     1409.15  1416.18  1417.36  1417.92  1423.83  1427.93
eigval :     1432.70  1445.86  1449.52  1452.99  1453.71  1461.09
eigval :     1468.22  1474.76  1479.73  1481.22  1481.92  1487.67
eigval :     1491.98  1495.13  1496.08  1499.06  1516.40  1522.68
eigval :     1533.38  1552.57  1555.27  1556.91  1563.31  1565.00
eigval :     1569.95  1575.27  1577.48  1577.79  1587.41  1588.79
eigval :     3027.81  3030.68  3035.64  3037.61  3041.95  3044.00
eigval :     3045.16  3049.37  3051.96  3056.70  3059.66  3061.09
eigval :     3063.43  3073.07  3081.25  3081.34  3082.61  3083.95
eigval :     3084.52  3085.69  3087.42  3090.40  3092.22  3092.40
eigval :     3092.48  3094.16  3096.16  3096.69  3097.90  3099.07
eigval :     3102.19  3102.95  3105.17  3106.59  3111.29  3113.93
eigval :     3120.99  3124.47  3130.94

   temp. (K)  partition function   enthalpy   heat capacity  entropy
                                   cal/mol     cal/K/mol   cal/K/mol   J/K/mol
 298.15  VIB  0.756E+20            27115.326    171.610    166.641
         ROT  0.855E+08              888.752      2.981     39.277
         INT  0.647E+28            28004.078    174.591    205.918
         TR   0.180E+29             1481.254      4.968     45.506
         TOT                       29485.3323   179.5591   251.4237  1051.9568

       T/K    H(0)-H(T)+PV         H(T)/Eh          T*S/Eh         G(T)/Eh
   ------------------------------------------------------------------------
    298.15    0.469879E-01    0.773404E+00    0.119460E+00    0.653944E+00
   ------------------------------------------------------------------------

         :::::::::::::::::::::::::::::::::::::::::::::::::::::
         ::                  THERMODYNAMIC                  ::
         :::::::::::::::::::::::::::::::::::::::::::::::::::::
         :: total free energy        -141.097451574129 Eh   ::
         ::.................................................::
         :: total energy             -141.751395894784 Eh   ::
         :: zero point energy           0.726415975170 Eh   ::
         :: G(RRHO) w/o ZPVE           -0.072471654515 Eh   ::
         :: G(RRHO) contrib.            0.653944320655 Eh   ::
         :::::::::::::::::::::::::::::::::::::::::::::::::::::

           -------------------------------------------------
          | TOTAL ENERGY             -141.751395894784 Eh   |
          | TOTAL ENTHALPY           -140.977992051729 Eh   |
          | TOTAL FREE ENERGY        -141.097451574129 Eh   |
          | GRADIENT NORM               0.000060749367 Eh/α |
          | HOMO-LUMO GAP               0.031746461395 eV   |
           -------------------------------------------------

 * finished run on 2025/09/07 at 03:23:47.631
