   * xtb version 6.7.1 (edcfbbe) compiled by 'albert@albert-system' on 2024-07-22

   ID    Z sym.   atoms
    1    6 C      1-9, 11-15, 17-22, 24-27, 29-45, 47-54
    2    7 N      10, 28, 46
    3    8 O      16, 23
    4    1 H      55-93

          program call               : xtb data2507/toluene/26DAcBPy/26DAcBPy.xyz --gfn 2 --gbsa toluene --ohess vtight --parallel 40 --molden --ceasefiles --namespace data2507/toluene/26DAcBPy/26DAcBPy_toluene_S0_preOpt
      * Solvation model:               GBSA
        Solvent                        toluene
        Solvent mass                       9.2140E+01 g/mol
          :  Hamiltonian                  GFN2-xTB          :
 * total energy  :  -141.7788271 Eh     change       -0.2253898E-08 Eh
 * total energy  :  -141.7986223 Eh     change       -0.1979523E-01 Eh
 * total energy  :  -141.8055503 Eh     change       -0.6928044E-02 Eh
 * total energy  :  -141.8069349 Eh     change       -0.1384580E-02 Eh
 * total energy  :  -141.8078038 Eh     change       -0.8688498E-03 Eh
 * total energy  :  -141.8082791 Eh     change       -0.4753428E-03 Eh
 * total energy  :  -141.8086762 Eh     change       -0.3970571E-03 Eh
 * total energy  :  -141.8091361 Eh     change       -0.4599106E-03 Eh
 * total energy  :  -141.8096435 Eh     change       -0.5074572E-03 Eh
 * total energy  :  -141.8100369 Eh     change       -0.3933574E-03 Eh
 * total energy  :  -141.8108586 Eh     change       -0.1469069E-05 Eh
 * total energy  :  -141.8108598 Eh     change       -0.1214177E-05 Eh
 * total energy  :  -141.8108611 Eh     change       -0.1275895E-05 Eh
 * total energy  :  -141.8108620 Eh     change       -0.9223310E-06 Eh
 * total energy  :  -141.8108626 Eh     change       -0.6257435E-06 Eh
 * total energy  :  -141.8108631 Eh     change       -0.5188340E-06 Eh
 * total energy  :  -141.8108636 Eh     change       -0.4621889E-06 Eh
 * total energy  :  -141.8108640 Eh     change       -0.4292007E-06 Eh
 * total energy  :  -141.8108640 Eh     change       -0.6251867E-08 Eh
   *** GEOMETRY OPTIMIZATION CONVERGED AFTER 68 ITERATIONS ***

 final structure:
================
93
 xtb: 6.7.1 (edcfbbe)
C           -3.72614547009156       -4.21731992273245       -0.11922763919560
C           -4.00969797470023       -3.04263635454035        0.83553045092066
C           -4.68019698859391       -3.55317124334063        2.12539532194252
C           -4.95547668648210       -2.07649416752578        0.15020732483170
C           -6.22966647119573       -2.50438102044889       -0.20119126778267
C           -7.15261809470172       -1.66100960145797       -0.79035110622228
C           -6.81006918814653       -0.33952745948425       -1.01559363438223
C           -5.54920381891920        0.10873620023277       -0.68248608134097
C           -4.59693155321003       -0.75444755334822       -0.13001532122044
N           -3.32789659411312       -0.27143383369790        0.17904148378993
C           -2.96362284805025        1.01233184774898       -0.27819379281044
C           -2.90610116663115        1.27223469417089       -1.64853731759402
C           -2.55536344444938        2.52420914626926       -2.10252797604663
C           -2.23062831989637        3.54359954292256       -1.20261119644068
C           -1.86169243824353        4.86479606339731       -1.73560523888506
O           -2.25419726543735        5.27581267936191       -2.81672985194030
C           -0.94357244435924        5.69523523179975       -0.89851988367714
C           -0.97687790113374        7.08813856163395       -0.98104574616868
C           -0.09802720850901        7.81829685137998       -0.19718278887949
C            0.78848459856805        7.13805722071821        0.62202774404579
C            0.77093858661956        5.74236450756699        0.60974883741332
C            1.69987129449884        4.96794227345224        1.48766576316551
O            2.08402249280264        5.43997592755123        2.54691329062800
C            2.09637039701003        3.62922938555387        1.02297463583070
C            2.16313319461572        3.29669397741423       -0.33148701923006
C            2.57089144957093        2.03801709263352       -0.72129422735036
C            2.90871867382521        1.07635688867205        0.23098642028496
N            3.32120379137242       -0.21468552439669       -0.15937511896477
C            2.42483049699340       -1.06729536933173       -0.80248040600194
C            1.14651170892489       -0.61596882246736       -1.14193412320770
C            0.23750841278460       -1.44370467937201       -1.76567751798970
C            0.58174999828950       -2.75086529242633       -2.05464862956779
C            1.83561322498322       -3.20898377503223       -1.69823848829475
C            2.77223841811855       -2.39518926899284       -1.07377696300491
C            4.11659065840135       -2.98309045639164       -0.68968178023151
C            4.80320603056954       -3.51992070936337       -1.96030768303739
C            3.88748790958284       -4.12600913544585        0.31674394120445
C            5.02251767971894       -1.94770155285350       -0.05349828542421
C            6.31440732299929       -2.30583539225390        0.31124601582931
C            7.20387892656948       -1.39834992971582        0.85476866408975
C            6.80820831583479       -0.08260143525756        1.01762758994333
C            5.52891755912559        0.29723138988345        0.67002795224315
C            4.61053214593662       -0.62957015121162        0.16518129280272
C            2.85238837517272        1.40927356426707        1.58568029009412
C            2.46193023290693        2.67146358368900        1.97389051918980
N           -0.08251188765642        5.04405782474256       -0.12745266744993
C           -2.30307382769334        3.28510406321368        0.16752712327314
C           -2.67245257803269        2.03657366846400        0.62274935959386
C           -2.40131433364244       -1.05318240490286        0.86756719120932
C           -1.14608877069749       -0.53202930875133        1.19302988848786
C           -0.20701311241640       -1.29058089157149        1.85890848578470
C           -0.49704822741553       -2.59684574954188        2.20559242683212
C           -1.72792120813774       -3.12406071102417        1.86470788104896
C           -2.69407734893394       -2.38074252692533        1.19873921859024
H           -3.03914827188423       -4.92722973208712        0.33266794167888
H           -3.28029921570074       -3.84660410334426       -1.04031266490743
H           -4.64496678121470       -4.74087886243055       -0.36913759109211
H           -4.87756866503379       -2.71818304146418        2.79561692936192
H           -4.04040487515676       -4.26326234457291        2.64115699972691
H           -5.62282038136163       -4.04598659712131        1.90570854829274
H           -6.51577462671942       -3.52755175968081       -0.01131088292967
H           -8.13253046946881       -2.02809211259515       -1.05602197243496
H           -7.52375918752550        0.34726017555343       -1.44642159039770
H           -5.30092042907815        1.14605498673395       -0.84585023576079
H           -3.14462227827499        0.48445758950214       -2.34777692069917
H           -2.50535610004057        2.73357776649633       -3.16091330814481
H           -1.68699192256548        7.56243986123563       -1.64054222851604
H           -0.10376777496267        8.89765301460201       -0.22423856866916
H            1.49306785918510        7.65266391256846        1.25672954627685
H            1.92770003114876        4.03396428721861       -1.08236945803903
H            2.64677898778546        1.79342407808129       -1.77037269265897
H            0.85188227813234        0.39342238567747       -0.90602900297093
H           -0.74067685031048       -1.06244787974670       -2.01638755353703
H           -0.11799373328341       -3.41138913404824       -2.54366612417608
H            2.08667385145985       -4.23672109184548       -1.91142256578612
H            4.19400101020518       -4.28107151946924       -2.43900351098998
H            5.76886494146445       -3.95836607739369       -1.72594344143815
H            4.95788378115417       -2.70767989189554       -2.66866914885926
H            4.82988140173266       -4.59148314562618        0.59231432610562
H            3.23882254105550       -4.88904464037340       -0.10412212044452
H            3.41943082211320       -3.73667057867143        1.21899602168790
H            6.64181297579804       -3.32423799421290        0.16828679448442
H            8.19888421735719       -1.71194839669417        1.13254111351037
H            7.49433169558612        0.65296652709956        1.41098816678085
H            5.23986918928527        1.33055106522008        0.78385551742552
H            3.12518910142567        0.67033863135509        2.32465144704613
H            2.41423420866682        2.93714607916757        3.01966705328559
H           -2.10167014116158        4.07080662523273        0.87820292168498
H           -2.75212479885215        1.84740403073573        1.68297998566226
H           -0.89321545617387        0.47744925099295        0.91252178339357
H            0.75212251356467       -0.85653225913682        2.09713639316763
H            0.22702393168447       -3.20359845786367        2.72771450730548
H           -1.93650610435461       -4.15069859015096        2.12396322488225

          :  Hamiltonian                  GFN2-xTB          :
         :: gradient norm              0.000059362313 Eh/a0 ::
         :: HOMO-LUMO gap              1.060127603712 eV    ::
         :: SCC energy              -144.268630218165 Eh    ::
         :: -> dispersion             -0.138142745270 Eh    ::
         :: -> Gsolv                  -0.055764284484 Eh    ::
         :: repulsion energy           2.457766179500 Eh    ::

    * Orbital Energies and Occupations

         #    Occupation            Energy/Eh            Energy/eV
      -------------------------------------------------------------
         1        2.0000           -0.7220113             -19.6469
       ...           ...                  ...                  ...
       119        2.0000           -0.4090309             -11.1303
       120        2.0000           -0.4079918             -11.1020
       121        2.0000           -0.4077664             -11.0959
       122        2.0000           -0.4051846             -11.0256
       123        2.0000           -0.4042303             -10.9997
       124        2.0000           -0.4037870             -10.9876
       125        2.0000           -0.3997402             -10.8775
       126        2.0000           -0.3973883             -10.8135
       127        2.0000           -0.3941642             -10.7258
       128        2.0000           -0.3906482             -10.6301
       129        2.0000           -0.3877926             -10.5524
       130        2.0000           -0.3497390              -9.5169
       131        2.0000           -0.3496222              -9.5137 (HOMO)
       132                         -0.3106633              -8.4536 (LUMO)
       133                         -0.3083526              -8.3907
       134                         -0.2661744              -7.2430
       135                         -0.2557427              -6.9591
       136                         -0.2428935              -6.6095
       137                         -0.2428138              -6.6073
       138                         -0.2260014              -6.1498
       139                         -0.2250798              -6.1247
       140                         -0.2207530              -6.0070
       141                         -0.2201836              -5.9915
       142                         -0.2189674              -5.9584
       ...                                ...                  ...
       255                          0.6787344              18.4693
      -------------------------------------------------------------
                  HL-Gap            0.0389590 Eh            1.0601 eV

     #   Z          covCN         q      C6AA      α(0)
     1   6 C        3.761    -0.103    22.522     6.765
     2   6 C        3.909     0.022    20.155     6.381
     3   6 C        3.761    -0.105    22.553     6.770
     4   6 C        2.979    -0.011    28.282     8.723
     5   6 C        2.928    -0.037    28.915     8.819
     6   6 C        2.917    -0.044    29.090     8.845
     7   6 C        2.919    -0.034    28.846     8.807
     8   6 C        2.924    -0.058    29.443     8.898
     9   6 C        2.928     0.057    26.728     8.478
    10   7 N        2.752    -0.063    22.461     7.039
    11   6 C        2.926     0.079    26.242     8.401
    12   6 C        2.919    -0.036    28.884     8.813
    13   6 C        2.923    -0.015    28.390     8.738
    14   6 C        2.972    -0.011    28.289     8.724
    15   6 C        2.830     0.225    23.281     7.907
    16   8 O        0.858    -0.405    21.781     6.257
    17   6 C        2.955     0.075    26.324     8.415
    18   6 C        2.917    -0.024    28.612     8.771
    19   6 C        2.924    -0.007    28.188     8.707
    20   6 C        2.917    -0.024    28.611     8.771
    21   6 C        2.955     0.075    26.320     8.415
    22   6 C        2.830     0.224    23.285     7.907
    23   8 O        0.858    -0.406    21.791     6.259
    24   6 C        2.971    -0.011    28.294     8.725
    25   6 C        2.919    -0.019    28.480     8.751
    26   6 C        2.919    -0.037    28.924     8.819
    27   6 C        2.926     0.079    26.240     8.401
    28   7 N        2.752    -0.063    22.455     7.038
    29   6 C        2.924     0.058    26.711     8.475
    30   6 C        2.924    -0.058    29.432     8.897
    31   6 C        2.920    -0.032    28.800     8.801
    32   6 C        2.917    -0.043    29.073     8.842
    33   6 C        2.929    -0.037    28.914     8.818
    34   6 C        2.979    -0.011    28.283     8.724
    35   6 C        3.909     0.022    20.155     6.381
    36   6 C        3.761    -0.105    22.552     6.770
    37   6 C        3.761    -0.103    22.524     6.766
    38   6 C        2.980    -0.011    28.281     8.723
    39   6 C        2.928    -0.037    28.915     8.818
    40   6 C        2.917    -0.044    29.089     8.844
    41   6 C        2.919    -0.034    28.846     8.807
    42   6 C        2.924    -0.058    29.443     8.898
    43   6 C        2.927     0.057    26.728     8.478
    44   6 C        2.919    -0.036    28.884     8.813
    45   6 C        2.923    -0.015    28.389     8.738
    46   7 N        1.846    -0.232    26.933     7.691
    47   6 C        2.920    -0.019    28.476     8.751
    48   6 C        2.919    -0.037    28.922     8.819
    49   6 C        2.924     0.058    26.709     8.475
    50   6 C        2.924    -0.058    29.432     8.897
    51   6 C        2.920    -0.032    28.803     8.801
    52   6 C        2.917    -0.043    29.074     8.842
    53   6 C        2.929    -0.037    28.913     8.818
    54   6 C        2.979    -0.011    28.283     8.724
    55   1 H        0.925     0.043     2.408     2.427
    56   1 H        0.925     0.032     2.564     2.504
    57   1 H        0.925     0.043     2.411     2.428
    58   1 H        0.925     0.031     2.575     2.510
    59   1 H        0.925     0.043     2.404     2.424
    60   1 H        0.925     0.043     2.410     2.428
    61   1 H        0.926     0.036     2.504     2.475
    62   1 H        0.926     0.028     2.608     2.526
    63   1 H        0.926     0.029     2.605     2.524
    64   1 H        0.926     0.026     2.642     2.542
    65   1 H        0.926     0.056     2.251     2.346
    66   1 H        0.926     0.058     2.219     2.329
    67   1 H        0.926     0.065     2.138     2.287
    68   1 H        0.926     0.066     2.131     2.283
    69   1 H        0.926     0.065     2.138     2.287
    70   1 H        0.926     0.047     2.354     2.399
    71   1 H        0.926     0.057     2.238     2.339
    72   1 H        0.926     0.028     2.608     2.526
    73   1 H        0.926     0.025     2.654     2.547
    74   1 H        0.926     0.028     2.611     2.527
    75   1 H        0.926     0.036     2.497     2.471
    76   1 H        0.925     0.043     2.403     2.424
    77   1 H        0.925     0.043     2.410     2.427
    78   1 H        0.925     0.031     2.575     2.510
    79   1 H        0.925     0.043     2.411     2.428
    80   1 H        0.925     0.043     2.407     2.426
    81   1 H        0.925     0.032     2.564     2.504
    82   1 H        0.926     0.036     2.503     2.474
    83   1 H        0.926     0.029     2.608     2.525
    84   1 H        0.926     0.029     2.605     2.524
    85   1 H        0.926     0.026     2.641     2.541
    86   1 H        0.926     0.056     2.252     2.346
    87   1 H        0.926     0.058     2.217     2.328
    88   1 H        0.926     0.047     2.358     2.401
    89   1 H        0.926     0.057     2.237     2.339
    90   1 H        0.926     0.028     2.614     2.528
    91   1 H        0.926     0.025     2.651     2.546
    92   1 H        0.926     0.028     2.614     2.528
    93   1 H        0.926     0.036     2.498     2.472

molecular dipole:
                 x           y           z       tot (Debye)
 q only:        0.043      -1.976       0.043
   full:        0.037      -1.347       0.028       3.425

 projected vibrational frequencies (cm⁻¹)
eigval :       -0.00     0.00     0.00     0.00     0.00     0.00
eigval :       10.42    13.50    18.36    22.56    26.13    33.91
eigval :       34.95    40.40    51.82    54.52    62.28    67.50
eigval :       69.00    79.78   105.34   106.48   109.48   119.56
eigval :      123.54   125.42   126.00   132.09   142.86   158.57
eigval :      162.44   170.43   176.32   186.28   190.26   210.60
eigval :      219.18   222.68   229.65   238.03   238.81   240.65
eigval :      281.70   289.41   303.77   305.69   309.01   316.92
eigval :      334.48   335.21   336.54   345.68   346.67   358.21
eigval :      362.99   377.53   378.22   378.97   384.80   386.10
eigval :      396.50   402.63   409.92   410.31   448.10   456.59
eigval :      459.43   463.43   481.87   485.45   497.29   499.69
eigval :      515.38   515.72   539.98   547.83   548.26   549.70
eigval :      562.05   566.15   578.39   582.62   590.70   595.32
eigval :      604.10   608.63   616.47   627.14   647.50   649.47
eigval :      674.74   681.29   684.58   684.89   695.61   695.74
eigval :      697.15   702.26   725.93   732.65   742.35   746.22
eigval :      773.48   778.00   780.19   782.24   792.30   816.05
eigval :      820.69   821.87   828.27   829.44   863.99   866.77
eigval :      870.49   872.32   873.41   879.53   890.98   903.62
eigval :      910.25   912.41   913.65   914.22   915.04   915.69
eigval :      916.19   917.52   920.42   922.15   924.79   926.95
eigval :      927.89   932.96   933.73   935.24   936.87   938.31
eigval :      942.87   956.14   957.91   984.06  1009.34  1012.33
eigval :     1014.07  1026.31  1026.73  1075.20  1075.97  1083.35
eigval :     1084.22  1104.99  1114.63  1115.16  1119.57  1120.23
eigval :     1132.84  1133.45  1139.85  1140.27  1154.07  1157.72
eigval :     1158.26  1171.06  1171.69  1173.70  1181.49  1183.76
eigval :     1185.49  1186.06  1186.81  1187.40  1191.87  1203.59
eigval :     1212.61  1239.74  1244.56  1248.75  1249.16  1250.14
eigval :     1260.82  1261.41  1267.57  1268.28  1281.87  1293.50
eigval :     1293.83  1299.18  1309.97  1310.46  1312.77  1313.84
eigval :     1326.90  1327.16  1328.22  1329.13  1332.32  1332.49
eigval :     1398.06  1398.65  1400.32  1401.55  1403.51  1412.26
eigval :     1417.17  1419.31  1433.82  1434.02  1436.08  1437.17
eigval :     1469.70  1469.99  1473.57  1473.68  1485.10  1485.62
eigval :     1486.39  1486.56  1492.08  1492.32  1496.03  1496.21
eigval :     1500.97  1501.74  1546.14  1546.46  1549.04  1550.65
eigval :     1569.70  1570.40  1574.29  1574.43  1589.17  1589.38
eigval :     1590.71  1590.93  1600.32  1600.81  1651.61  1655.44
eigval :     3022.10  3022.94  3027.10  3027.81  3039.30  3040.08
eigval :     3043.08  3043.48  3048.08  3048.68  3054.14  3054.54
eigval :     3073.79  3075.08  3078.15  3078.89  3081.44  3082.22
eigval :     3084.14  3084.49  3084.58  3085.41  3085.49  3089.09
eigval :     3089.92  3092.35  3092.94  3094.51  3094.64  3095.16
eigval :     3095.70  3099.55  3100.55  3101.33  3103.44  3104.78
eigval :     3105.47  3109.02  3113.39

   temp. (K)  partition function   enthalpy   heat capacity  entropy
                                   cal/mol     cal/K/mol   cal/K/mol   J/K/mol
 298.15  VIB  0.433E+21            27183.822    170.100    168.475
         ROT  0.945E+08              888.752      2.981     39.475
         INT  0.409E+29            28072.574    173.081    207.951
         TR   0.180E+29             1481.254      4.968     45.506
         TOT                       29553.8282   178.0492   253.4563  1060.4612

       T/K    H(0)-H(T)+PV         H(T)/Eh          T*S/Eh         G(T)/Eh
   ------------------------------------------------------------------------
    298.15    0.470970E-01    0.776760E+00    0.120425E+00    0.656334E+00
   ------------------------------------------------------------------------

         :::::::::::::::::::::::::::::::::::::::::::::::::::::
         ::                  THERMODYNAMIC                  ::
         :::::::::::::::::::::::::::::::::::::::::::::::::::::
         :: total free energy        -141.154529704940 Eh   ::
         ::.................................................::
         :: total energy             -141.810864043867 Eh   ::
         :: zero point energy           0.729662591264 Eh   ::
         :: G(RRHO) w/o ZPVE           -0.073328252337 Eh   ::
         :: G(RRHO) contrib.            0.656334338927 Eh   ::
         :::::::::::::::::::::::::::::::::::::::::::::::::::::

           -------------------------------------------------
          | TOTAL ENERGY             -141.810864043867 Eh   |
          | TOTAL ENTHALPY           -141.034104429466 Eh   |
          | TOTAL FREE ENERGY        -141.154529704940 Eh   |
          | GRADIENT NORM               0.000059363444 Eh/α |
          | HOMO-LUMO GAP               1.060127303136 eV   |
           -------------------------------------------------

 * finished run on 2025/09/07 at 03:16:49.372
