   * xtb version 6.7.1 (edcfbbe) compiled by 'albert@albert-system' on 2024-07-22

   ID    Z sym.   atoms
    1    6 C      1-5, 7-25, 28-49
    2    7 N      6
    3   15 P      26
    4    8 O      27
    5    1 H      50-85

          program call               : xtb data2507/toluene/TAA-PPO/TAA-PPO.xyz --gfn 2 --gbsa toluene --ohess vtight --parallel 40 --molden --ceasefiles --namespace data2507/toluene/TAA-PPO/TAA-PPO_toluene_S0_preOpt
      * Solvation model:               GBSA
        Solvent                        toluene
        Solvent mass                       9.2140E+01 g/mol
          :  Hamiltonian                  GFN2-xTB          :
 * total energy  :  -126.4515145 Eh     change       -0.1321467E-08 Eh
 * total energy  :  -126.4698631 Eh     change       -0.1834866E-01 Eh
 * total energy  :  -126.4758510 Eh     change       -0.5987919E-02 Eh
 * total energy  :  -126.4769991 Eh     change       -0.1148102E-02 Eh
 * total energy  :  -126.4775695 Eh     change       -0.5703318E-03 Eh
 * total energy  :  -126.4777522 Eh     change       -0.1827495E-03 Eh
 * total energy  :  -126.4778739 Eh     change       -0.1216929E-03 Eh
 * total energy  :  -126.4779651 Eh     change       -0.9121004E-04 Eh
 * total energy  :  -126.4780565 Eh     change       -0.9134115E-04 Eh
 * total energy  :  -126.4781522 Eh     change       -0.9576749E-04 Eh
 * total energy  :  -126.4790735 Eh     change       -0.1852987E-06 Eh
 * total energy  :  -126.4790737 Eh     change       -0.1289623E-06 Eh
 * total energy  :  -126.4790738 Eh     change       -0.1465218E-06 Eh
 * total energy  :  -126.4790740 Eh     change       -0.1694362E-06 Eh
 * total energy  :  -126.4790742 Eh     change       -0.1939494E-06 Eh
 * total energy  :  -126.4790743 Eh     change       -0.1664399E-06 Eh
 * total energy  :  -126.4790745 Eh     change       -0.1039243E-06 Eh
 * total energy  :  -126.4790744 Eh     change        0.3021711E-08 Eh
 * total energy  :  -126.4790745 Eh     change       -0.5009201E-07 Eh
   *** GEOMETRY OPTIMIZATION CONVERGED AFTER 61 ITERATIONS ***

 final structure:
================
85
 xtb: 6.7.1 (edcfbbe)
C           -6.96397318354404       -4.98930484609485        0.27350076912083
C           -6.25660338305607       -3.67013382225738        0.18908109713021
C           -6.73264159439329       -2.64869249860547       -0.62428481990395
C           -6.07315449421456       -1.43904752119946       -0.71713743532424
C           -4.91180048000304       -1.20963309332528        0.02131856834462
N           -4.22320668079978        0.00271433571913       -0.05587561685937
C           -4.87276682002499        1.21907926829369       -0.27605089016182
C           -6.16891849403620        1.45119955029447        0.18595939973936
C           -6.78371401721426        2.66656205109419       -0.03965602225916
C           -6.13215056684995        3.69182480665563       -0.71558606608790
C           -6.79502964853574        5.01911034975171       -0.93193261223667
C           -4.83589063727356        3.46005500750440       -1.16043234473226
C           -4.21283153342991        2.24611979209905       -0.95134194441270
C           -2.82041122166316        0.00071939601582        0.10534560110873
C           -2.01598141626207       -0.71283833845374       -0.80155256585016
C           -2.56185063438435       -1.40069658967495       -1.91587097846481
C           -1.76580662600274       -2.07433569747562       -2.79141205416351
C           -0.36961151971259       -2.10141805398483       -2.60752504314665
C            0.19583573589125       -1.43562840637994       -1.56383839264955
C           -0.59653389344395       -0.71606298771967       -0.63050000904750
C           -0.01597667684516        0.01176615684141        0.41742335409433
C            1.45607011348842        0.03278214539578        0.57220991808087
C            2.18246737041496        1.16284976786180        0.20773248602431
C            3.55874861522742        1.18935073454882        0.34383988103603
C            4.22368543250733        0.08071773818234        0.84590766514502
P            6.02061711515489        0.05805051901291        1.15291096488919
O            6.34702194638662        0.11043983492452        2.59258838402767
C            6.73602651251034        1.43939097577704        0.20986537358508
C            6.62648061303049        1.52268426935332       -1.17336619293552
C            7.20175588280139        2.58687659585506       -1.84286631846392
C            7.88663889726764        3.56525840363840       -1.13714716975280
C            7.99936832205271        3.48061455227622        0.24118854255757
C            7.42505752237883        2.41630832993101        0.91464770021672
C            6.63459879101960       -1.44967811969494        0.33629219057471
C            7.75304711836932       -2.05642371408064        0.89167670432917
C            8.29241332443516       -3.18736127153893        0.30472989952174
C            7.71342516905689       -3.71143717429514       -0.84016730825306
C            6.59523248260327       -3.10804172574398       -1.39471391984637
C            6.05442704389829       -1.97659158390504       -0.81059310946315
C            3.50407835318927       -1.04552270022351        1.22675087027267
C            2.13050704544848       -1.07282455001973        1.08631387505493
C           -0.81867478853423        0.72768970001080        1.31642510588127
C           -0.25638674860420        1.44535046446545        2.40526063121847
C           -1.04344911507618        2.09994136569300        3.30225524224139
C           -2.44554548368623        2.06386758198942        3.17307944522024
C           -3.02399414257896        1.39123885167704        2.14009266225700
C           -2.24076973184030        0.71326393215670        1.17090739531489
C           -4.42506671156294       -2.23460761606322        0.83333871554816
C           -5.08843674819555       -3.44258210728815        0.90791327155847
H           -7.99998235959945       -4.89563251908663       -0.04343869359809
H           -6.93926873033654       -5.37560199590585        1.29068916406402
H           -6.47498047450336       -5.71938115505418       -0.37310380768323
H           -7.63166392388803       -2.80352322753319       -1.20448723212775
H           -6.45110486357095       -0.66753806748555       -1.37255977416879
H           -6.68813860789873        0.67787517464772        0.73369860603795
H           -7.78822894653489        2.82397882548192        0.32774151691570
H           -6.46143033124575        5.47086739209025       -1.86378099979577
H           -7.87726877156363        4.91341306971642       -0.95729251962305
H           -6.54086372510862        5.70057175481498       -0.11848956470134
H           -4.30599720530090        4.24098707004459       -1.68768193525476
H           -3.20718143917729        2.08440665845053       -1.31195041610067
H           -3.62902041985553       -1.37726929920223       -2.07163250918296
H           -2.20052442074020       -2.58771770966535       -3.63651757442816
H            0.24736463374708       -2.64471749454663       -3.30841429374623
H            1.26729709118793       -1.44030264966033       -1.42999764999074
H            1.66081029494247        2.02361257077557       -0.18553831074417
H            4.11882873698652        2.06952655341447        0.05966886097812
H            6.09232766547571        0.75682670856767       -1.71614266483588
H            7.11698798170186        2.65507811251799       -2.91758971663756
H            8.33521480105227        4.39428813115142       -1.66446079433965
H            8.53389002824091        4.24160280971570        0.79076648533882
H            7.49939507042531        2.32438264139113        1.98958012819548
H            8.17911344079777       -1.63333553202175        1.79139387028424
H            9.16143432849647       -3.65935826567559        0.73943459737822
H            8.13167612164733       -4.59515948187795       -1.29922480345682
H            6.14269836004292       -3.52209274794645       -2.28399153462520
H            5.17482149942595       -1.51064828291721       -1.23197149169399
H            4.03743557979418       -1.89552460658657        1.63355391517263
H            1.56958488734849       -1.94901519827345        1.37836129567566
H            0.81809401494159        1.45556410734907        2.51493954166268
H           -0.59935954338855        2.64008361716332        4.12572073438540
H           -3.05944619790030        2.56836055217894        3.90475255509566
H           -4.09909520201087        1.35900555881500        2.05782090901843
H           -3.52384416517898       -2.07450513551727        1.40761323388422
H           -4.69590062383057       -4.22207099832766        1.54582697258446

          :  Hamiltonian                  GFN2-xTB          :
         :: gradient norm              0.000032042847 Eh/a0 ::
         :: HOMO-LUMO gap              1.633573541984 eV    ::
         :: SCC energy              -128.817270519453 Eh    ::
         :: -> dispersion             -0.121599950917 Eh    ::
         :: -> Gsolv                  -0.056260452078 Eh    ::
         :: repulsion energy           2.338196019925 Eh    ::

    * Orbital Energies and Occupations

         #    Occupation            Energy/Eh            Energy/eV
      -------------------------------------------------------------
         1        2.0000           -0.6982821             -19.0012
       ...           ...                  ...                  ...
       106        2.0000           -0.4163832             -11.3304
       107        2.0000           -0.4143655             -11.2755
       108        2.0000           -0.4131254             -11.2417
       109        2.0000           -0.4084754             -11.1152
       110        2.0000           -0.4071356             -11.0787
       111        2.0000           -0.4038891             -10.9904
       112        2.0000           -0.4038721             -10.9899
       113        2.0000           -0.4025959             -10.9552
       114        2.0000           -0.4009606             -10.9107
       115        2.0000           -0.3996101             -10.8739
       116        2.0000           -0.3901723             -10.6171
       117        2.0000           -0.3672609              -9.9937
       118        2.0000           -0.3424998              -9.3199 (HOMO)
       119                         -0.2824671              -7.6863 (LUMO)
       120                         -0.2573274              -7.0022
       121                         -0.2456409              -6.6842
       122                         -0.2405883              -6.5467
       123                         -0.2372696              -6.4564
       124                         -0.2354747              -6.4076
       125                         -0.2345319              -6.3819
       126                         -0.2336040              -6.3567
       127                         -0.2239865              -6.0950
       128                         -0.2216047              -6.0302
       129                         -0.2197198              -5.9789
       ...                                ...                  ...
       237                          1.1871100              32.3029
      -------------------------------------------------------------
                  HL-Gap            0.0600328 Eh            1.6336 eV

     #   Z          covCN         q      C6AA      α(0)
     1   6 C        3.757    -0.108    22.626     6.782
     2   6 C        2.965     0.007    27.861     8.658
     3   6 C        2.924    -0.041    29.028     8.835
     4   6 C        2.920    -0.053    29.313     8.878
     5   6 C        2.921     0.063    26.591     8.456
     6   7 N        2.751    -0.081    22.820     7.095
     7   6 C        2.921     0.063    26.592     8.456
     8   6 C        2.920    -0.053    29.313     8.879
     9   6 C        2.925    -0.041    29.029     8.836
    10   6 C        2.965     0.007    27.863     8.658
    11   6 C        3.757    -0.108    22.625     6.782
    12   6 C        2.925    -0.041    29.014     8.833
    13   6 C        2.922    -0.052    29.298     8.876
    14   6 C        2.924     0.051    26.857     8.499
    15   6 C        2.981    -0.003    28.084     8.693
    16   6 C        2.917    -0.033    28.830     8.805
    17   6 C        2.915    -0.031    28.768     8.795
    18   6 C        2.914    -0.029    28.736     8.790
    19   6 C        2.918    -0.035    28.874     8.812
    20   6 C        2.984     0.006    27.880     8.661
    21   6 C        2.977    -0.011    28.284     8.724
    22   6 C        2.977     0.024    27.466     8.597
    23   6 C        2.924    -0.030    28.747     8.793
    24   6 C        2.972    -0.024    28.607     8.773
    25   6 C        2.920     0.010    27.787     8.644
    26  15 P        4.072     0.053   157.900    22.573
    27   8 O        0.808    -0.400    21.707     6.245
    28   6 C        2.921     0.011    27.765     8.641
    29   6 C        2.980    -0.025    28.633     8.777
    30   6 C        2.919    -0.027    28.666     8.780
    31   6 C        2.920    -0.024    28.593     8.769
    32   6 C        2.919    -0.027    28.667     8.780
    33   6 C        3.018    -0.019    28.466     8.752
    34   6 C        2.920     0.011    27.777     8.643
    35   6 C        3.026    -0.019    28.465     8.751
    36   6 C        2.918    -0.026    28.662     8.779
    37   6 C        2.920    -0.024    28.597     8.769
    38   6 C        2.919    -0.026    28.662     8.779
    39   6 C        2.974    -0.024    28.606     8.773
    40   6 C        3.022    -0.019    28.464     8.751
    41   6 C        2.923    -0.030    28.741     8.792
    42   6 C        2.984     0.006    27.879     8.661
    43   6 C        2.918    -0.035    28.866     8.810
    44   6 C        2.914    -0.029    28.731     8.790
    45   6 C        2.915    -0.031    28.761     8.794
    46   6 C        2.917    -0.034    28.835     8.806
    47   6 C        2.981    -0.003    28.082     8.693
    48   6 C        2.922    -0.052    29.294     8.876
    49   6 C        2.925    -0.041    29.013     8.833
    50   1 H        0.925     0.043     2.412     2.429
    51   1 H        0.925     0.044     2.397     2.421
    52   1 H        0.924     0.047     2.354     2.399
    53   1 H        0.926     0.031     2.575     2.509
    54   1 H        0.926     0.029     2.594     2.519
    55   1 H        0.926     0.029     2.598     2.521
    56   1 H        0.926     0.031     2.575     2.509
    57   1 H        0.925     0.043     2.404     2.425
    58   1 H        0.925     0.043     2.406     2.426
    59   1 H        0.924     0.047     2.355     2.400
    60   1 H        0.926     0.030     2.586     2.515
    61   1 H        0.926     0.024     2.673     2.557
    62   1 H        0.926     0.034     2.525     2.485
    63   1 H        0.926     0.033     2.550     2.497
    64   1 H        0.926     0.034     2.536     2.490
    65   1 H        0.926     0.032     2.555     2.500
    66   1 H        0.926     0.043     2.405     2.425
    67   1 H        0.925     0.039     2.459     2.452
    68   1 H        0.926     0.047     2.359     2.402
    69   1 H        0.926     0.047     2.364     2.404
    70   1 H        0.926     0.047     2.361     2.403
    71   1 H        0.926     0.044     2.399     2.422
    72   1 H        0.925     0.049     2.335     2.390
    73   1 H        0.925     0.046     2.376     2.411
    74   1 H        0.926     0.044     2.401     2.423
    75   1 H        0.926     0.047     2.360     2.403
    76   1 H        0.926     0.047     2.364     2.404
    77   1 H        0.926     0.042     2.425     2.435
    78   1 H        0.925     0.039     2.468     2.457
    79   1 H        0.926     0.043     2.412     2.429
    80   1 H        0.926     0.030     2.581     2.512
    81   1 H        0.926     0.032     2.556     2.500
    82   1 H        0.926     0.032     2.551     2.498
    83   1 H        0.926     0.035     2.521     2.483
    84   1 H        0.926     0.024     2.678     2.559
    85   1 H        0.926     0.030     2.585     2.514

molecular dipole:
                 x           y           z       tot (Debye)
 q only:       -0.650      -0.086      -1.985
   full:       -0.588      -0.083      -2.049       5.423

 projected vibrational frequencies (cm⁻¹)
eigval :       -0.00     0.00     0.00     0.00     0.00     0.00
eigval :        5.19     9.10    16.29    21.34    26.32    28.01
eigval :       34.22    37.50    42.93    44.74    47.53    49.69
eigval :       51.08    57.34    58.53    63.64    74.59    85.08
eigval :      107.57   116.97   120.77   139.53   145.76   151.89
eigval :      153.78   161.47   193.72   206.61   210.19   215.59
eigval :      223.15   226.63   255.16   259.32   278.48   284.50
eigval :      287.54   319.73   325.52   345.48   353.77   359.37
eigval :      362.53   367.56   374.56   381.00   383.35   387.34
eigval :      393.93   399.43   407.97   415.47   420.42   436.21
eigval :      445.80   453.66   460.48   484.26   487.28   492.96
eigval :      506.30   512.69   529.96   577.46   579.79   584.72
eigval :      585.39   586.16   595.87   609.34   611.39   612.25
eigval :      628.44   635.82   656.22   658.15   660.26   660.84
eigval :      667.17   685.71   692.00   694.20   714.24   732.91
eigval :      733.74   739.58   747.41   769.08   772.80   788.93
eigval :      793.97   801.95   804.83   807.28   859.37   864.86
eigval :      869.91   872.06   872.57   873.90   877.13   880.28
eigval :      895.16   901.52   905.80   907.65   912.52   913.75
eigval :      915.97   917.49   918.70   922.15   924.91   925.62
eigval :      926.24   927.67   928.76   929.02   931.80   932.89
eigval :      933.84   943.44   972.18   974.49  1006.94  1007.50
eigval :     1007.97  1011.87  1027.17  1031.37  1032.93  1074.83
eigval :     1077.25  1083.82  1084.06  1097.87  1108.76  1114.16
eigval :     1118.72  1123.93  1126.60  1128.40  1134.20  1143.82
eigval :     1146.78  1172.02  1175.64  1176.76  1181.43  1184.45
eigval :     1186.51  1187.85  1190.83  1197.40  1201.90  1214.84
eigval :     1217.27  1229.43  1230.37  1235.87  1258.20  1258.31
eigval :     1262.16  1265.80  1271.88  1274.85  1276.45  1284.45
eigval :     1309.76  1320.03  1320.24  1320.92  1324.13  1328.01
eigval :     1334.55  1348.19  1364.26  1383.08  1385.88  1401.41
eigval :     1401.48  1412.03  1412.82  1421.17  1422.42  1422.77
eigval :     1426.80  1437.42  1450.14  1452.14  1463.25  1479.32
eigval :     1480.05  1481.26  1481.89  1486.45  1491.86  1494.00
eigval :     1524.22  1526.22  1537.90  1560.52  1567.31  1572.61
eigval :     1580.86  1581.86  1584.23  1585.55  1585.63  1606.02
eigval :     1606.28  1609.02  1619.89  2986.81  2989.05  3025.99
eigval :     3029.41  3034.56  3037.32  3047.51  3064.85  3064.91
eigval :     3065.27  3065.41  3065.95  3067.34  3068.06  3068.11
eigval :     3072.25  3072.39  3074.77  3075.24  3078.66  3079.06
eigval :     3079.67  3080.04  3080.10  3081.29  3081.45  3081.90
eigval :     3082.76  3084.09  3084.96  3089.94  3090.87  3092.46
eigval :     3092.61  3104.22  3106.12

   temp. (K)  partition function   enthalpy   heat capacity  entropy
                                   cal/mol     cal/K/mol   cal/K/mol   J/K/mol
 298.15  VIB  0.486E+22            25457.596    152.498    162.629
         ROT  0.103E+09              888.752      2.981     39.646
         INT  0.501E+30            26346.349    155.479    202.275
         TR   0.160E+29             1481.254      4.968     45.276
         TOT                       27827.6026   160.4468   247.5513  1035.7545

       T/K    H(0)-H(T)+PV         H(T)/Eh          T*S/Eh         G(T)/Eh
   ------------------------------------------------------------------------
    298.15    0.443461E-01    0.707277E+00    0.117620E+00    0.589658E+00
   ------------------------------------------------------------------------

         :::::::::::::::::::::::::::::::::::::::::::::::::::::
         ::                  THERMODYNAMIC                  ::
         :::::::::::::::::::::::::::::::::::::::::::::::::::::
         :: total free energy        -125.889416782024 Eh   ::
         ::.................................................::
         :: total energy             -126.479074498093 Eh   ::
         :: zero point energy           0.662931202156 Eh   ::
         :: G(RRHO) w/o ZPVE           -0.073273486086 Eh   ::
         :: G(RRHO) contrib.            0.589657716069 Eh   ::
         :::::::::::::::::::::::::::::::::::::::::::::::::::::

           -------------------------------------------------
          | TOTAL ENERGY             -126.479074498093 Eh   |
          | TOTAL ENTHALPY           -125.771797188396 Eh   |
          | TOTAL FREE ENERGY        -125.889416782024 Eh   |
          | GRADIENT NORM               0.000032039207 Eh/α |
          | HOMO-LUMO GAP               1.633574594565 eV   |
           -------------------------------------------------

 * finished run on 2025/09/08 at 15:42:50.862
