   * xtb version 6.7.1 (edcfbbe) compiled by 'albert@albert-system' on 2024-07-22

   ID    Z sym.   atoms
    1    6 C      1-5, 7-25, 28-49
    2    7 N      6
    3   15 P      26
    4    8 O      27
    5    1 H      50-85

          program call               : xtb data2507/toluene/TAA-PPO/TAA-PPO_toluene_S0_crest.xyz --gfn 2 --gbsa toluene --ohess vtight --parallel 40 --molden --ceasefiles --namespace data2507/toluene/TAA-PPO/TAA-PPO_toluene_S0_finalOpt
      * Solvation model:               GBSA
        Solvent                        toluene
        Solvent mass                       9.2140E+01 g/mol
          :  Hamiltonian                  GFN2-xTB          :
 * total energy  :  -126.4790976 Eh     change       -0.1316437E-08 Eh
 * total energy  :  -126.4791974 Eh     change       -0.9979561E-04 Eh
 * total energy  :  -126.4792359 Eh     change       -0.3853597E-04 Eh
 * total energy  :  -126.4792472 Eh     change       -0.1124682E-04 Eh
 * total energy  :  -126.4792626 Eh     change       -0.1549149E-04 Eh
 * total energy  :  -126.4792720 Eh     change       -0.9309362E-05 Eh
 * total energy  :  -126.4792818 Eh     change       -0.9863871E-05 Eh
 * total energy  :  -126.4792862 Eh     change       -0.4340744E-05 Eh
 * total energy  :  -126.4792954 Eh     change       -0.9264538E-05 Eh
 * total energy  :  -126.4793001 Eh     change       -0.4670733E-05 Eh
 * total energy  :  -126.4793796 Eh     change       -0.5907927E-06 Eh
 * total energy  :  -126.4793801 Eh     change       -0.4945609E-06 Eh
 * total energy  :  -126.4793805 Eh     change       -0.3946592E-06 Eh
 * total energy  :  -126.4793808 Eh     change       -0.3625204E-06 Eh
 * total energy  :  -126.4793812 Eh     change       -0.3371405E-06 Eh
 * total energy  :  -126.4793815 Eh     change       -0.3578174E-06 Eh
 * total energy  :  -126.4793819 Eh     change       -0.4145591E-06 Eh
 * total energy  :  -126.4793824 Eh     change       -0.4512534E-06 Eh
 * total energy  :  -126.4793824 Eh     change       -0.7281443E-08 Eh
   *** GEOMETRY OPTIMIZATION CONVERGED AFTER 68 ITERATIONS ***

 final structure:
================
85
 xtb: 6.7.1 (edcfbbe)
C           -7.35722279936137       -4.88338860640627        1.03987246904529
C           -6.64987591385619       -3.59691995773312        0.73583543200788
C           -7.14584135516940       -2.69996757725810       -0.20165696605640
C           -6.48754046615964       -1.51851852713078       -0.48289103519215
C           -5.30780767876014       -1.19123028897509        0.18528352110390
N           -4.61839187714476       -0.00698461658221       -0.08492957304802
C           -5.27452492590530        1.16516213161480       -0.46836609618592
C           -6.55485621317998        1.47104111539363       -0.00591471372599
C           -7.17543652516685        2.64287806497170       -0.39101070718513
C           -6.54463612943692        3.55137811322930       -1.23263654226381
C           -7.22735620989677        4.81525699842731       -1.66173944531558
C           -5.26372045526338        3.24739018619104       -1.67983942950973
C           -4.63585451969425        2.07462559134639       -1.31178044493907
C           -3.21278422726935        0.00794847168385        0.03981553251628
C           -2.43349645524375       -0.85371250827038       -0.75367474979330
C           -3.00842080418871       -1.70979602251928       -1.72798334279695
C           -2.24050325838830       -2.55448090136985       -2.47013993775858
C           -0.84691908220033       -2.60587951805386       -2.27303725022452
C           -0.25268539259523       -1.77779307036966       -1.37100317817876
C           -1.01168289016933       -0.85517926962516       -0.60323274058333
C           -0.40068670980260        0.03749922818766        0.28915646278760
C            1.07235231004740        0.05237368071114        0.42179283278426
C            1.86913959152584        0.54327931069129       -0.61029413222441
C            3.24578591221916        0.56233335093775       -0.49004785274484
C            3.84519506017157        0.08428027902500        0.66843629955293
P            5.64890902594174        0.03763591156213        0.91597604747734
O            6.03680969100557        0.13400967115807        2.33656986438296
C            6.33232787586859        1.38766295315958       -0.10038096670931
C            6.58163837942599        1.25949254840777       -1.46089673365614
C            7.09616454612503        2.33241181428017       -2.16737257226596
C            7.36250009680089        3.52927999828420       -1.52078931870113
C            7.11859805824671        3.65630237039904       -0.16239979235689
C            6.60397519886722        2.58574507882261        0.54694976588002
C            6.21491721427219       -1.50557227307617        0.12772726210498
C            7.36562050534451       -2.08738138321379        0.64278463389649
C            7.86513384903236       -3.25000528000826        0.08343773765191
C            7.21289677585306       -3.83279766077853       -0.99166553510756
C            6.06052253238658       -3.25655033688094       -1.50285908451514
C            5.55833706757005       -2.09352151321944       -0.94579091919168
C            3.05731591710650       -0.40290585490183        1.70346008773838
C            1.68127851752273       -0.41802183418585        1.58322963885603
C           -1.17752185696385        0.91530197140874        1.05904602715351
C           -0.58458212744742        1.85022052167190        1.94853933825210
C           -1.34575938513091        2.66130034871400        2.73304684249477
C           -2.75092757540172        2.58046191721311        2.68178147651330
C           -3.35854375855908        1.72315527959177        1.81582795778936
C           -2.60333320795832        0.88361166114654        0.95715321810803
C           -4.80314906154389       -2.09049840175969        1.12578327941216
C           -5.46494722058533       -3.27221575931478        1.38831796983277
H           -8.28086687787154       -4.96332414401360        0.47202219039143
H           -7.59405980673206       -4.94616330626919        2.10164773223934
H           -6.72199930530820       -5.73338143775168        0.79112017828579
H           -8.05911623199299       -2.93066965035104       -0.73220567602008
H           -6.88117819767782       -0.84787164316062       -1.23318385490156
H           -7.05575506255452        0.79228623683009        0.66942410692483
H           -8.16699868950239        2.85957679061284       -0.01865446481826
H           -8.03352023466509        5.07249180501951       -0.97867339317611
H           -6.51993639635841        5.64124587428106       -1.70094335803877
H           -7.65304263784573        4.69162680685330       -2.65865576405012
H           -4.75023429136692        3.93819162116857       -2.33386078955618
H           -3.64190657927970        1.85519936305320       -1.67425748589461
H           -4.07550787243899       -1.68080371725891       -1.88344742255677
H           -2.69668106884449       -3.19450409028369       -3.21107670608986
H           -0.25484474527315       -3.30214765725505       -2.84891318773051
H            0.81602949912193       -1.81350894150125       -1.22114691649846
H            1.39944830306036        0.91850892179940       -1.50826515889925
H            3.85586301022758        0.95725153957413       -1.28984587391421
H            6.38382039358502        0.32099576280058       -1.95900316963415
H            7.29296026569632        2.23379567637713       -3.22501149298624
H            7.76620298528517        4.36289124625432       -2.07634575248171
H            7.33059175591130        4.58703580022258        0.34325279715599
H            6.41534639780128        2.65576635203149        1.60961612011964
H            7.85052363018783       -1.61832013369574        1.48816941745463
H            8.76061761800890       -3.70106454103146        0.48532477672960
H            7.60082899618843       -4.74091151092119       -1.42918046676241
H            5.55002638254338       -3.71637817207309       -2.33659761603316
H            4.65487176461731       -1.64614317929449       -1.33521505363558
H            3.54215517568931       -0.75809220931217        2.60263142994758
H            1.06870655169483       -0.79888328133954        2.38781216405717
H            0.49297323434612        1.90728699558806        1.99263566740815
H           -0.87809916901286        3.36591551139111        3.40526486633996
H           -3.34338283275922        3.20720483624171        3.33206315975795
H           -4.43544447655704        1.67112725856993        1.78196099950192
H           -3.88763863506119       -1.85382516566202        1.64872903871619
H           -5.05818340253519       -3.95440514739084        2.12168808609671

          :  Hamiltonian                  GFN2-xTB          :
         :: gradient norm              0.000048087691 Eh/a0 ::
         :: HOMO-LUMO gap              1.633994012059 eV    ::
         :: SCC energy              -128.817241598835 Eh    ::
         :: -> dispersion             -0.121504855558 Eh    ::
         :: -> Gsolv                  -0.056261625866 Eh    ::
         :: repulsion energy           2.337859204820 Eh    ::

    * Orbital Energies and Occupations

         #    Occupation            Energy/Eh            Energy/eV
      -------------------------------------------------------------
         1        2.0000           -0.6977197             -18.9859
       ...           ...                  ...                  ...
       106        2.0000           -0.4164952             -11.3334
       107        2.0000           -0.4146755             -11.2839
       108        2.0000           -0.4132496             -11.2451
       109        2.0000           -0.4085466             -11.1171
       110        2.0000           -0.4083072             -11.1106
       111        2.0000           -0.4032523             -10.9731
       112        2.0000           -0.4023522             -10.9486
       113        2.0000           -0.4017685             -10.9327
       114        2.0000           -0.4008872             -10.9087
       115        2.0000           -0.3998512             -10.8805
       116        2.0000           -0.3900773             -10.6145
       117        2.0000           -0.3670137              -9.9870
       118        2.0000           -0.3427737              -9.3273 (HOMO)
       119                         -0.2827255              -7.6934 (LUMO)
       120                         -0.2527593              -6.8779
       121                         -0.2518635              -6.8536
       122                         -0.2391412              -6.5074
       123                         -0.2360646              -6.4236
       124                         -0.2352872              -6.4025
       125                         -0.2349559              -6.3935
       126                         -0.2336075              -6.3568
       127                         -0.2241608              -6.0997
       128                         -0.2216064              -6.0302
       129                         -0.2198112              -5.9814
       ...                                ...                  ...
       237                          1.1620358              31.6206
      -------------------------------------------------------------
                  HL-Gap            0.0600482 Eh            1.6340 eV

     #   Z          covCN         q      C6AA      α(0)
     1   6 C        3.757    -0.108    22.626     6.782
     2   6 C        2.965     0.007    27.859     8.658
     3   6 C        2.924    -0.041    29.024     8.835
     4   6 C        2.920    -0.053    29.314     8.879
     5   6 C        2.921     0.063    26.590     8.456
     6   7 N        2.751    -0.081    22.809     7.093
     7   6 C        2.921     0.063    26.592     8.456
     8   6 C        2.920    -0.053    29.308     8.878
     9   6 C        2.924    -0.041    29.026     8.835
    10   6 C        2.965     0.007    27.857     8.657
    11   6 C        3.757    -0.108    22.627     6.782
    12   6 C        2.925    -0.041    29.013     8.833
    13   6 C        2.922    -0.052    29.291     8.875
    14   6 C        2.923     0.051    26.859     8.499
    15   6 C        2.981    -0.003    28.091     8.694
    16   6 C        2.917    -0.033    28.833     8.805
    17   6 C        2.915    -0.031    28.771     8.796
    18   6 C        2.914    -0.030    28.740     8.791
    19   6 C        2.918    -0.035    28.876     8.812
    20   6 C        2.983     0.006    27.881     8.661
    21   6 C        2.977    -0.011    28.295     8.725
    22   6 C        2.977     0.024    27.468     8.597
    23   6 C        2.924    -0.030    28.760     8.795
    24   6 C        2.970    -0.027    28.678     8.784
    25   6 C        2.920     0.009    27.829     8.651
    26  15 P        4.071     0.053   157.899    22.572
    27   8 O        0.808    -0.402    21.733     6.249
    28   6 C        2.920     0.011    27.760     8.640
    29   6 C        2.972    -0.026    28.655     8.781
    30   6 C        2.919    -0.027    28.670     8.780
    31   6 C        2.920    -0.024    28.599     8.770
    32   6 C        2.919    -0.026    28.659     8.779
    33   6 C        3.025    -0.019    28.453     8.750
    34   6 C        2.920     0.011    27.764     8.641
    35   6 C        3.026    -0.019    28.452     8.749
    36   6 C        2.919    -0.026    28.658     8.779
    37   6 C        2.920    -0.024    28.601     8.770
    38   6 C        2.919    -0.027    28.669     8.780
    39   6 C        2.972    -0.026    28.650     8.780
    40   6 C        3.025    -0.020    28.472     8.753
    41   6 C        2.923    -0.030    28.745     8.792
    42   6 C        2.984     0.006    27.880     8.661
    43   6 C        2.918    -0.035    28.872     8.811
    44   6 C        2.914    -0.029    28.736     8.790
    45   6 C        2.915    -0.031    28.766     8.795
    46   6 C        2.917    -0.034    28.839     8.806
    47   6 C        2.981    -0.003    28.089     8.694
    48   6 C        2.922    -0.052    29.288     8.875
    49   6 C        2.925    -0.041    29.015     8.833
    50   1 H        0.925     0.042     2.423     2.434
    51   1 H        0.925     0.046     2.373     2.409
    52   1 H        0.925     0.046     2.367     2.406
    53   1 H        0.926     0.031     2.579     2.511
    54   1 H        0.926     0.029     2.595     2.519
    55   1 H        0.926     0.029     2.597     2.520
    56   1 H        0.926     0.031     2.575     2.509
    57   1 H        0.925     0.043     2.412     2.429
    58   1 H        0.925     0.044     2.395     2.420
    59   1 H        0.924     0.047     2.352     2.398
    60   1 H        0.926     0.030     2.579     2.512
    61   1 H        0.926     0.024     2.669     2.555
    62   1 H        0.926     0.034     2.529     2.487
    63   1 H        0.926     0.032     2.553     2.499
    64   1 H        0.926     0.033     2.539     2.492
    65   1 H        0.926     0.032     2.556     2.500
    66   1 H        0.926     0.044     2.394     2.420
    67   1 H        0.926     0.045     2.380     2.412
    68   1 H        0.926     0.045     2.384     2.415
    69   1 H        0.926     0.046     2.370     2.408
    70   1 H        0.926     0.047     2.364     2.404
    71   1 H        0.926     0.044     2.400     2.423
    72   1 H        0.925     0.046     2.373     2.409
    73   1 H        0.925     0.045     2.378     2.412
    74   1 H        0.926     0.044     2.401     2.423
    75   1 H        0.926     0.047     2.363     2.404
    76   1 H        0.926     0.046     2.370     2.407
    77   1 H        0.926     0.044     2.397     2.421
    78   1 H        0.925     0.046     2.371     2.408
    79   1 H        0.926     0.042     2.429     2.437
    80   1 H        0.926     0.031     2.576     2.510
    81   1 H        0.926     0.032     2.557     2.501
    82   1 H        0.926     0.032     2.554     2.499
    83   1 H        0.926     0.034     2.524     2.484
    84   1 H        0.926     0.024     2.677     2.558
    85   1 H        0.926     0.031     2.579     2.511

molecular dipole:
                 x           y           z       tot (Debye)
 q only:       -0.806      -0.146      -1.953
   full:       -0.778      -0.150      -2.023       5.524

 projected vibrational frequencies (cm⁻¹)
eigval :       -0.00    -0.00     0.00     0.00     0.00     0.00
eigval :      -11.29    -8.32     9.00    12.83    17.52    24.04
eigval :       28.78    31.65    37.38    39.17    43.50    46.39
eigval :       47.25    50.40    56.91    62.34    76.34    86.13
eigval :      113.02   119.76   126.67   142.45   146.89   153.87
eigval :      160.60   161.73   191.38   198.00   217.82   220.41
eigval :      221.79   229.18   255.86   260.32   283.28   287.66
eigval :      291.91   321.40   324.31   346.35   353.67   362.32
eigval :      362.97   365.00   374.43   378.48   382.32   389.72
eigval :      398.50   400.23   406.71   414.44   432.62   441.49
eigval :      443.11   450.32   460.22   479.97   486.80   490.21
eigval :      506.91   516.00   529.54   576.41   580.36   584.74
eigval :      585.11   585.86   597.52   606.59   611.08   611.94
eigval :      630.14   635.31   657.72   658.22   660.59   661.65
eigval :      667.10   684.85   690.21   692.50   715.05   733.09
eigval :      733.30   741.37   746.80   769.22   772.07   792.12
eigval :      793.84   800.33   804.12   811.42   859.26   867.15
eigval :      869.47   871.29   873.19   875.07   876.99   879.65
eigval :      895.00   903.31   906.16   910.64   914.37   915.24
eigval :      915.91   916.74   918.61   923.70   924.45   925.35
eigval :      925.63   926.15   927.42   930.03   932.39   933.74
eigval :      934.17   944.13   971.13   974.38  1007.63  1008.77
eigval :     1009.54  1012.33  1027.49  1030.90  1033.91  1076.76
eigval :     1077.46  1083.83  1084.50  1098.09  1111.72  1113.84
eigval :     1119.14  1125.05  1125.36  1130.74  1133.37  1144.54
eigval :     1147.96  1171.75  1175.39  1177.22  1180.02  1185.28
eigval :     1188.36  1189.33  1192.64  1198.06  1202.69  1215.91
eigval :     1221.43  1229.56  1230.40  1236.17  1258.32  1259.24
eigval :     1263.16  1268.55  1272.14  1275.49  1276.87  1284.61
eigval :     1312.37  1319.28  1319.42  1319.51  1323.79  1328.04
eigval :     1334.52  1347.94  1364.10  1383.80  1386.35  1400.59
eigval :     1404.02  1412.04  1412.55  1420.60  1422.23  1422.52
eigval :     1426.54  1437.11  1451.33  1451.94  1462.92  1477.82
eigval :     1480.29  1481.36  1482.50  1485.59  1491.88  1494.03
eigval :     1523.40  1526.02  1537.55  1558.70  1567.71  1572.82
eigval :     1580.86  1581.51  1584.11  1584.38  1585.33  1605.98
eigval :     1606.24  1609.08  1619.71  2988.07  2998.55  3012.37
eigval :     3026.66  3036.79  3041.65  3064.92  3065.57  3066.01
eigval :     3066.09  3066.68  3067.74  3068.63  3069.63  3071.15
eigval :     3071.50  3072.06  3072.19  3076.34  3076.98  3079.29
eigval :     3079.92  3080.21  3080.55  3081.28  3081.56  3082.79
eigval :     3082.96  3083.45  3084.41  3090.32  3091.46  3091.63
eigval :     3092.04  3105.27  3106.36

   temp. (K)  partition function   enthalpy   heat capacity  entropy
                                   cal/mol     cal/K/mol   cal/K/mol   J/K/mol
 298.15  VIB  0.248E+23            25489.601    151.487    162.984
         ROT  0.103E+09              888.752      2.981     39.643
         INT  0.255E+31            26378.353    154.467    202.626
         TR   0.160E+29             1481.254      4.968     45.276
         TOT                       27859.6069   159.4356   247.9021  1037.2223

       T/K    H(0)-H(T)+PV         H(T)/Eh          T*S/Eh         G(T)/Eh
   ------------------------------------------------------------------------
    298.15    0.443971E-01    0.707458E+00    0.117786E+00    0.589672E+00
   ------------------------------------------------------------------------

         :::::::::::::::::::::::::::::::::::::::::::::::::::::
         ::                  THERMODYNAMIC                  ::
         :::::::::::::::::::::::::::::::::::::::::::::::::::::
         :: total free energy        -125.889710528866 Eh   ::
         ::.................................................::
         :: total energy             -126.479382394245 Eh   ::
         :: zero point energy           0.663061029329 Eh   ::
         :: G(RRHO) w/o ZPVE           -0.073389163949 Eh   ::
         :: G(RRHO) contrib.            0.589671865380 Eh   ::
         :::::::::::::::::::::::::::::::::::::::::::::::::::::

           -------------------------------------------------
          | TOTAL ENERGY             -126.479382394245 Eh   |
          | TOTAL ENTHALPY           -125.771924255402 Eh   |
          | TOTAL FREE ENERGY        -125.889710528866 Eh   |
          | GRADIENT NORM               0.000048025957 Eh/α |
          | HOMO-LUMO GAP               1.633994668538 eV   |
           -------------------------------------------------

 * finished run on 2025/09/08 at 15:54:20.315
