   * xtb version 6.7.1 (edcfbbe) compiled by 'albert@albert-system' on 2024-07-22

   ID    Z sym.   atoms
    1    6 C      1-5, 7-25, 28-49
    2    7 N      6
    3   15 P      26
    4    8 O      27
    5    1 H      50-85

          program call               : xtb data2507/toluene/TAA-PPO/TAA-PPO_toluene_S0_finalOpt.xtbopt.xyz --gfn 2 --uhf 2 --gbsa toluene --ohess vtight --parallel 40 --molden --ceasefiles --namespace data2507/toluene/TAA-PPO/TAA-PPO_toluene_T1_preOpt
      * Solvation model:               GBSA
        Solvent                        toluene
        Solvent mass                       9.2140E+01 g/mol
          :  Hamiltonian                  GFN2-xTB          :
 * total energy  :  -126.4109488 Eh     change       -0.2729934E-08 Eh
 * total energy  :  -126.4154788 Eh     change       -0.4529945E-02 Eh
 * total energy  :  -126.4165797 Eh     change       -0.1100973E-02 Eh
 * total energy  :  -126.4166864 Eh     change       -0.1067071E-03 Eh
 * total energy  :  -126.4167796 Eh     change       -0.9320112E-04 Eh
 * total energy  :  -126.4168317 Eh     change       -0.5204224E-04 Eh
 * total energy  :  -126.4168989 Eh     change       -0.6724168E-04 Eh
 * total energy  :  -126.4169710 Eh     change       -0.7204861E-04 Eh
 * total energy  :  -126.4170191 Eh     change       -0.4818103E-04 Eh
 * total energy  :  -126.4170532 Eh     change       -0.3401427E-04 Eh
 * total energy  :  -126.4174314 Eh     change       -0.9247192E-06 Eh
 * total energy  :  -126.4174326 Eh     change       -0.1181925E-05 Eh
 * total energy  :  -126.4174343 Eh     change       -0.1741857E-05 Eh
 * total energy  :  -126.4174368 Eh     change       -0.2451896E-05 Eh
 * total energy  :  -126.4174393 Eh     change       -0.2503685E-05 Eh
 * total energy  :  -126.4174408 Eh     change       -0.1492109E-05 Eh
 * total energy  :  -126.4174416 Eh     change       -0.8323425E-06 Eh
 * total energy  :  -126.4174421 Eh     change       -0.5253230E-06 Eh
 * total energy  :  -126.4174421 Eh     change       -0.4898496E-08 Eh
   *** GEOMETRY OPTIMIZATION CONVERGED AFTER 68 ITERATIONS ***

 final structure:
================
85
 xtb: 6.7.1 (edcfbbe)
C           -7.21006919644618       -5.01067617081498        0.73491957162882
C           -6.53942947553714       -3.69082320954774        0.51221870312205
C           -7.06704992218305       -2.74770708267654       -0.36303767003532
C           -6.44438668256428       -1.53316148248793       -0.56801633921078
C           -5.26598593921798       -1.22137386279189        0.11457276485850
N           -4.60986916915417       -0.00620214910710       -0.07198289269411
C           -5.31290744673772        1.15995095558172       -0.36855884616469
C           -6.60050925878946        1.38747436463396        0.12456751919311
C           -7.26832565142044        2.55403853801392       -0.18596767746504
C           -6.68153404977864        3.53176831378396       -0.98337993446445
C           -7.41629850781988        4.78793489894281       -1.33444064164196
C           -5.39406808451180        3.30392654932334       -1.46240466583897
C           -4.71635827444831        2.14101527201908       -1.16536470131067
C           -3.21534812326494        0.04230854203859        0.03783859218153
C           -2.41736245151258       -0.82501282874196       -0.77153790082212
C           -2.97333945533702       -1.65454235481445       -1.75059592872416
C           -2.18812302077589       -2.52374690595518       -2.49822514871305
C           -0.82659199758819       -2.58548979700876       -2.27666837702170
C           -0.23985951660790       -1.72934031014594       -1.35396196245096
C           -0.99836580474931       -0.80718726348643       -0.62140016494739
C           -0.39094532660366        0.12142103485867        0.27553749089735
C            1.06427105895728        0.15312222328848        0.40774765711229
C            1.88238750344575        0.39842882421415       -0.70235764513260
C            3.25523822331571        0.42638970442259       -0.58249501504697
C            3.85177816625591        0.19224789842152        0.65363114659445
P            5.65001430199485        0.15714241823802        0.89772713513859
O            6.05189761273518        0.40704414303377        2.29628626864946
C            6.33994461299953        1.37933668864763       -0.26613898214080
C            6.59227353809382        1.09272355573748       -1.60153014126255
C            7.10616337387352        2.07612547767064       -2.42851161198570
C            7.36933822654781        3.34109648300274       -1.92668261604535
C            7.12169506783947        3.62669608485340       -0.59320340383957
C            6.60699713999576        2.64605976503151        0.23582189638582
C            6.22028321690688       -1.46419361920066        0.28257441798647
C            7.42948966053064       -1.92944402806228        0.78296126412890
C            7.93335700667260       -3.14676823788573        0.36148202837630
C            7.22689428152466       -3.90264017905843       -0.56089136577987
C            6.01760581165660       -3.44252625105398       -1.05724209649877
C            5.51175290709275       -2.22407985977784       -0.63850701727778
C            3.05088403423663       -0.04651586173139        1.76598353782568
C            1.67781368218373       -0.05932244092485        1.64839526455131
C           -1.19029787410803        1.01476825253946        1.04922188552044
C           -0.61537840690280        1.97449439544614        1.89227662444626
C           -1.39398069808574        2.79434184728313        2.69876180554952
C           -2.76809407499017        2.65817733496617        2.68960106961993
C           -3.36934386974957        1.74993712723257        1.82656286745928
C           -2.61343425162690        0.95411352354135        0.96006849467636
C           -4.72839353768723       -2.16775348094245        0.99213790164003
C           -5.35806031263382       -3.37850843498198        1.18141872155643
H           -8.12536418915452       -5.08708972208040        0.15379380727270
H           -7.45351235256301       -5.13885849722263        1.78917924118454
H           -6.54552774760309       -5.82539312918938        0.44855965781704
H           -7.97528946146806       -2.97093301771274       -0.90430911002317
H           -6.85498000085623       -0.82788279998972       -1.27579729680669
H           -7.06207105264260        0.65541940207957        0.77116052945905
H           -8.26138211165969        2.71350694812460        0.20904132879815
H           -8.22515907095938        4.97548035154566       -0.63255783589061
H           -6.74174670504427        5.64166170233065       -1.33586917152514
H           -7.84622282015205        4.70093436989670       -2.33329575801567
H           -4.91898156354014        4.04833827936870       -2.08502522609720
H           -3.72241910315005        1.97211693847982       -1.55296105418354
H           -4.03590353192967       -1.63147871398727       -1.93462921406062
H           -2.65429320539637       -3.16073135422810       -3.23562771265935
H           -0.21238710664235       -3.28667822173399       -2.82243236574837
H            0.82670616021566       -1.77714974854338       -1.19766403624631
H            1.42207436652048        0.59561179395373       -1.66015483366039
H            3.87092447728129        0.64286356444741       -1.44424176991894
H            6.39752522422163        0.10110735053098       -1.98534830422620
H            7.30538422918120        1.85388463740916       -3.46681257274986
H            7.77275327319059        4.10477602396122       -2.57530629527155
H            7.33097893492235        4.61091624150198       -0.20010046291828
H            6.41480393893302        2.83998924549763        1.28248281006960
H            7.95629737163757       -1.32690348781210        1.51057187407290
H            8.87399971597879       -3.50633967935544        0.75243711911206
H            7.61750504966431       -4.85422954322198       -0.89032686019051
H            5.46517893019353       -4.03548492350293       -1.77169579886118
H            4.56574769011303       -1.86516512597803       -1.01813170342234
H            3.52922287352387       -0.21825855056023        2.72084814358880
H            1.06290471315433       -0.26273396212794        2.51353351216278
H            0.45853800913545        2.07935924695956        1.91977416026963
H           -0.91775680797127        3.52486497297519        3.33627015443380
H           -3.38451092198521        3.26642614402282        3.33524263068896
H           -4.44486506092778        1.66879657403316        1.83119762363493
H           -3.81991115835143       -1.93333215808332        1.52737448477395
H           -4.93169526579544       -4.09559537249372        1.86810396846867

          :  Hamiltonian                  GFN2-xTB          :
         :: gradient norm              0.000051017504 Eh/a0 ::
         :: HOMO-LUMO gap              0.903199516161 eV    ::
         :: SCC energy              -128.740261126021 Eh    ::
         :: -> dispersion             -0.121824389589 Eh    ::
         :: -> Gsolv                  -0.057560642461 Eh    ::
         :: repulsion energy           2.322819006814 Eh    ::

    * Orbital Energies and Occupations

         #    Occupation            Energy/Eh            Energy/eV
      -------------------------------------------------------------
         1        2.0000           -0.6949909             -18.9117
       ...           ...                  ...                  ...
       107        2.0000           -0.4129787             -11.2377
       108        2.0000           -0.4114103             -11.1950
       109        2.0000           -0.4098832             -11.1535
       110        2.0000           -0.4084318             -11.1140
       111        2.0000           -0.4053166             -11.0292
       112        2.0000           -0.4014890             -10.9251
       113        2.0000           -0.4008917             -10.9088
       114        2.0000           -0.3973713             -10.8130
       115        2.0000           -0.3971092             -10.8059
       116        2.0000           -0.3929392             -10.6924
       117        2.0000           -0.3646365              -9.9223
       118        1.0000           -0.3421880              -9.3114
       119        1.0000           -0.2836780              -7.7193 (HOMO)
       120                         -0.2504861              -6.8161 (LUMO)
       121                         -0.2487257              -6.7682
       122                         -0.2364909              -6.4352
       123                         -0.2340830              -6.3697
       124                         -0.2334319              -6.3520
       125                         -0.2331330              -6.3439
       126                         -0.2293890              -6.2420
       127                         -0.2285314              -6.2187
       128                         -0.2252246              -6.1287
       129                         -0.2238708              -6.0918
       130                         -0.2178732              -5.9286
       ...                                ...                  ...
       237                          1.1634260              31.6584
      -------------------------------------------------------------
                  HL-Gap            0.0331919 Eh            0.9032 eV

     #   Z          covCN         q      C6AA      α(0)
     1   6 C        3.757    -0.112    22.691     6.791
     2   6 C        2.965     0.018    27.613     8.619
     3   6 C        2.923    -0.038    28.951     8.824
     4   6 C        2.919    -0.046    29.150     8.854
     5   6 C        2.925     0.062    26.601     8.458
     6   7 N        2.751    -0.034    21.897     6.950
     7   6 C        2.925     0.062    26.602     8.458
     8   6 C        2.919    -0.046    29.147     8.853
     9   6 C        2.923    -0.038    28.953     8.824
    10   6 C        2.965     0.018    27.612     8.619
    11   6 C        3.757    -0.112    22.691     6.791
    12   6 C        2.924    -0.037    28.929     8.820
    13   6 C        2.921    -0.043    29.073     8.842
    14   6 C        2.922     0.021    27.543     8.606
    15   6 C        2.975     0.001    27.997     8.679
    16   6 C        2.920    -0.047    29.160     8.855
    17   6 C        2.915    -0.034    28.857     8.809
    18   6 C        2.913    -0.037    28.922     8.819
    19   6 C        2.921    -0.044    29.082     8.843
    20   6 C        2.978     0.004    27.919     8.667
    21   6 C        2.972    -0.018    28.456     8.750
    22   6 C        2.974     0.020    27.564     8.612
    23   6 C        2.923    -0.033    28.823     8.804
    24   6 C        2.970    -0.029    28.732     8.792
    25   6 C        2.919     0.005    27.920     8.665
    26  15 P        4.068     0.043   158.345    22.604
    27   8 O        0.808    -0.403    21.757     6.253
    28   6 C        2.920     0.012    27.746     8.638
    29   6 C        2.973    -0.026    28.644     8.779
    30   6 C        2.919    -0.027    28.676     8.782
    31   6 C        2.920    -0.024    28.612     8.772
    32   6 C        2.919    -0.027    28.669     8.780
    33   6 C        3.024    -0.019    28.454     8.750
    34   6 C        2.920     0.012    27.740     8.637
    35   6 C        3.027    -0.019    28.451     8.749
    36   6 C        2.918    -0.027    28.667     8.780
    37   6 C        2.920    -0.024    28.615     8.772
    38   6 C        2.919    -0.027    28.676     8.782
    39   6 C        2.970    -0.026    28.650     8.780
    40   6 C        3.021    -0.022    28.529     8.761
    41   6 C        2.922    -0.033    28.814     8.803
    42   6 C        2.978     0.004    27.921     8.668
    43   6 C        2.921    -0.043    29.068     8.841
    44   6 C        2.913    -0.037    28.915     8.818
    45   6 C        2.915    -0.034    28.852     8.808
    46   6 C        2.920    -0.047    29.161     8.855
    47   6 C        2.975     0.001    27.996     8.679
    48   6 C        2.921    -0.043    29.072     8.842
    49   6 C        2.924    -0.037    28.931     8.821
    50   1 H        0.925     0.047     2.352     2.398
    51   1 H        0.925     0.053     2.283     2.363
    52   1 H        0.925     0.053     2.286     2.364
    53   1 H        0.926     0.040     2.445     2.445
    54   1 H        0.926     0.039     2.463     2.454
    55   1 H        0.926     0.039     2.465     2.455
    56   1 H        0.926     0.041     2.442     2.444
    57   1 H        0.925     0.048     2.339     2.392
    58   1 H        0.925     0.050     2.323     2.383
    59   1 H        0.924     0.055     2.257     2.350
    60   1 H        0.926     0.040     2.454     2.450
    61   1 H        0.926     0.035     2.515     2.480
    62   1 H        0.926     0.024     2.670     2.555
    63   1 H        0.926     0.025     2.661     2.551
    64   1 H        0.926     0.024     2.674     2.557
    65   1 H        0.926     0.025     2.657     2.549
    66   1 H        0.926     0.040     2.443     2.444
    67   1 H        0.926     0.041     2.441     2.443
    68   1 H        0.926     0.042     2.418     2.432
    69   1 H        0.926     0.045     2.379     2.412
    70   1 H        0.926     0.046     2.367     2.406
    71   1 H        0.926     0.043     2.407     2.426
    72   1 H        0.925     0.044     2.390     2.418
    73   1 H        0.925     0.044     2.401     2.423
    74   1 H        0.926     0.043     2.406     2.426
    75   1 H        0.926     0.046     2.369     2.407
    76   1 H        0.926     0.045     2.383     2.414
    77   1 H        0.926     0.042     2.417     2.431
    78   1 H        0.925     0.041     2.429     2.437
    79   1 H        0.926     0.038     2.481     2.463
    80   1 H        0.926     0.024     2.675     2.558
    81   1 H        0.926     0.023     2.690     2.565
    82   1 H        0.926     0.025     2.659     2.550
    83   1 H        0.926     0.025     2.661     2.551
    84   1 H        0.926     0.035     2.522     2.483
    85   1 H        0.926     0.040     2.453     2.449

molecular dipole:
                 x           y           z       tot (Debye)
 q only:       -3.055      -0.409      -2.077
   full:       -2.953      -0.417      -2.142       9.333

 projected vibrational frequencies (cm⁻¹)
eigval :       -0.00    -0.00    -0.00     0.00     0.00     0.00
eigval :        7.48    11.02    17.99    23.08    26.89    28.96
eigval :       34.72    39.34    44.51    45.82    49.47    53.52
eigval :       56.60    60.02    62.86    70.66    75.00    89.85
eigval :      117.89   123.97   132.66   140.02   154.87   155.93
eigval :      156.45   162.47   190.59   199.69   218.49   223.87
eigval :      229.30   232.63   257.29   262.40   282.53   289.22
eigval :      293.50   319.33   323.84   350.38   352.45   357.40
eigval :      358.13   364.87   368.32   375.44   378.13   390.03
eigval :      394.22   397.58   400.74   406.54   427.05   437.76
eigval :      443.00   445.97   475.41   476.89   487.35   496.40
eigval :      505.58   515.59   527.04   567.28   575.33   579.12
eigval :      583.00   585.27   586.18   598.48   609.45   610.02
eigval :      613.91   630.10   656.08   658.57   661.73   663.42
eigval :      667.05   674.68   679.45   689.52   707.44   713.11
eigval :      731.42   739.60   745.97   746.87   754.31   789.02
eigval :      792.50   801.48   804.96   813.82   834.97   835.69
eigval :      857.14   863.70   870.48   871.73   876.26   879.08
eigval :      882.76   885.80   890.70   900.79   902.11   903.59
eigval :      905.53   912.03   915.72   916.99   921.75   924.79
eigval :      925.05   926.14   928.14   930.05   931.27   931.91
eigval :      934.35   954.08   971.08   974.36  1003.95  1005.51
eigval :     1008.19  1009.13  1023.11  1028.32  1030.25  1077.22
eigval :     1077.46  1092.82  1105.44  1109.22  1111.81  1113.06
eigval :     1117.86  1119.12  1121.31  1124.88  1131.67  1141.75
eigval :     1143.88  1160.15  1175.69  1178.59  1181.89  1183.38
eigval :     1185.99  1189.14  1190.65  1190.93  1195.32  1203.26
eigval :     1218.69  1224.40  1231.78  1238.74  1260.29  1261.77
eigval :     1261.98  1269.36  1270.99  1271.99  1276.47  1296.95
eigval :     1306.39  1308.43  1308.78  1316.69  1318.83  1319.84
eigval :     1325.46  1329.38  1340.33  1358.29  1365.19  1378.73
eigval :     1390.95  1398.60  1401.61  1411.84  1412.81  1419.04
eigval :     1421.09  1421.63  1422.27  1451.43  1452.41  1456.15
eigval :     1471.56  1472.00  1472.38  1474.25  1476.61  1479.05
eigval :     1484.01  1499.97  1526.94  1530.52  1532.33  1546.85
eigval :     1555.19  1559.81  1564.86  1581.35  1581.59  1584.71
eigval :     1585.44  1588.90  1595.56  2990.67  3002.27  3015.95
eigval :     3030.54  3041.66  3046.14  3062.71  3063.85  3064.75
eigval :     3066.19  3068.89  3069.22  3069.61  3071.16  3072.39
eigval :     3073.29  3075.32  3075.62  3076.08  3076.31  3077.87
eigval :     3079.09  3079.55  3079.99  3081.66  3082.12  3084.86
eigval :     3085.88  3087.91  3088.65  3091.16  3091.52  3093.53
eigval :     3096.12  3103.51  3104.48

   temp. (K)  partition function   enthalpy   heat capacity  entropy
                                   cal/mol     cal/K/mol   cal/K/mol   J/K/mol
 298.15  VIB  0.102E+22            25413.619    153.793    161.116
         ROT  0.103E+09              888.752      2.981     39.644
         INT  0.105E+30            26302.371    156.774    200.760
         TR   0.160E+29             1481.254      4.968     45.276
         TOT                       27783.6251   161.7423   246.0358  1029.4138

       T/K    H(0)-H(T)+PV         H(T)/Eh          T*S/Eh         G(T)/Eh
   ------------------------------------------------------------------------
    298.15    0.442760E-01    0.705216E+00    0.116900E+00    0.588316E+00
   ------------------------------------------------------------------------

         :::::::::::::::::::::::::::::::::::::::::::::::::::::
         ::                  THERMODYNAMIC                  ::
         :::::::::::::::::::::::::::::::::::::::::::::::::::::
         :: total free energy        -125.829125739576 Eh   ::
         ::.................................................::
         :: total energy             -126.417442124068 Eh   ::
         :: zero point energy           0.660939911325 Eh   ::
         :: G(RRHO) w/o ZPVE           -0.072623526833 Eh   ::
         :: G(RRHO) contrib.            0.588316384492 Eh   ::
         :::::::::::::::::::::::::::::::::::::::::::::::::::::

           -------------------------------------------------
          | TOTAL ENERGY             -126.417442124068 Eh   |
          | TOTAL ENTHALPY           -125.712226187847 Eh   |
          | TOTAL FREE ENERGY        -125.829125739576 Eh   |
          | GRADIENT NORM               0.000051014932 Eh/α |
          | HOMO-LUMO GAP               0.903198004602 eV   |
           -------------------------------------------------

 * finished run on 2025/09/08 at 15:54:30.114
