   * xtb version 6.7.1 (edcfbbe) compiled by 'albert@albert-system' on 2024-07-22

   ID    Z sym.   atoms
    1    6 C      1-5, 7-25, 28-49
    2    7 N      6
    3   15 P      26
    4    8 O      27
    5    1 H      50-85

          program call               : xtb data2507/toluene/TAA-PPO/TAA-PPO_toluene_T1_crest.xyz --gfn 2 --uhf 2 --gbsa toluene --ohess vtight --parallel 40 --molden --ceasefiles --namespace data2507/toluene/TAA-PPO/TAA-PPO_toluene_T1_finalOpt
      * Solvation model:               GBSA
        Solvent                        toluene
        Solvent mass                       9.2140E+01 g/mol
          :  Hamiltonian                  GFN2-xTB          :
 * total energy  :  -126.4176951 Eh     change       -0.1744439E-08 Eh
 * total energy  :  -126.4178047 Eh     change       -0.1095855E-03 Eh
 * total energy  :  -126.4178492 Eh     change       -0.4450639E-04 Eh
 * total energy  :  -126.4178636 Eh     change       -0.1437403E-04 Eh
 * total energy  :  -126.4178780 Eh     change       -0.1442039E-04 Eh
 * total energy  :  -126.4178940 Eh     change       -0.1595325E-04 Eh
 * total energy  :  -126.4179022 Eh     change       -0.8186376E-05 Eh
 * total energy  :  -126.4179069 Eh     change       -0.4750128E-05 Eh
 * total energy  :  -126.4179107 Eh     change       -0.3792186E-05 Eh
 * total energy  :  -126.4179128 Eh     change       -0.2114582E-05 Eh
 * total energy  :  -126.4179239 Eh     change       -0.1986410E-05 Eh
 * total energy  :  -126.4179255 Eh     change       -0.1599312E-05 Eh
 * total energy  :  -126.4179272 Eh     change       -0.1619534E-05 Eh
 * total energy  :  -126.4179288 Eh     change       -0.1665380E-05 Eh
 * total energy  :  -126.4179304 Eh     change       -0.1547852E-05 Eh
 * total energy  :  -126.4179314 Eh     change       -0.1010079E-05 Eh
 * total energy  :  -126.4179320 Eh     change       -0.5746983E-06 Eh
 * total energy  :  -126.4179324 Eh     change       -0.4222889E-06 Eh
 * total energy  :  -126.4179324 Eh     change       -0.8805529E-08 Eh
   *** GEOMETRY OPTIMIZATION CONVERGED AFTER 22 ITERATIONS ***

 final structure:
================
85
 xtb: 6.7.1 (edcfbbe)
C           -6.96404314910460       -4.45311017773184        2.88143212357152
C           -6.34469791257333       -3.31862976889166        2.12623603283042
C           -6.97295245982102       -2.77841134535922        1.00751307545748
C           -6.41976150443509       -1.72101407836445        0.31625138494638
C           -5.20912639747730       -1.16166127931799        0.73579967342445
N           -4.61745805313652       -0.10079867982754        0.05372619024335
C           -5.38485797712330        0.86497298895593       -0.59436133014322
C           -6.64177724981014        1.24734865283351       -0.11549579823944
C           -7.37300906988261        2.21082664594600       -0.77689763219125
C           -6.88289566702112        2.83055442854699       -1.92399508945066
C           -7.68230328154784        3.88966994413473       -2.61699241238927
C           -5.62722070174358        2.45363494178561       -2.38881943027474
C           -4.88595766305659        1.48720912768154       -1.74112410771124
C           -3.22197403627995       -0.00084576768786        0.01662829383227
C           -2.45275736093923       -1.08286100059958       -0.51438956393732
C           -3.05079225435337       -2.22030240954448       -1.06797552250229
C           -2.29701967087187       -3.22449068250441       -1.66131158449400
C           -0.92531385748369       -3.09387560461101       -1.75126125612389
C           -0.30752675455936       -1.96089828703310       -1.23979490026493
C           -1.03316048391889       -0.95448007829539       -0.58943559896626
C           -0.39684641428834        0.22596193899110       -0.09867094797834
C            1.05371561576350        0.35416559596974       -0.17939000619633
C            1.64316944261368        1.43798253842501       -0.84402899194208
C            3.01360671931491        1.54386697933187       -0.94088987836388
C            3.83757085558110        0.58067247461158       -0.36697044899640
P            5.62951411556240        0.78933865032975       -0.53245092906250
O            6.00400178613907        1.98253228659858       -1.31967000528276
C            6.28541639400668       -0.75013879967248       -1.26431865142678
C            5.48847658877157       -1.63551331032192       -1.97399398058838
C            6.05987868159388       -2.74449256575804       -2.57552445115222
C            7.42393641483911       -2.96399652979215       -2.47489699537807
C            8.22377935187851       -2.07095181022946       -1.77806809595932
C            7.65512205835736       -0.96369002424171       -1.17558536025354
C            6.29112888074669        0.82818311745172        1.16476071556685
C            6.60442193164942        2.07268819775280        1.69451003015769
C            7.09259003199830        2.17530659050444        2.98502181907910
C            7.26383139127896        1.03198738014272        3.74926624614091
C            6.95007082149121       -0.21155052012997        3.22253550554137
C            6.46287898420563       -0.31706818893232        1.93228119376966
C            3.26646756059537       -0.48988694058492        0.31851888454190
C            1.89698047687524       -0.60516939808530        0.40021707457356
C           -1.17011035283419        1.28707473926684        0.46200654501093
C           -0.56131024298530        2.39547576384250        1.06446041396778
C           -1.30766672965262        3.41372450362025        1.64167593029021
C           -2.68541877884032        3.32243091217891        1.66722993640310
C           -3.31686363596771        2.21228268722963        1.12186710230902
C           -2.59264243020806        1.18644341450028        0.50478587489382
C           -4.57195852595266       -1.70237660898399        1.85562425482589
C           -5.13555453281310       -2.76253110104313        2.53367459959720
H           -6.20092942183490       -5.06553681461652        3.35612134390988
H           -7.56245985195037       -5.07763364151035        2.22203748000170
H           -7.61901251857701       -4.06543307427284        3.66322655584441
H           -7.90579433862978       -3.20249738206402        0.66459267564102
H           -6.90683549110310       -1.33756541816555       -0.56849310344170
H           -7.02738968563296        0.79992471535814        0.78906046376219
H           -8.34063003484162        2.49795874171305       -0.39107494682054
H           -8.73431579512915        3.61420091915531       -2.65859226094965
H           -7.60559244880117        4.83076546241090       -2.07084478751606
H           -7.31807029826145        4.05328648364528       -3.62810823849820
H           -5.22610051616439        2.91764366195754       -3.27841907751596
H           -3.91823922031237        1.19390146124622       -2.12094799504298
H           -4.12323085633392       -2.32983360595137       -1.04416046503035
H           -2.79341760061418       -4.09607347804092       -2.06226939681860
H           -0.33041807038067       -3.85818000509712       -2.22954089968700
H            0.75748078494986       -1.84378620306294       -1.36803011239523
H            1.00938574296323        2.17753334936141       -1.31232891062030
H            3.47367400450224        2.36665067947078       -1.47125628753570
H            4.42527044300361       -1.45385572540650       -2.05169028914786
H            5.43848400705880       -3.43631962406356       -3.12539037483968
H            7.86666539689383       -3.83004515865461       -2.94448733841558
H            9.28857591682996       -2.23795352463664       -1.70577802770727
H            8.26251823173038       -0.25154549829192       -0.63113788647362
H            6.47185216885618        2.94805851025383        1.07301034246897
H            7.34090099890440        3.14434434631046        3.39292675862706
H            7.64740413486598        1.10929083762299        4.75601445190932
H            7.08955536987181       -1.10182861695675        3.81839077540291
H            6.23363457175335       -1.28596969883833        1.51184912033123
H            3.90281339643134       -1.23020163957028        0.78106954279552
H            1.45728915180617       -1.43017043796182        0.94241004185043
H            0.51607052751920        2.45150783285452        1.09979804095041
H           -0.80452150293160        4.26294668882959        2.08050871591431
H           -3.27900305059746        4.10291717503018        2.12039028436418
H           -4.39144625467311        2.14829236571614        1.18727509698561
H           -3.63799644475474       -1.27332103856324        2.18800029773203
H           -4.63066673459774       -3.16300818359768        3.40097241005555

          :  Hamiltonian                  GFN2-xTB          :
         :: gradient norm              0.000123890848 Eh/a0 ::
         :: HOMO-LUMO gap              0.848242359598 eV    ::
         :: SCC energy              -128.740920338161 Eh    ::
         :: -> dispersion             -0.121818091969 Eh    ::
         :: -> Gsolv                  -0.057596065744 Eh    ::
         :: repulsion energy           2.322987943406 Eh    ::

    * Orbital Energies and Occupations

         #    Occupation            Energy/Eh            Energy/eV
      -------------------------------------------------------------
         1        2.0000           -0.6951023             -18.9147
       ...           ...                  ...                  ...
       107        2.0000           -0.4125361             -11.2257
       108        2.0000           -0.4113688             -11.1939
       109        2.0000           -0.4104062             -11.1677
       110        2.0000           -0.4087468             -11.1226
       111        2.0000           -0.4069431             -11.0735
       112        2.0000           -0.4029130             -10.9638
       113        2.0000           -0.3982882             -10.8380
       114        2.0000           -0.3981826             -10.8351
       115        2.0000           -0.3972028             -10.8084
       116        2.0000           -0.3956341             -10.7658
       117        2.0000           -0.3658632              -9.9556
       118        1.0000           -0.3417185              -9.2986
       119        1.0000           -0.2844944              -7.7415 (HOMO)
       120                         -0.2533224              -6.8933 (LUMO)
       121                         -0.2437730              -6.6334
       122                         -0.2366179              -6.4387
       123                         -0.2352462              -6.4014
       124                         -0.2330669              -6.3421
       125                         -0.2327083              -6.3323
       126                         -0.2291390              -6.2352
       127                         -0.2285587              -6.2194
       128                         -0.2254885              -6.1359
       129                         -0.2244429              -6.1074
       130                         -0.2183808              -5.9424
       ...                                ...                  ...
       237                          1.1928798              32.4599
      -------------------------------------------------------------
                  HL-Gap            0.0311719 Eh            0.8482 eV

     #   Z          covCN         q      C6AA      α(0)
     1   6 C        3.757    -0.112    22.691     6.791
     2   6 C        2.965     0.018    27.611     8.619
     3   6 C        2.924    -0.038    28.954     8.824
     4   6 C        2.919    -0.046    29.148     8.853
     5   6 C        2.925     0.062    26.603     8.458
     6   7 N        2.751    -0.034    21.898     6.950
     7   6 C        2.925     0.062    26.605     8.459
     8   6 C        2.919    -0.046    29.147     8.853
     9   6 C        2.924    -0.039    28.958     8.825
    10   6 C        2.965     0.018    27.611     8.619
    11   6 C        3.757    -0.112    22.691     6.791
    12   6 C        2.923    -0.037    28.922     8.819
    13   6 C        2.921    -0.043    29.074     8.842
    14   6 C        2.923     0.021    27.549     8.607
    15   6 C        2.975     0.001    27.991     8.678
    16   6 C        2.920    -0.047    29.165     8.856
    17   6 C        2.915    -0.034    28.846     8.807
    18   6 C        2.914    -0.037    28.917     8.818
    19   6 C        2.922    -0.043    29.073     8.842
    20   6 C        2.977     0.005    27.913     8.666
    21   6 C        2.973    -0.017    28.440     8.748
    22   6 C        2.974     0.019    27.580     8.614
    23   6 C        2.922    -0.033    28.830     8.805
    24   6 C        3.016    -0.023    28.545     8.764
    25   6 C        2.919     0.005    27.921     8.665
    26  15 P        4.067     0.038   158.535    22.618
    27   8 O        0.808    -0.401    21.726     6.248
    28   6 C        2.920     0.015    27.688     8.629
    29   6 C        2.976    -0.023    28.571     8.768
    30   6 C        2.920    -0.026    28.664     8.780
    31   6 C        2.920    -0.025    28.622     8.773
    32   6 C        2.919    -0.026    28.661     8.779
    33   6 C        3.019    -0.019    28.456     8.750
    34   6 C        2.920     0.012    27.752     8.639
    35   6 C        3.023    -0.020    28.472     8.753
    36   6 C        2.918    -0.027    28.679     8.782
    37   6 C        2.920    -0.025    28.618     8.773
    38   6 C        2.919    -0.027    28.674     8.781
    39   6 C        2.974    -0.024    28.608     8.774
    40   6 C        2.975    -0.029    28.711     8.789
    41   6 C        2.923    -0.033    28.826     8.805
    42   6 C        2.977     0.005    27.916     8.667
    43   6 C        2.922    -0.043    29.058     8.840
    44   6 C        2.914    -0.037    28.913     8.817
    45   6 C        2.915    -0.034    28.844     8.807
    46   6 C        2.920    -0.047    29.160     8.855
    47   6 C        2.975     0.001    27.992     8.679
    48   6 C        2.921    -0.043    29.073     8.842
    49   6 C        2.923    -0.037    28.925     8.820
    50   1 H        0.925     0.049     2.337     2.390
    51   1 H        0.925     0.050     2.325     2.385
    52   1 H        0.924     0.055     2.256     2.349
    53   1 H        0.926     0.041     2.438     2.442
    54   1 H        0.926     0.039     2.464     2.455
    55   1 H        0.926     0.039     2.460     2.453
    56   1 H        0.926     0.041     2.429     2.437
    57   1 H        0.925     0.051     2.303     2.373
    58   1 H        0.924     0.055     2.264     2.353
    59   1 H        0.925     0.047     2.354     2.399
    60   1 H        0.926     0.039     2.469     2.457
    61   1 H        0.926     0.035     2.521     2.483
    62   1 H        0.926     0.025     2.656     2.549
    63   1 H        0.926     0.025     2.655     2.548
    64   1 H        0.926     0.024     2.669     2.555
    65   1 H        0.926     0.026     2.649     2.545
    66   1 H        0.926     0.038     2.478     2.462
    67   1 H        0.925     0.043     2.405     2.425
    68   1 H        0.925     0.037     2.494     2.470
    69   1 H        0.926     0.045     2.388     2.416
    70   1 H        0.926     0.047     2.361     2.403
    71   1 H        0.926     0.044     2.392     2.419
    72   1 H        0.925     0.036     2.497     2.471
    73   1 H        0.925     0.045     2.383     2.414
    74   1 H        0.926     0.043     2.414     2.429
    75   1 H        0.926     0.046     2.371     2.408
    76   1 H        0.926     0.045     2.378     2.411
    77   1 H        0.926     0.041     2.439     2.442
    78   1 H        0.926     0.041     2.433     2.439
    79   1 H        0.926     0.041     2.431     2.438
    80   1 H        0.926     0.025     2.664     2.552
    81   1 H        0.926     0.023     2.682     2.561
    82   1 H        0.926     0.025     2.655     2.548
    83   1 H        0.926     0.025     2.655     2.548
    84   1 H        0.926     0.035     2.514     2.479
    85   1 H        0.926     0.039     2.456     2.451

molecular dipole:
                 x           y           z       tot (Debye)
 q only:       -3.167      -1.746       1.180
   full:       -3.084      -1.771       1.253       9.584

 projected vibrational frequencies (cm⁻¹)
eigval :       -0.00    -0.00    -0.00    -0.00     0.00     0.00
eigval :      -23.08     4.58    11.01    15.27    20.46    27.98
eigval :       31.69    36.64    37.99    39.61    45.70    49.68
eigval :       52.88    55.00    59.04    69.92    76.44    89.16
eigval :      113.60   118.74   126.42   136.86   143.93   154.48
eigval :      157.25   163.24   196.36   201.10   215.92   228.11
eigval :      231.80   237.74   259.92   263.85   272.52   286.56
eigval :      291.24   319.53   322.51   344.07   353.01   361.38
eigval :      363.52   364.97   367.16   372.17   376.80   387.12
eigval :      388.95   390.75   401.26   412.55   434.03   439.48
eigval :      441.06   459.13   473.87   478.26   485.71   495.84
eigval :      505.88   513.86   525.62   566.15   575.87   579.16
eigval :      582.40   585.24   586.00   599.41   608.38   610.86
eigval :      613.81   630.60   657.91   658.76   661.73   662.94
eigval :      666.40   675.54   679.65   691.07   707.80   714.88
eigval :      731.83   738.50   745.21   747.97   754.46   789.09
eigval :      792.01   802.52   803.68   813.47   834.84   835.98
eigval :      857.39   864.33   869.21   871.24   875.44   878.71
eigval :      883.36   885.89   890.94   900.77   901.93   904.45
eigval :      905.21   911.99   915.75   916.96   921.68   924.86
eigval :      924.90   925.98   927.54   931.80   931.97   933.14
eigval :      933.61   953.34   971.18   974.81  1003.17  1007.83
eigval :     1008.52  1009.34  1023.65  1028.73  1029.32  1075.60
eigval :     1076.53  1092.90  1107.25  1110.69  1110.89  1111.43
eigval :     1116.53  1120.17  1120.68  1126.26  1131.48  1142.59
eigval :     1145.96  1161.49  1176.02  1176.92  1182.53  1183.86
eigval :     1186.02  1187.22  1189.48  1191.62  1196.88  1203.74
eigval :     1214.40  1225.29  1232.25  1240.70  1260.41  1261.36
eigval :     1262.56  1268.62  1270.65  1271.65  1277.40  1299.81
eigval :     1307.23  1308.63  1310.89  1317.00  1319.79  1320.56
eigval :     1323.84  1329.19  1340.09  1355.63  1362.56  1379.58
eigval :     1393.94  1401.05  1401.87  1411.81  1412.81  1418.75
eigval :     1420.49  1421.55  1423.37  1450.99  1452.83  1454.94
eigval :     1471.15  1472.00  1473.79  1475.08  1475.53  1477.78
eigval :     1484.10  1503.24  1524.50  1529.51  1534.38  1546.27
eigval :     1555.08  1560.11  1564.26  1580.31  1583.19  1584.41
eigval :     1586.14  1588.74  1595.12  2989.35  2992.73  3027.76
eigval :     3035.72  3038.58  3043.14  3045.89  3063.94  3064.27
eigval :     3065.17  3067.06  3068.37  3069.96  3071.71  3073.53
eigval :     3074.31  3075.19  3075.46  3075.60  3076.46  3078.17
eigval :     3078.98  3080.09  3080.58  3081.01  3082.86  3085.41
eigval :     3086.41  3088.06  3089.23  3091.17  3091.69  3091.96
eigval :     3096.43  3105.84  3108.39

   temp. (K)  partition function   enthalpy   heat capacity  entropy
                                   cal/mol     cal/K/mol   cal/K/mol   J/K/mol
 298.15  VIB  0.659E+21            24946.815    151.967    158.082
         ROT  0.103E+09              888.752      2.981     39.647
         INT  0.679E+29            25835.567    154.948    197.730
         TR   0.160E+29             1481.254      4.968     45.276
         TOT                       27316.8210   159.9163   243.0053  1016.7343

       T/K    H(0)-H(T)+PV         H(T)/Eh          T*S/Eh         G(T)/Eh
   ------------------------------------------------------------------------
    298.15    0.435321E-01    0.704266E+00    0.115460E+00    0.588806E+00
   ------------------------------------------------------------------------

         :::::::::::::::::::::::::::::::::::::::::::::::::::::
         ::                  THERMODYNAMIC                  ::
         :::::::::::::::::::::::::::::::::::::::::::::::::::::
         :: total free energy        -125.829126030979 Eh   ::
         ::.................................................::
         :: total energy             -126.417932397791 Eh   ::
         :: zero point energy           0.660733912851 Eh   ::
         :: G(RRHO) w/o ZPVE           -0.071927546039 Eh   ::
         :: G(RRHO) contrib.            0.588806366812 Eh   ::
         :::::::::::::::::::::::::::::::::::::::::::::::::::::

           -------------------------------------------------
          | TOTAL ENERGY             -126.417932397791 Eh   |
          | TOTAL ENTHALPY           -125.713666359712 Eh   |
          | TOTAL FREE ENERGY        -125.829126030979 Eh   |
          | GRADIENT NORM               0.000123704644 Eh/α |
          | HOMO-LUMO GAP               0.848231071903 eV   |
           -------------------------------------------------

 * finished run on 2025/09/08 at 16:05:39.732
