   * xtb version 6.7.1 (edcfbbe) compiled by 'albert@albert-system' on 2024-07-22

   ID    Z sym.   atoms
    1    6 C      1-12, 14-22, 25-33, 35-50, 52-55
    2    7 N      13, 23, 24, 34
    3    8 O      51
    4    1 H      56-87

          program call               : xtb data2507/toluene/Oxd-bCZ/Oxd-bCZ_toluene_S0_crest.xyz --gfn 2 --gbsa toluene --ohess vtight --parallel 40 --molden --ceasefiles --namespace data2507/toluene/Oxd-bCZ/Oxd-bCZ_toluene_S0_finalOpt
      * Solvation model:               GBSA
        Solvent                        toluene
        Solvent mass                       9.2140E+01 g/mol
          :  Hamiltonian                  GFN2-xTB          :
 * total energy  :  -139.2777413 Eh     change       -0.1951179E-08 Eh
 * total energy  :  -139.2777746 Eh     change       -0.3332497E-04 Eh
 * total energy  :  -139.2777878 Eh     change       -0.1317543E-04 Eh
 * total energy  :  -139.2777931 Eh     change       -0.5367627E-05 Eh
 * total energy  :  -139.2777976 Eh     change       -0.4489777E-05 Eh
 * total energy  :  -139.2778005 Eh     change       -0.2899795E-05 Eh
 * total energy  :  -139.2778029 Eh     change       -0.2426606E-05 Eh
 * total energy  :  -139.2778052 Eh     change       -0.2300122E-05 Eh
 * total energy  :  -139.2778076 Eh     change       -0.2378281E-05 Eh
 * total energy  :  -139.2778093 Eh     change       -0.1653749E-05 Eh
 * total energy  :  -139.2778361 Eh     change       -0.1407158E-05 Eh
 * total energy  :  -139.2778374 Eh     change       -0.1311998E-05 Eh
 * total energy  :  -139.2778387 Eh     change       -0.1285693E-05 Eh
 * total energy  :  -139.2778400 Eh     change       -0.1248608E-05 Eh
 * total energy  :  -139.2778414 Eh     change       -0.1404336E-05 Eh
 * total energy  :  -139.2778430 Eh     change       -0.1604530E-05 Eh
 * total energy  :  -139.2778445 Eh     change       -0.1557650E-05 Eh
 * total energy  :  -139.2778458 Eh     change       -0.1230430E-05 Eh
 * total energy  :  -139.2778458 Eh     change       -0.6074657E-08 Eh
   *** GEOMETRY OPTIMIZATION CONVERGED AFTER 44 ITERATIONS ***

 final structure:
================
87
 xtb: 6.7.1 (edcfbbe)
C          -14.03617525404540        1.09107515496326        0.59994077859839
C          -12.89161460354918        1.88036449932033        0.69620951487752
C          -11.63064990241172        1.34984455001284        0.50055837988560
C          -11.53545272073150       -0.00065999000203        0.19465134593679
C          -12.68969820151776       -0.81404491791742        0.11606465435838
C          -13.94652203862503       -0.25762579526239        0.31771888181960
C          -12.23183852061420       -2.14571743757460       -0.16824108644456
C          -12.88126405062819       -3.35549444986788       -0.37921011985109
C          -12.12255349764896       -4.47385704987410       -0.66281431071798
C          -10.73403706129483       -4.39376055597426       -0.75097415341211
C          -10.06534816845261       -3.20199930218180       -0.54516453432635
C          -10.82088167513149       -2.07882532682043       -0.23828601708291
N          -10.41343044367110       -0.77754806112070       -0.01875566975867
C           -9.08761920121397       -0.32234391812317       -0.01206962143630
C           -8.12759794182904       -0.96287825635278        0.76746695883267
C           -6.82186400854063       -0.51550017924789        0.76663726470230
C           -6.44321042382358        0.58913514654353        0.00407100845463
C           -5.05564072330525        1.06953683942139        0.01161658347080
C           -3.98996765873160        0.16845927167288        0.01909133416222
C           -2.68550669850244        0.61568587558347        0.01856360462765
C           -2.41616286271226        1.98465301297010        0.01476399817518
C           -1.05861326593707        2.47133664439476        0.00978472217174
N           -0.67134266126404        3.71504568561443       -0.00665923152938
N            0.67075239355715        3.71572411785339       -0.01054102218390
C            1.05934342822803        2.47242333738885        0.00406317326118
C            2.41729738518557        1.98679982882317        0.00488130430295
C            2.68725188393742        0.61841469132884        0.04093576154501
C            3.99184210944976        0.17163386554151        0.03801535237674
C            5.05679754900756        1.07286825356166        0.00385278680881
C            6.44445130331141        0.59251646275622        0.00508357559066
C            7.42439070422810        1.24697979855890        0.75102159215277
C            8.72780598357433        0.79335754639891        0.76215964897053
C            9.08833847290710       -0.32089493017219        0.00819279089246
N           10.41309938104985       -0.77865029155323        0.00975564034530
C           11.53572913702400       -0.00710176845172       -0.22008463272463
C           11.63272197688519        1.33913128532452       -0.54387094511176
C           12.89389084349064        1.86409445981935       -0.75284103579966
C           14.03711141406848        1.07341064370533       -0.65261128425797
C           13.94560072094536       -0.27152050039270       -0.35356414118316
C           12.68853534158515       -0.82219470458238       -0.13822935268946
C           12.22940749900676       -2.14925091803838        0.16482777347963
C           12.87766580238513       -3.35782047955120        0.38607409249481
C           12.11848149674489       -4.47123408030674        0.68726267753294
C           10.73076782117808       -4.38691331306426        0.78345198828534
C           10.06336757922289       -3.19607922867861        0.56827269258135
C           10.81909879324697       -2.07823071462446        0.24285585400535
C            8.11866313002311       -0.97556209335984       -0.74745863206177
C            6.81314351798868       -0.52776177084025       -0.73921459927564
C            4.77610249524773        2.44080969124959       -0.03017783075674
C            3.47573844705046        2.89652641807828       -0.03209335471017
O            0.00081139829373        1.62567839236972        0.01786879559307
C           -3.47524212824172        2.89437508353328        0.01222467525098
C           -4.77533442810207        2.43807589708214        0.00883626136946
C           -7.41349758644754        1.22814253923603       -0.76764226715733
C           -8.71733005129148        0.77601627750384       -0.78423948011181
H          -15.00437569916226        1.54341074498759        0.75778438668716
H          -12.99244227569227        2.92973139030732        0.93272647814407
H          -10.74952538339329        1.96646267801178        0.59443392359339
H          -14.83279382820803       -0.87176625457872        0.25812695088430
H          -13.95823212272033       -3.41460130350104       -0.32630592740994
H          -12.60832316255367       -5.42443808633941       -0.82856254863212
H          -10.16814927261479       -5.28270035644357       -0.98943487054747
H           -8.99073793161073       -3.14732233255136       -0.63327145626769
H           -8.41571682188495       -1.80140071682846        1.38388419983128
H           -6.09252567393381       -1.00860995148403        1.39173892484535
H           -4.18832177542819       -0.89274146424710        0.00266327401548
H           -1.86685147358586       -0.08889921557726        0.01688212187385
H            1.86901025619490       -0.08586333980428        0.07433154720623
H            4.19130870994856       -0.88852621890462        0.08373327336650
H            7.15431659582040        2.10062003579526        1.35442661369443
H            9.47178072221426        1.28996426419600        1.36693496667523
H           10.75276725055085        1.95679770345043       -0.64152059458778
H           12.99585589326665        2.91016795021139       -1.00308285629292
H           15.00555614204016        1.52139862576418       -0.82094509813158
H           14.83062056502867       -0.88718142721767       -0.29119103473148
H           13.95414739344677       -3.41984583320646        0.32708505333628
H           12.60324267524561       -5.42094833876503        0.86071357702613
H           10.16438147516212       -5.27170945525575        1.03572677940789
H            8.98956332875801       -3.13825529751869        0.66349227411719
H            8.39887972398030       -1.82570986126586       -1.35141252394238
H            6.07563134287241       -1.03302012816412       -1.34476330965242
H            5.58862142523756        3.14993672480177       -0.07678900244386
H            3.25064344075049        3.95094439493128       -0.06415814571387
H           -3.25078839158081        3.94940757983394        0.01466329289680
H           -5.58817074497218        3.14814895982399        0.02462179364499
H           -7.13533945624459        2.06812956159514       -1.38626225797759
H           -9.45417698308074        1.26118519687323       -1.40683079584610

          :  Hamiltonian                  GFN2-xTB          :
         :: gradient norm              0.000058408146 Eh/a0 ::
         :: HOMO-LUMO gap              2.003474973664 eV    ::
         :: SCC energy              -141.817294574326 Eh    ::
         :: -> dispersion             -0.115725721069 Eh    ::
         :: -> Gsolv                  -0.061500882925 Eh    ::
         :: repulsion energy           2.539448790154 Eh    ::

    * Orbital Energies and Occupations

         #    Occupation            Energy/Eh            Energy/eV
      -------------------------------------------------------------
         1        2.0000           -0.7708653             -20.9763
       ...           ...                  ...                  ...
       117        2.0000           -0.4186928             -11.3932
       118        2.0000           -0.4153202             -11.3014
       119        2.0000           -0.4152454             -11.2994
       120        2.0000           -0.4147900             -11.2870
       121        2.0000           -0.4055327             -11.0351
       122        2.0000           -0.4055082             -11.0344
       123        2.0000           -0.4020847             -10.9413
       124        2.0000           -0.3918539             -10.6629
       125        2.0000           -0.3902117             -10.6182
       126        2.0000           -0.3789579             -10.3120
       127        2.0000           -0.3789259             -10.3111
       128        2.0000           -0.3628992              -9.8750
       129        2.0000           -0.3624494              -9.8627 (HOMO)
       130                         -0.2888230              -7.8593 (LUMO)
       131                         -0.2697794              -7.3411
       132                         -0.2465010              -6.7076
       133                         -0.2456463              -6.6844
       134                         -0.2375532              -6.4642
       135                         -0.2367653              -6.4427
       136                         -0.2363251              -6.4307
       137                         -0.2337542              -6.3608
       138                         -0.2336906              -6.3590
       139                         -0.2315571              -6.3010
       140                         -0.2223372              -6.0501
       ...                                ...                  ...
       252                          0.7439540              20.2440
      -------------------------------------------------------------
                  HL-Gap            0.0736264 Eh            2.0035 eV

     #   Z          covCN         q      C6AA      α(0)
     1   6 C        2.919    -0.042    29.055     8.839
     2   6 C        2.924    -0.035    28.869     8.811
     3   6 C        2.910    -0.052    29.288     8.874
     4   6 C        3.075     0.047    26.868     8.499
     5   6 C        3.067    -0.018    28.399     8.738
     6   6 C        2.912    -0.035    28.865     8.810
     7   6 C        3.067    -0.018    28.398     8.738
     8   6 C        2.912    -0.035    28.865     8.810
     9   6 C        2.919    -0.043    29.058     8.840
    10   6 C        2.924    -0.035    28.873     8.812
    11   6 C        2.910    -0.052    29.290     8.874
    12   6 C        3.075     0.047    26.868     8.499
    13   7 N        2.802    -0.045    22.100     6.982
    14   6 C        2.912     0.064    26.561     8.451
    15   6 C        2.920    -0.042    29.047     8.838
    16   6 C        2.924    -0.032    28.792     8.799
    17   6 C        2.976     0.009    27.823     8.652
    18   6 C        2.976     0.020    27.556     8.611
    19   6 C        2.923    -0.032    28.798     8.800
    20   6 C        2.921    -0.027    28.680     8.782
    21   6 C        2.974    -0.012    28.320     8.729
    22   6 C        3.162     0.218    23.130     7.861
    23   7 N        2.044    -0.220    26.534     7.641
    24   7 N        2.044    -0.220    26.534     7.641
    25   6 C        3.162     0.218    23.129     7.861
    26   6 C        2.974    -0.012    28.320     8.729
    27   6 C        2.921    -0.027    28.680     8.782
    28   6 C        2.923    -0.032    28.798     8.800
    29   6 C        2.976     0.020    27.555     8.611
    30   6 C        2.976     0.008    27.825     8.653
    31   6 C        2.924    -0.032    28.791     8.799
    32   6 C        2.920    -0.042    29.045     8.838
    33   6 C        2.912     0.064    26.561     8.451
    34   7 N        2.801    -0.044    22.097     6.982
    35   6 C        3.074     0.047    26.869     8.499
    36   6 C        2.910    -0.052    29.287     8.874
    37   6 C        2.924    -0.035    28.869     8.811
    38   6 C        2.919    -0.042    29.055     8.839
    39   6 C        2.912    -0.035    28.865     8.810
    40   6 C        3.067    -0.018    28.398     8.738
    41   6 C        3.067    -0.018    28.397     8.738
    42   6 C        2.912    -0.035    28.865     8.810
    43   6 C        2.919    -0.043    29.057     8.840
    44   6 C        2.924    -0.035    28.873     8.812
    45   6 C        2.910    -0.052    29.290     8.874
    46   6 C        3.075     0.047    26.869     8.499
    47   6 C        2.920    -0.042    29.050     8.839
    48   6 C        2.924    -0.032    28.792     8.800
    49   6 C        2.923    -0.030    28.740     8.791
    50   6 C        2.922    -0.028    28.705     8.786
    51   8 O        1.721    -0.234    17.880     5.709
    52   6 C        2.922    -0.028    28.705     8.786
    53   6 C        2.923    -0.030    28.741     8.792
    54   6 C        2.924    -0.032    28.791     8.799
    55   6 C        2.920    -0.042    29.042     8.837
    56   1 H        0.926     0.028     2.619     2.531
    57   1 H        0.926     0.030     2.582     2.513
    58   1 H        0.926     0.031     2.573     2.509
    59   1 H        0.926     0.030     2.586     2.515
    60   1 H        0.926     0.030     2.586     2.515
    61   1 H        0.926     0.028     2.621     2.532
    62   1 H        0.926     0.030     2.587     2.515
    63   1 H        0.926     0.030     2.580     2.512
    64   1 H        0.926     0.045     2.383     2.414
    65   1 H        0.926     0.045     2.384     2.414
    66   1 H        0.926     0.049     2.331     2.387
    67   1 H        0.926     0.044     2.395     2.420
    68   1 H        0.926     0.044     2.395     2.420
    69   1 H        0.926     0.049     2.331     2.388
    70   1 H        0.926     0.046     2.372     2.409
    71   1 H        0.926     0.045     2.379     2.412
    72   1 H        0.926     0.031     2.572     2.508
    73   1 H        0.926     0.030     2.582     2.513
    74   1 H        0.926     0.028     2.618     2.530
    75   1 H        0.926     0.030     2.586     2.515
    76   1 H        0.926     0.030     2.586     2.515
    77   1 H        0.926     0.028     2.621     2.531
    78   1 H        0.926     0.030     2.587     2.515
    79   1 H        0.926     0.031     2.578     2.511
    80   1 H        0.926     0.045     2.383     2.414
    81   1 H        0.926     0.045     2.386     2.415
    82   1 H        0.926     0.052     2.295     2.369
    83   1 H        0.926     0.055     2.259     2.350
    84   1 H        0.926     0.055     2.259     2.350
    85   1 H        0.926     0.052     2.294     2.369
    86   1 H        0.926     0.046     2.370     2.408
    87   1 H        0.926     0.045     2.379     2.412

molecular dipole:
                 x           y           z       tot (Debye)
 q only:        0.007      -0.800       0.008
   full:        0.008      -1.310       0.015       3.331

 projected vibrational frequencies (cm⁻¹)
eigval :       -0.00    -0.00    -0.00     0.00     0.00     0.00
eigval :        4.55     7.92     8.73    18.78    19.15    29.35
eigval :       34.35    39.26    43.05    50.01    60.23    70.22
eigval :       75.22    82.61    89.02    93.71   102.20   106.78
eigval :      107.61   123.04   138.02   145.21   147.05   150.19
eigval :      178.30   199.62   206.51   229.10   244.51   249.65
eigval :      253.74   271.93   272.16   288.13   293.94   352.92
eigval :      357.40   358.20   369.85   370.05   376.20   384.50
eigval :      385.17   391.91   395.89   401.74   411.67   418.82
eigval :      423.12   423.77   434.85   436.12   439.06   470.23
eigval :      482.76   500.45   500.88   514.97   517.45   517.92
eigval :      529.38   532.46   537.32   539.04   542.53   542.73
eigval :      581.98   582.03   596.11   596.15   602.74   603.11
eigval :      615.88   616.02   626.46   642.75   672.89   674.34
eigval :      676.01   676.69   693.88   694.71   697.39   706.78
eigval :      710.77   713.15   717.13   724.12   754.70   755.42
eigval :      768.44   769.70   773.88   779.66   780.78   783.11
eigval :      809.45   810.76   834.98   835.71   865.19   865.46
eigval :      870.25   870.66   873.44   873.98   878.87   879.84
eigval :      897.15   897.16   901.44   902.31   902.53   903.39
eigval :      917.19   917.40   920.21   920.96   921.42   922.57
eigval :      925.40   926.33   927.31   927.87   930.24   930.47
eigval :      935.28   936.20   959.22   963.79   989.11  1000.70
eigval :     1011.08  1011.12  1014.61  1019.39  1067.97  1068.05
eigval :     1071.22  1071.37  1075.26  1075.64  1084.01  1096.20
eigval :     1116.70  1116.75  1130.93  1131.65  1140.00  1140.77
eigval :     1150.46  1150.48  1173.77  1174.18  1174.19  1179.19
eigval :     1179.22  1182.14  1182.38  1188.56  1191.92  1203.20
eigval :     1204.22  1234.49  1234.60  1241.81  1241.85  1261.68
eigval :     1263.06  1267.82  1268.73  1269.50  1283.56  1297.04
eigval :     1299.26  1300.08  1300.35  1305.85  1312.46  1313.82
eigval :     1316.21  1324.36  1326.62  1355.63  1355.69  1360.17
eigval :     1360.19  1365.30  1365.54  1393.62  1394.15  1412.10
eigval :     1412.43  1426.91  1426.98  1427.21  1427.28  1458.54
eigval :     1459.71  1473.90  1473.96  1486.71  1486.74  1496.87
eigval :     1497.32  1532.83  1535.74  1553.47  1554.78  1563.64
eigval :     1564.82  1573.42  1573.50  1581.50  1582.01  1587.41
eigval :     1587.47  1596.98  1597.02  1597.54  1598.01  1612.78
eigval :     1612.81  3070.30  3070.30  3070.64  3070.64  3076.17
eigval :     3076.23  3077.09  3077.12  3081.97  3082.49  3083.56
eigval :     3084.04  3084.49  3084.54  3084.75  3084.83  3085.64
eigval :     3085.66  3090.48  3090.94  3091.01  3091.22  3093.15
eigval :     3093.16  3093.72  3094.27  3094.78  3095.00  3097.14
eigval :     3097.17  3108.68  3108.98

   temp. (K)  partition function   enthalpy   heat capacity  entropy
                                   cal/mol     cal/K/mol   cal/K/mol   J/K/mol
 298.15  VIB  0.386E+21            24876.608    157.486    156.918
         ROT  0.276E+09              888.752      2.981     41.605
         INT  0.107E+30            25765.360    160.467    198.523
         TR   0.181E+29             1481.254      4.968     45.518
         TOT                       27246.6142   165.4350   244.0412  1021.0685

       T/K    H(0)-H(T)+PV         H(T)/Eh          T*S/Eh         G(T)/Eh
   ------------------------------------------------------------------------
    298.15    0.434202E-01    0.704902E+00    0.115952E+00    0.588950E+00
   ------------------------------------------------------------------------

         :::::::::::::::::::::::::::::::::::::::::::::::::::::
         ::                  THERMODYNAMIC                  ::
         :::::::::::::::::::::::::::::::::::::::::::::::::::::
         :: total free energy        -138.688895870813 Eh   ::
         ::.................................................::
         :: total energy             -139.277845785437 Eh   ::
         :: zero point energy           0.661481537911 Eh   ::
         :: G(RRHO) w/o ZPVE           -0.072531623288 Eh   ::
         :: G(RRHO) contrib.            0.588949914623 Eh   ::
         :::::::::::::::::::::::::::::::::::::::::::::::::::::

           -------------------------------------------------
          | TOTAL ENERGY             -139.277845785437 Eh   |
          | TOTAL ENTHALPY           -138.572944003968 Eh   |
          | TOTAL FREE ENERGY        -138.688895870813 Eh   |
          | GRADIENT NORM               0.000058402043 Eh/α |
          | HOMO-LUMO GAP               2.003475008560 eV   |
           -------------------------------------------------

 * finished run on 2025/08/22 at 14:35:10.768
