   * xtb version 6.7.1 (edcfbbe) compiled by 'albert@albert-system' on 2024-07-22

   ID    Z sym.   atoms
    1    6 C      1-12, 14-22, 25-33, 35-50, 52-55
    2    7 N      13, 23, 24, 34
    3    8 O      51
    4    1 H      56-87

          program call               : xtb data2507/toluene/Oxd-bCZ/Oxd-bCZ_toluene_S0_finalOpt.xtbopt.xyz --gfn 2 --uhf 2 --gbsa toluene --ohess vtight --parallel 40 --molden --ceasefiles --namespace data2507/toluene/Oxd-bCZ/Oxd-bCZ_toluene_T1_preOpt
      * Solvation model:               GBSA
        Solvent                        toluene
        Solvent mass                       9.2140E+01 g/mol
          :  Hamiltonian                  GFN2-xTB          :
 * total energy  :  -139.1884642 Eh     change       -0.2093032E-08 Eh
 * total energy  :  -139.1932831 Eh     change       -0.4818949E-02 Eh
 * total energy  :  -139.1952282 Eh     change       -0.1945107E-02 Eh
 * total energy  :  -139.1955042 Eh     change       -0.2760000E-03 Eh
 * total energy  :  -139.1958431 Eh     change       -0.3388696E-03 Eh
 * total energy  :  -139.1959926 Eh     change       -0.1494628E-03 Eh
 * total energy  :  -139.1961098 Eh     change       -0.1172631E-03 Eh
 * total energy  :  -139.1961655 Eh     change       -0.5569033E-04 Eh
 * total energy  :  -139.1961814 Eh     change       -0.1585959E-04 Eh
 * total energy  :  -139.1961933 Eh     change       -0.1190582E-04 Eh
 * total energy  :  -139.1963409 Eh     change       -0.4336090E-06 Eh
 * total energy  :  -139.1963413 Eh     change       -0.4062592E-06 Eh
 * total energy  :  -139.1963417 Eh     change       -0.3596597E-06 Eh
 * total energy  :  -139.1963420 Eh     change       -0.3597797E-06 Eh
 * total energy  :  -139.1963425 Eh     change       -0.4509584E-06 Eh
 * total energy  :  -139.1963430 Eh     change       -0.5304584E-06 Eh
 * total energy  :  -139.1963436 Eh     change       -0.6299312E-06 Eh
 * total energy  :  -139.1963444 Eh     change       -0.7186762E-06 Eh
 * total energy  :  -139.1963444 Eh     change        0.6991741E-10 Eh
   *** GEOMETRY OPTIMIZATION CONVERGED AFTER 68 ITERATIONS ***

 final structure:
================
87
 xtb: 6.7.1 (edcfbbe)
C          -14.03951629741561        1.12072262639103        0.84207231024989
C          -12.88168995896680        1.88573568006620        0.96042378213659
C          -11.63457116806941        1.35483047979361        0.68598510312911
C          -11.56981239036500        0.03022768664540        0.27355914750182
C          -12.73889727017691       -0.76103662744919        0.17767617838908
C          -13.97887029416014       -0.20771103395292        0.46040017166242
C          -12.30927196187706       -2.07871360222510       -0.21021338331795
C          -12.98372011195049       -3.26038054659545       -0.47936141676634
C          -12.25001510127164       -4.36864146346935       -0.86347122940156
C          -10.86553322007105       -4.29968286279246       -0.99842312683709
C          -10.17217318063989       -3.13183445976179       -0.73795297154136
C          -10.89979142793759       -2.02423573154595       -0.32235077976865
N          -10.46631887584156       -0.74499849840962       -0.02946511009290
C           -9.13992525059360       -0.31176197634740       -0.03296051721453
C           -8.14619241449663       -1.06052138328434        0.60569464914976
C           -6.84031162663278       -0.63349371259957        0.59903584273545
C           -6.46159670749168        0.56378648352245       -0.03573058940476
C           -5.08818701062740        1.01412763875908       -0.03406794007089
C           -4.01643137970938        0.09583090518168        0.01495821990904
C           -2.71623727238488        0.51428965756747        0.00877661141766
C           -2.40298560469658        1.89443885566328       -0.02032552427554
C           -1.07110038795734        2.34425957080366       -0.00676425542343
N           -0.65406922815243        3.60893890633693        0.00793162064279
N            0.65495987017385        3.60871676649214        0.02824244405763
C            1.07188171117759        2.34391277674979        0.02229398266205
C            2.40367619564575        1.89376843626380        0.03059438693835
C            2.71679847459904        0.51415458842096       -0.01896764426362
C            4.01690785346806        0.09555882416725       -0.02783384461901
C            5.08877581065430        1.01276545276558        0.03786508371901
C            6.46203212090339        0.56208146156205        0.03713959703670
C            7.47428183831746        1.29511785914330        0.68363308877051
C            8.78004066676891        0.86748716762741        0.68575967308553
C            9.14003092539767       -0.31458389520522        0.03059918436113
N           10.46624204953344       -0.74845852776071        0.02506071606842
C           11.57083639280549        0.02940043401034       -0.26688137447526
C           11.63720766069864        1.35866035777190       -0.66374880838045
C           12.88513844775319        1.89177304723415       -0.93006649702681
C           14.04221769215985        1.12464477202319       -0.81836520368108
C           13.98002504814234       -0.20803256438831       -0.45203691952730
C           12.73919179283652       -0.76375443112884       -0.17792033797304
C           12.30793539754526       -2.08547211848892        0.19411057893402
C           12.98100268039876       -3.27048367669537        0.45179661852655
C           12.24573754368311       -4.38234464068013        0.82229732776905
C           10.86097848188502       -4.31400710097631        0.95479542943062
C           10.16894459850035       -3.14295560254115        0.70546815184699
C           10.89825950780616       -2.03130039381967        0.30391542276946
C            8.14783461674855       -1.05448345718320       -0.62064341431341
C            6.84216853839540       -0.62689377210185       -0.61231226420250
C            4.76683851210182        2.38784097066783        0.10237754572480
C            3.47253569942597        2.82101768354582        0.08695878224180
O            0.00034418637166        1.48051975132399        0.00063785083354
C           -3.47175614080455        2.82261906470747       -0.06016417386540
C           -4.76619825168297        2.38993311166162       -0.07896227870581
C           -7.47533573594449        1.30577206796311       -0.66945294089565
C           -8.78124018996746        0.87859611795741       -0.67369333047561
H          -14.99566387006944        1.57117144131232        1.06349007855864
H          -12.95815836905084        2.91493838787903        1.27860182023461
H          -10.74243639762708        1.95006805603371        0.80427919632498
H          -14.87516761085274       -0.80495451107744        0.38890857024150
H          -14.05867002181647       -3.30982707374748       -0.39487632796007
H          -12.75589817058175       -5.29921816484686       -1.07399128538580
H          -10.32115477108473       -5.17577861542593       -1.31841064670771
H           -9.10220879728240       -3.08367414851234       -0.86903904698220
H           -8.41985883681913       -1.95959107350662        1.13757318564480
H           -6.09935499149430       -1.20746273182368        1.13372572995433
H           -4.22737588514004       -0.96329482687825        0.01703725542598
H           -1.90613918532874       -0.20054070724802        0.02566029935273
H            1.90662253103269       -0.20016851115362       -0.04884647180764
H            4.22759546193232       -0.96347812989572       -0.04507630494220
H            7.21492932002003        2.18882763940957        1.22976692803436
H            9.53164652897548        1.42425835285579        1.22525660718348
H           10.74561592352994        1.95578670477360       -0.77657498524741
H           12.96283668636337        2.92434508491678       -1.23679707075373
H           14.99903695841709        1.57686744986200       -1.03315472241493
H           14.87584176569638       -0.80660162400709       -0.38581956923348
H           14.05610021919742       -3.31977003225205        0.36912712067725
H           12.75055923384161       -5.31546734019652        1.02389558490044
H           10.31536471076858       -5.19314642088248        1.26414310965000
H            9.09870944995020       -3.09544129400464        0.83461981655704
H            8.42269053181176       -1.94677637755387       -1.16323411821218
H            6.10261756529864       -1.19342465102612       -1.15677621621225
H            5.56401565539613        3.11550928574774        0.12358832875508
H            3.22904537504122        3.87178760134036        0.11407309386578
H           -3.22810956655283        3.87363181843057       -0.07200248099036
H           -5.56332103179093        3.11792916932494       -0.08733221926110
H           -7.21710924411118        2.20658911959867       -1.20432695776148
H           -9.53406458050216        1.44257039945131       -1.20392223918114

          :  Hamiltonian                  GFN2-xTB          :
         :: gradient norm              0.000042779977 Eh/a0 ::
         :: HOMO-LUMO gap              0.477273656996 eV    ::
         :: SCC energy              -141.716599636270 Eh    ::
         :: -> dispersion             -0.115739247347 Eh    ::
         :: -> Gsolv                  -0.065291819814 Eh    ::
         :: repulsion energy           2.520255272220 Eh    ::

    * Orbital Energies and Occupations

         #    Occupation            Energy/Eh            Energy/eV
      -------------------------------------------------------------
         1        2.0000           -0.7393292             -20.1182
       ...           ...                  ...                  ...
       118        2.0000           -0.4132665             -11.2456
       119        2.0000           -0.4114080             -11.1950
       120        2.0000           -0.4096615             -11.1475
       121        2.0000           -0.4093462             -11.1389
       122        2.0000           -0.4089072             -11.1269
       123        2.0000           -0.3942543             -10.7282
       124        2.0000           -0.3872674             -10.5381
       125        2.0000           -0.3872631             -10.5380
       126        2.0000           -0.3766966             -10.2504
       127        1.9996           -0.3733019             -10.1581
       128        1.9555           -0.3688059             -10.0357
       129        1.0449           -0.3629891              -9.8774
       130        0.9999           -0.2845539              -7.7431 (HOMO)
       131        0.0001           -0.2670143              -7.2658 (LUMO)
       132                         -0.2532383              -6.8910
       133                         -0.2524522              -6.8696
       134                         -0.2361561              -6.4261
       135                         -0.2315630              -6.3011
       136                         -0.2315488              -6.3008
       137                         -0.2308881              -6.2828
       138                         -0.2308818              -6.2826
       139                         -0.2270495              -6.1783
       140                         -0.2206723              -6.0048
       141                         -0.2206443              -6.0040
       ...                                ...                  ...
       252                          0.7355555              20.0155
      -------------------------------------------------------------
                  HL-Gap            0.0175396 Eh            0.4773 eV

     #   Z          covCN         q      C6AA      α(0)
     1   6 C        2.920    -0.036    28.890     8.814
     2   6 C        2.923    -0.032    28.797     8.800
     3   6 C        2.909    -0.045    29.122     8.849
     4   6 C        3.071     0.046    26.886     8.502
     5   6 C        3.065    -0.013    28.273     8.719
     6   6 C        2.912    -0.031    28.769     8.795
     7   6 C        3.065    -0.013    28.272     8.719
     8   6 C        2.912    -0.031    28.769     8.795
     9   6 C        2.920    -0.036    28.893     8.815
    10   6 C        2.923    -0.032    28.802     8.801
    11   6 C        2.909    -0.045    29.124     8.849
    12   6 C        3.072     0.046    26.886     8.502
    13   7 N        2.800    -0.019    21.614     6.905
    14   6 C        2.912     0.057    26.724     8.477
    15   6 C        2.917    -0.041    29.027     8.835
    16   6 C        2.922    -0.034    28.844     8.807
    17   6 C        2.972     0.012    27.739     8.639
    18   6 C        2.972     0.004    27.936     8.670
    19   6 C        2.918    -0.035    28.862     8.810
    20   6 C        2.916    -0.035    28.879     8.812
    21   6 C        2.970    -0.020    28.495     8.756
    22   6 C        3.111     0.201    23.610     7.960
    23   7 N        2.030    -0.219    26.540     7.641
    24   7 N        2.030    -0.219    26.540     7.641
    25   6 C        3.111     0.201    23.610     7.960
    26   6 C        2.970    -0.020    28.495     8.756
    27   6 C        2.916    -0.035    28.879     8.812
    28   6 C        2.918    -0.035    28.862     8.810
    29   6 C        2.972     0.004    27.936     8.670
    30   6 C        2.972     0.012    27.739     8.639
    31   6 C        2.922    -0.034    28.843     8.807
    32   6 C        2.917    -0.041    29.022     8.834
    33   6 C        2.912     0.057    26.724     8.477
    34   7 N        2.800    -0.019    21.615     6.905
    35   6 C        3.072     0.046    26.886     8.502
    36   6 C        2.909    -0.045    29.122     8.849
    37   6 C        2.923    -0.032    28.797     8.800
    38   6 C        2.920    -0.036    28.890     8.814
    39   6 C        2.912    -0.031    28.769     8.795
    40   6 C        3.065    -0.013    28.273     8.719
    41   6 C        3.065    -0.013    28.272     8.719
    42   6 C        2.912    -0.031    28.769     8.795
    43   6 C        2.920    -0.036    28.893     8.815
    44   6 C        2.923    -0.032    28.802     8.801
    45   6 C        2.909    -0.045    29.124     8.849
    46   6 C        3.072     0.046    26.886     8.502
    47   6 C        2.917    -0.041    29.026     8.835
    48   6 C        2.922    -0.034    28.845     8.807
    49   6 C        2.918    -0.034    28.839     8.806
    50   6 C        2.918    -0.036    28.905     8.816
    51   8 O        1.714    -0.284    18.708     5.840
    52   6 C        2.918    -0.036    28.905     8.816
    53   6 C        2.918    -0.034    28.839     8.806
    54   6 C        2.922    -0.034    28.842     8.807
    55   6 C        2.917    -0.041    29.022     8.834
    56   1 H        0.926     0.037     2.493     2.469
    57   1 H        0.926     0.038     2.476     2.461
    58   1 H        0.926     0.040     2.452     2.448
    59   1 H        0.926     0.039     2.460     2.453
    60   1 H        0.926     0.039     2.460     2.453
    61   1 H        0.926     0.037     2.495     2.470
    62   1 H        0.926     0.038     2.481     2.463
    63   1 H        0.926     0.039     2.458     2.452
    64   1 H        0.926     0.046     2.372     2.408
    65   1 H        0.926     0.043     2.403     2.424
    66   1 H        0.926     0.038     2.474     2.460
    67   1 H        0.926     0.030     2.589     2.516
    68   1 H        0.926     0.030     2.589     2.516
    69   1 H        0.926     0.038     2.474     2.460
    70   1 H        0.926     0.045     2.385     2.415
    71   1 H        0.926     0.046     2.366     2.406
    72   1 H        0.926     0.040     2.452     2.449
    73   1 H        0.926     0.038     2.476     2.461
    74   1 H        0.926     0.037     2.493     2.469
    75   1 H        0.926     0.039     2.460     2.453
    76   1 H        0.926     0.039     2.460     2.453
    77   1 H        0.926     0.037     2.495     2.470
    78   1 H        0.926     0.038     2.481     2.463
    79   1 H        0.926     0.039     2.458     2.452
    80   1 H        0.926     0.046     2.372     2.409
    81   1 H        0.926     0.043     2.403     2.424
    82   1 H        0.926     0.041     2.433     2.439
    83   1 H        0.926     0.042     2.428     2.437
    84   1 H        0.926     0.042     2.428     2.437
    85   1 H        0.926     0.041     2.433     2.439
    86   1 H        0.926     0.045     2.385     2.415
    87   1 H        0.926     0.046     2.366     2.405

molecular dipole:
                 x           y           z       tot (Debye)
 q only:       -0.004      -2.300      -0.010
   full:       -0.004      -2.772      -0.014       7.045

 projected vibrational frequencies (cm⁻¹)
eigval :       -0.00    -0.00    -0.00     0.00     0.00     0.00
eigval :       -4.19    -1.65     8.27    16.11    19.67    31.02
eigval :       34.78    40.33    48.21    62.66    69.66    70.85
eigval :       77.68    81.00    97.26   104.66   106.64   107.57
eigval :      113.27   127.05   137.12   140.89   145.16   148.50
eigval :      171.46   196.81   203.09   230.42   238.40   249.60
eigval :      258.19   270.14   270.91   282.46   293.02   330.76
eigval :      351.38   355.70   357.74   368.75   374.02   382.14
eigval :      388.19   388.87   390.26   398.85   402.76   409.97
eigval :      417.79   419.32   423.60   434.91   435.50   457.80
eigval :      472.02   477.19   497.92   506.29   509.77   515.81
eigval :      516.26   521.11   537.27   537.43   540.62   540.71
eigval :      579.52   579.79   591.07   591.22   596.62   596.65
eigval :      601.72   614.27   615.15   619.26   641.25   658.03
eigval :      665.90   674.84   675.00   682.92   690.02   690.55
eigval :      694.82   702.18   711.39   712.01   748.36   752.17
eigval :      757.43   763.47   770.60   771.76   780.27   781.52
eigval :      800.70   801.49   823.13   823.69   833.43   835.80
eigval :      845.73   855.13   872.38   872.75   873.33   873.91
eigval :      895.72   895.73   903.16   903.80   904.61   904.85
eigval :      906.76   908.65   910.20   911.55   917.03   917.54
eigval :      918.28   919.61   921.45   922.10   923.34   926.82
eigval :      929.22   929.77   931.99   933.45   965.41   966.21
eigval :      999.63  1001.53  1010.15  1010.22  1029.29  1048.26
eigval :     1051.38  1057.10  1068.25  1068.32  1070.93  1071.47
eigval :     1103.32  1113.86  1127.52  1129.92  1130.50  1142.07
eigval :     1142.46  1146.37  1147.12  1170.46  1173.71  1175.43
eigval :     1177.13  1177.22  1179.09  1188.76  1197.79  1198.60
eigval :     1213.43  1222.14  1229.32  1229.33  1237.55  1239.27
eigval :     1256.99  1257.71  1266.66  1267.75  1274.54  1282.14
eigval :     1284.91  1284.98  1291.56  1292.05  1306.18  1315.08
eigval :     1318.33  1332.17  1335.17  1337.38  1345.09  1345.10
eigval :     1355.59  1355.66  1361.27  1361.43  1412.74  1412.85
eigval :     1413.91  1414.81  1416.55  1416.97  1427.32  1441.53
eigval :     1443.17  1448.26  1460.27  1460.36  1465.32  1465.59
eigval :     1480.03  1480.57  1481.18  1489.32  1500.84  1507.24
eigval :     1507.25  1516.62  1567.21  1567.22  1571.91  1578.54
eigval :     1581.50  1581.52  1582.21  1582.35  1587.64  1599.66
eigval :     1603.65  3073.78  3074.08  3076.81  3076.89  3078.71
eigval :     3078.93  3082.70  3082.91  3084.05  3084.16  3084.19
eigval :     3084.73  3085.05  3085.14  3085.62  3085.66  3086.88
eigval :     3087.30  3091.95  3091.96  3093.05  3093.16  3097.07
eigval :     3097.51  3097.89  3097.97  3098.63  3098.66  3099.07
eigval :     3099.48  3102.31  3102.59

   temp. (K)  partition function   enthalpy   heat capacity  entropy
                                   cal/mol     cal/K/mol   cal/K/mol   J/K/mol
 298.15  VIB  0.150E+22            25103.540    160.031    159.477
         ROT  0.137E+09              888.752      2.981     40.214
         INT  0.205E+30            25992.293    163.012    199.691
         TR   0.181E+29             1481.254      4.968     45.518
         TOT                       27473.5467   167.9805   245.2096  1025.9571

       T/K    H(0)-H(T)+PV         H(T)/Eh          T*S/Eh         G(T)/Eh
   ------------------------------------------------------------------------
    298.15    0.437819E-01    0.700850E+00    0.116507E+00    0.584343E+00
   ------------------------------------------------------------------------

         :::::::::::::::::::::::::::::::::::::::::::::::::::::
         ::                  THERMODYNAMIC                  ::
         :::::::::::::::::::::::::::::::::::::::::::::::::::::
         :: total free energy        -138.612001571643 Eh   ::
         ::.................................................::
         :: total energy             -139.196344360776 Eh   ::
         :: zero point energy           0.657067909626 Eh   ::
         :: G(RRHO) w/o ZPVE           -0.072725120493 Eh   ::
         :: G(RRHO) contrib.            0.584342789133 Eh   ::
         :::::::::::::::::::::::::::::::::::::::::::::::::::::

           -------------------------------------------------
          | TOTAL ENERGY             -139.196344360776 Eh   |
          | TOTAL ENTHALPY           -138.495494567665 Eh   |
          | TOTAL FREE ENERGY        -138.612001571643 Eh   |
          | GRADIENT NORM               0.000042432649 Eh/α |
          | HOMO-LUMO GAP               0.477276307868 eV   |
           -------------------------------------------------

 * finished run on 2025/08/22 at 14:35:21.346
