   * xtb version 6.7.1 (edcfbbe) compiled by 'albert@albert-system' on 2024-07-22

   ID    Z sym.   atoms
    1    6 C      1-12, 14-22, 25-33, 35-50, 52-55
    2    7 N      13, 23, 24, 34
    3    8 O      51
    4    1 H      56-87

          program call               : xtb data2507/toluene/Oxd-bCZ/Oxd-bCZ.xyz --gfn 2 --gbsa toluene --ohess vtight --parallel 40 --molden --ceasefiles --namespace data2507/toluene/Oxd-bCZ/Oxd-bCZ_toluene_S0_preOpt
      * Solvation model:               GBSA
        Solvent                        toluene
        Solvent mass                       9.2140E+01 g/mol
          :  Hamiltonian                  GFN2-xTB          :
 * total energy  :  -139.2538650 Eh     change       -0.1598977E-08 Eh
 * total energy  :  -139.2701486 Eh     change       -0.1628351E-01 Eh
 * total energy  :  -139.2737147 Eh     change       -0.3566116E-02 Eh
 * total energy  :  -139.2747501 Eh     change       -0.1035436E-02 Eh
 * total energy  :  -139.2759158 Eh     change       -0.1165646E-02 Eh
 * total energy  :  -139.2765521 Eh     change       -0.6363059E-03 Eh
 * total energy  :  -139.2768875 Eh     change       -0.3354909E-03 Eh
 * total energy  :  -139.2770666 Eh     change       -0.1790688E-03 Eh
 * total energy  :  -139.2771712 Eh     change       -0.1046029E-03 Eh
 * total energy  :  -139.2772663 Eh     change       -0.9510315E-04 Eh
 * total energy  :  -139.2775818 Eh     change       -0.5071612E-06 Eh
 * total energy  :  -139.2775822 Eh     change       -0.3517888E-06 Eh
 * total energy  :  -139.2775825 Eh     change       -0.2718980E-06 Eh
 * total energy  :  -139.2775827 Eh     change       -0.2474299E-06 Eh
 * total energy  :  -139.2775830 Eh     change       -0.2850504E-06 Eh
 * total energy  :  -139.2775833 Eh     change       -0.3091737E-06 Eh
 * total energy  :  -139.2775836 Eh     change       -0.3110753E-06 Eh
 * total energy  :  -139.2775836 Eh     change        0.3682089E-08 Eh
 * total energy  :  -139.2775836 Eh     change       -0.2582681E-08 Eh
   *** GEOMETRY OPTIMIZATION CONVERGED AFTER 69 ITERATIONS ***

 final structure:
================
87
 xtb: 6.7.1 (edcfbbe)
C          -13.20377469187390        1.67703273534327        2.68706063471711
C          -11.99301147316354        2.32652128642931        2.45356277361588
C          -10.96769720917846        1.71414557056897        1.75817573554185
C          -11.17677026100933        0.42044172653501        1.30067319866113
C          -12.41050773928306       -0.23785553218908        1.51233877123429
C          -13.42579481500708        0.39838908277290        2.21537763657640
C          -12.30295871228745       -1.52072464806477        0.87497028293976
C          -13.16388906632749       -2.60454134030687        0.75601040972263
C          -12.72768837562555       -3.72534639648602        0.07763561761962
C          -11.44597261838828       -3.77938369645099       -0.46696241800549
C          -10.57178305557198       -2.71416834917903       -0.36234051695214
C          -11.01234951898479       -1.57631277055663        0.29932872886691
N          -10.34231964811332       -0.39826253227810        0.56536928119182
C           -9.03420299555592       -0.09125048298981        0.16407155428104
C           -8.09939904601663        0.35250423915311        1.09590731923352
C           -6.80955082568079        0.64297649131974        0.69938400986672
C           -6.42065661275259        0.50098303810065       -0.63208331710212
C           -5.04126993433628        0.79147914504202       -1.04581076676972
C           -3.96715347188076        0.38661309280877       -0.25244518261276
C           -2.66838321107820        0.63975398944785       -0.63975271469943
C           -2.41399590355711        1.31473746898219       -1.83418053341524
C           -1.05902102559831        1.57545552693652       -2.25436434881621
N           -0.67143049337353        2.20285661229900       -3.32809423142513
N            0.67126334872845        2.20268851773395       -3.32829838017702
C            1.05903201353705        1.57524408937916       -2.25466813602574
C            2.41406459229028        1.31436855235308       -1.83477039317519
C            2.66861870111808        0.64031111024077       -0.63985463148801
C            3.96743457217131        0.38714808450838       -0.25272183009669
C            5.04142134739232        0.79099225507606       -1.04678235841086
C            6.42083886788731        0.50049884419897       -0.63314857804803
C            6.81013090659221        0.64388031611672        0.69805024805841
C            8.09996304347517        0.35335333550980        1.09457701468691
C            9.03438552724744       -0.09176863391987        0.16300436552726
N           10.34244188058216       -0.39891448746194        0.56437150966569
C           11.17712883905910        0.41989553354748        1.29930367545425
C           10.96856130517990        1.71397581084783        1.75597905917850
C           11.99401597767828        2.32631192861643        2.45119606016968
C           13.20445400730117        1.67643802388821        2.68530182012934
C           13.42600035335176        0.39742506593458        2.21440317614768
C           12.41054831781132       -0.23879675710488        1.51158308767439
C           12.30254748010180       -1.52202852455004        0.87502824311532
C           13.16301900357398       -2.60631262876580        0.75700635598408
C           12.72645807563928       -3.72739537823308        0.07932519858419
C           11.44481398646671       -3.78124514546813       -0.46545592084958
C           10.57106667690629       -2.71557948430502       -0.36171960889023
C           11.01200483607504       -1.57744435588903        0.29922332523915
C            8.65673008337684       -0.23161374765871       -1.17007071105544
C            7.36569987143995        0.06289421736121       -1.56026697926527
C            4.77700568399013        1.46524889640364       -2.24080757328434
C            3.48204105579461        1.72987548063252       -2.63203281910159
O            0.00006503991043        1.15041693907291       -1.52312395041014
C           -3.48209854912592        1.73127164690702       -2.63073834515074
C           -4.77701714992132        1.46672940195889       -2.23931499651007
C           -7.36590279426124        0.06470808155045       -1.55944374038902
C           -8.65692791828124       -0.22980373847564       -1.16924286765014
H          -13.97989470979545        2.18860049071434        3.23741250842679
H          -11.85411147419513        3.33264896848154        2.82197899311032
H          -10.03960496910462        2.23231077837483        1.56911062128180
H          -14.36969558782119       -0.09872530900222        2.38302894145676
H          -14.15177523118020       -2.56870992767057        1.19076325438251
H          -13.38242823695551       -4.57816093952503       -0.02751837763755
H          -11.12739385335808       -4.67560288749049       -0.97943318403866
H           -9.57557390302168       -2.77262626050183       -0.77427617196262
H           -8.38708245435797        0.45367846118725        2.13182185413660
H           -6.09683709313389        0.99791671138981        1.42880896615309
H           -4.15450714614165       -0.15199708320551        0.66442490891069
H           -1.84230463667878        0.31477687462033       -0.02456185336788
H            1.84263924565206        0.31611525692030       -0.02412021962738
H            4.15492493618629       -0.15070067706074        0.66456829027320
H            6.09772714770283        0.99990042878066        1.42725225216980
H            8.38790994256986        0.45551505856771        2.13031996413192
H           10.04075209810618        2.23246589744892        1.56642656908217
H           11.85548362763768        3.33271746931205        2.81899051661474
H           13.98069309272610        2.18798945911905        3.23550024872626
H           14.36965303067157       -0.10000630219980        2.38250976434285
H           14.15082992686793       -2.57061094943064        1.19194036124846
H           13.38083045470301       -4.58058312687243       -0.02509386100198
H           11.12592535718167       -4.67768125517227       -0.97735446856391
H            9.57489460116303       -2.77393331722355       -0.77375537764674
H            9.38357911004611       -0.56233655066072       -1.89691749926077
H            7.08043768840976       -0.06436953701239       -2.59384522170036
H            5.59867813579843        1.79997220925873       -2.85583666864385
H            3.26946827576436        2.25463078580627       -3.55015904734886
H           -3.26966033567191        2.25676749187806       -3.54847213252513
H           -5.59877416992306        1.80230745471662       -2.85376380601933
H           -7.08094151842952       -0.06154452524070       -2.59322666489846
H           -9.38406962986312       -0.55954465559609       -1.89624470411236

          :  Hamiltonian                  GFN2-xTB          :
         :: gradient norm              0.000047973617 Eh/a0 ::
         :: HOMO-LUMO gap              2.005580016489 eV    ::
         :: SCC energy              -141.816989124742 Eh    ::
         :: -> dispersion             -0.115638830058 Eh    ::
         :: -> Gsolv                  -0.061543801473 Eh    ::
         :: repulsion energy           2.539405510501 Eh    ::

    * Orbital Energies and Occupations

         #    Occupation            Energy/Eh            Energy/eV
      -------------------------------------------------------------
         1        2.0000           -0.7710328             -20.9809
       ...           ...                  ...                  ...
       117        2.0000           -0.4189000             -11.3989
       118        2.0000           -0.4153975             -11.3035
       119        2.0000           -0.4153843             -11.3032
       120        2.0000           -0.4153591             -11.3025
       121        2.0000           -0.4054299             -11.0323
       122        2.0000           -0.4054279             -11.0323
       123        2.0000           -0.4022599             -10.9460
       124        2.0000           -0.3920313             -10.6677
       125        2.0000           -0.3903733             -10.6226
       126        2.0000           -0.3788264             -10.3084
       127        2.0000           -0.3788247             -10.3083
       128        2.0000           -0.3627599              -9.8712
       129        2.0000           -0.3623829              -9.8609 (HOMO)
       130                         -0.2886792              -7.8554 (LUMO)
       131                         -0.2695012              -7.3335
       132                         -0.2463815              -6.7044
       133                         -0.2456185              -6.6836
       134                         -0.2375246              -6.4634
       135                         -0.2369810              -6.4486
       136                         -0.2365783              -6.4376
       137                         -0.2338901              -6.3645
       138                         -0.2338864              -6.3644
       139                         -0.2317791              -6.3070
       140                         -0.2222184              -6.0469
       ...                                ...                  ...
       252                          0.7440439              20.2465
      -------------------------------------------------------------
                  HL-Gap            0.0737037 Eh            2.0056 eV

     #   Z          covCN         q      C6AA      α(0)
     1   6 C        2.919    -0.043    29.058     8.840
     2   6 C        2.924    -0.035    28.871     8.812
     3   6 C        2.909    -0.052    29.289     8.874
     4   6 C        3.075     0.047    26.867     8.498
     5   6 C        3.067    -0.018    28.400     8.739
     6   6 C        2.912    -0.035    28.866     8.810
     7   6 C        3.067    -0.018    28.400     8.738
     8   6 C        2.912    -0.035    28.866     8.810
     9   6 C        2.919    -0.043    29.058     8.840
    10   6 C        2.924    -0.035    28.872     8.812
    11   6 C        2.909    -0.052    29.291     8.874
    12   6 C        3.075     0.047    26.867     8.498
    13   7 N        2.802    -0.045    22.106     6.983
    14   6 C        2.912     0.064    26.562     8.451
    15   6 C        2.920    -0.042    29.044     8.838
    16   6 C        2.924    -0.032    28.791     8.799
    17   6 C        2.976     0.009    27.818     8.652
    18   6 C        2.976     0.020    27.552     8.610
    19   6 C        2.923    -0.032    28.796     8.800
    20   6 C        2.921    -0.027    28.679     8.782
    21   6 C        2.974    -0.012    28.316     8.729
    22   6 C        3.162     0.218    23.131     7.862
    23   7 N        2.043    -0.220    26.532     7.641
    24   7 N        2.043    -0.220    26.532     7.641
    25   6 C        3.162     0.218    23.131     7.862
    26   6 C        2.974    -0.012    28.316     8.729
    27   6 C        2.921    -0.027    28.679     8.782
    28   6 C        2.923    -0.032    28.797     8.800
    29   6 C        2.976     0.020    27.552     8.610
    30   6 C        2.976     0.009    27.819     8.652
    31   6 C        2.924    -0.032    28.791     8.799
    32   6 C        2.920    -0.042    29.044     8.838
    33   6 C        2.912     0.064    26.562     8.451
    34   7 N        2.802    -0.045    22.106     6.983
    35   6 C        3.075     0.047    26.867     8.498
    36   6 C        2.909    -0.052    29.289     8.874
    37   6 C        2.924    -0.035    28.871     8.812
    38   6 C        2.919    -0.043    29.058     8.840
    39   6 C        2.912    -0.035    28.866     8.810
    40   6 C        3.067    -0.018    28.400     8.739
    41   6 C        3.067    -0.018    28.400     8.738
    42   6 C        2.912    -0.035    28.866     8.810
    43   6 C        2.919    -0.043    29.058     8.840
    44   6 C        2.924    -0.035    28.872     8.812
    45   6 C        2.909    -0.052    29.291     8.874
    46   6 C        3.075     0.047    26.867     8.498
    47   6 C        2.920    -0.042    29.039     8.837
    48   6 C        2.924    -0.032    28.788     8.799
    49   6 C        2.923    -0.029    28.736     8.791
    50   6 C        2.922    -0.028    28.701     8.785
    51   8 O        1.722    -0.234    17.875     5.708
    52   6 C        2.922    -0.028    28.701     8.785
    53   6 C        2.923    -0.029    28.736     8.791
    54   6 C        2.924    -0.032    28.788     8.799
    55   6 C        2.920    -0.042    29.039     8.837
    56   1 H        0.926     0.028     2.621     2.532
    57   1 H        0.926     0.030     2.587     2.515
    58   1 H        0.926     0.030     2.580     2.512
    59   1 H        0.926     0.030     2.587     2.515
    60   1 H        0.926     0.030     2.587     2.515
    61   1 H        0.926     0.028     2.621     2.532
    62   1 H        0.926     0.030     2.588     2.515
    63   1 H        0.926     0.030     2.580     2.512
    64   1 H        0.926     0.045     2.383     2.414
    65   1 H        0.926     0.045     2.384     2.415
    66   1 H        0.926     0.049     2.329     2.387
    67   1 H        0.926     0.044     2.391     2.418
    68   1 H        0.926     0.044     2.391     2.418
    69   1 H        0.926     0.049     2.330     2.387
    70   1 H        0.926     0.045     2.384     2.415
    71   1 H        0.926     0.045     2.383     2.414
    72   1 H        0.926     0.030     2.579     2.512
    73   1 H        0.926     0.030     2.587     2.515
    74   1 H        0.926     0.028     2.621     2.532
    75   1 H        0.926     0.030     2.587     2.515
    76   1 H        0.926     0.030     2.587     2.515
    77   1 H        0.926     0.028     2.621     2.532
    78   1 H        0.926     0.030     2.587     2.515
    79   1 H        0.926     0.030     2.580     2.512
    80   1 H        0.926     0.045     2.378     2.412
    81   1 H        0.926     0.046     2.373     2.409
    82   1 H        0.926     0.052     2.294     2.368
    83   1 H        0.926     0.055     2.260     2.351
    84   1 H        0.926     0.055     2.260     2.351
    85   1 H        0.926     0.052     2.294     2.368
    86   1 H        0.926     0.046     2.373     2.409
    87   1 H        0.926     0.045     2.378     2.412

molecular dipole:
                 x           y           z       tot (Debye)
 q only:        0.000      -0.389       0.678
   full:        0.001      -0.639       1.119       3.274

 projected vibrational frequencies (cm⁻¹)
eigval :       -0.00    -0.00     0.00     0.00     0.00     0.00
eigval :        4.48    10.08    11.22    13.66    27.61    27.78
eigval :       36.23    44.42    49.61    50.25    60.97    65.70
eigval :       78.45    84.68    86.55    97.50    99.06   105.66
eigval :      109.83   122.18   137.73   144.82   146.57   148.44
eigval :      179.95   202.13   216.75   224.30   230.03   237.88
eigval :      263.92   273.24   273.36   292.63   299.40   342.81
eigval :      352.48   359.12   370.16   370.26   380.59   381.62
eigval :      381.70   386.70   395.42   397.58   418.94   422.23
eigval :      424.18   433.97   435.16   436.40   436.49   469.41
eigval :      485.06   494.55   505.00   515.21   517.76   518.54
eigval :      529.44   532.50   536.78   538.76   542.81   542.84
eigval :      581.73   581.81   593.45   593.62   606.53   606.86
eigval :      616.75   616.79   626.57   642.68   674.14   675.38
eigval :      675.48   676.22   693.70   694.17   697.80   707.04
eigval :      710.55   712.83   717.68   724.66   754.34   755.11
eigval :      768.74   768.77   773.99   779.81   779.95   783.00
eigval :      809.15   809.92   836.53   837.18   865.75   865.88
eigval :      870.84   871.35   873.41   873.44   879.38   879.50
eigval :      897.06   897.07   901.48   901.54   902.72   902.74
eigval :      917.26   917.47   920.42   920.45   921.60   921.83
eigval :      925.53   926.11   926.47   926.63   928.59   928.78
eigval :      934.49   934.65   959.31   963.97   989.50  1000.80
eigval :     1010.95  1010.96  1014.41  1019.06  1068.54  1068.54
eigval :     1071.69  1071.71  1075.17  1075.51  1084.25  1095.69
eigval :     1116.19  1116.25  1129.99  1130.61  1137.62  1137.98
eigval :     1150.75  1150.80  1171.59  1174.50  1174.55  1179.59
eigval :     1179.66  1181.05  1181.26  1187.99  1191.39  1201.63
eigval :     1202.20  1234.70  1234.73  1241.85  1241.90  1260.95
eigval :     1262.42  1265.90  1266.87  1268.67  1282.96  1296.67
eigval :     1299.08  1300.29  1300.34  1305.28  1311.51  1313.62
eigval :     1315.39  1324.40  1327.01  1355.26  1355.29  1360.04
eigval :     1360.08  1365.62  1365.83  1393.28  1393.79  1411.49
eigval :     1411.81  1426.83  1426.85  1427.57  1427.61  1458.87
eigval :     1460.06  1473.84  1473.88  1486.59  1486.61  1496.67
eigval :     1497.14  1534.09  1537.03  1553.79  1555.11  1564.11
eigval :     1565.15  1573.14  1573.18  1583.18  1583.73  1587.34
eigval :     1587.40  1596.81  1596.82  1597.67  1598.07  1612.62
eigval :     1612.65  3070.46  3070.47  3071.13  3071.15  3076.07
eigval :     3076.07  3076.80  3076.81  3081.23  3081.51  3082.86
eigval :     3083.39  3083.77  3083.91  3084.17  3084.20  3085.08
eigval :     3085.09  3089.54  3089.62  3090.60  3090.60  3092.75
eigval :     3092.82  3093.00  3093.20  3093.72  3094.23  3095.99
eigval :     3096.03  3107.73  3107.89

   temp. (K)  partition function   enthalpy   heat capacity  entropy
                                   cal/mol     cal/K/mol   cal/K/mol   J/K/mol
 298.15  VIB  0.186E+21            24853.239    157.802    156.510
         ROT  0.288E+09              888.752      2.981     41.688
         INT  0.535E+29            25741.991    160.783    198.198
         TR   0.181E+29             1481.254      4.968     45.518
         TOT                       27223.2450   165.7507   243.7162  1019.7087

       T/K    H(0)-H(T)+PV         H(T)/Eh          T*S/Eh         G(T)/Eh
   ------------------------------------------------------------------------
    298.15    0.433830E-01    0.704817E+00    0.115797E+00    0.589020E+00
   ------------------------------------------------------------------------

         :::::::::::::::::::::::::::::::::::::::::::::::::::::
         ::                  THERMODYNAMIC                  ::
         :::::::::::::::::::::::::::::::::::::::::::::::::::::
         :: total free energy        -138.688563866984 Eh   ::
         ::.................................................::
         :: total energy             -139.277583613581 Eh   ::
         :: zero point energy           0.661434183722 Eh   ::
         :: G(RRHO) w/o ZPVE           -0.072414437124 Eh   ::
         :: G(RRHO) contrib.            0.589019746597 Eh   ::
         :::::::::::::::::::::::::::::::::::::::::::::::::::::

           -------------------------------------------------
          | TOTAL ENERGY             -139.277583613581 Eh   |
          | TOTAL ENTHALPY           -138.572766427549 Eh   |
          | TOTAL FREE ENERGY        -138.688563866984 Eh   |
          | GRADIENT NORM               0.000048550541 Eh/α |
          | HOMO-LUMO GAP               2.005579962853 eV   |
           -------------------------------------------------

 * finished run on 2025/08/22 at 14:29:52.715
