   * xtb version 6.7.1 (edcfbbe) compiled by 'albert@albert-system' on 2024-07-22

   ID    Z sym.   atoms
    1    6 C      1-12, 14-22, 25-33, 35-50, 52-55
    2    7 N      13, 23, 24, 34
    3    8 O      51
    4    1 H      56-87

          program call               : xtb data2507/toluene/Oxd-bCZ/Oxd-bCZ_toluene_T1_crest.xyz --gfn 2 --uhf 2 --gbsa toluene --ohess vtight --parallel 40 --molden --ceasefiles --namespace data2507/toluene/Oxd-bCZ/Oxd-bCZ_toluene_T1_finalOpt
      * Solvation model:               GBSA
        Solvent                        toluene
        Solvent mass                       9.2140E+01 g/mol
          :  Hamiltonian                  GFN2-xTB          :
 * total energy  :  -139.1962730 Eh     change       -0.3635904E-08 Eh
 * total energy  :  -139.1963516 Eh     change       -0.7860082E-04 Eh
 * total energy  :  -139.1963915 Eh     change       -0.3989546E-04 Eh
 * total energy  :  -139.1963976 Eh     change       -0.6100225E-05 Eh
 * total energy  :  -139.1964004 Eh     change       -0.2825842E-05 Eh
 * total energy  :  -139.1964029 Eh     change       -0.2502985E-05 Eh
 * total energy  :  -139.1964052 Eh     change       -0.2272638E-05 Eh
 * total energy  :  -139.1964071 Eh     change       -0.1942409E-05 Eh
 * total energy  :  -139.1964093 Eh     change       -0.2171232E-05 Eh
 * total energy  :  -139.1964119 Eh     change       -0.2599353E-05 Eh
 * total energy  :  -139.1964487 Eh     change       -0.5889615E-06 Eh
 * total energy  :  -139.1964495 Eh     change       -0.7615395E-06 Eh
 * total energy  :  -139.1964505 Eh     change       -0.9460570E-06 Eh
 * total energy  :  -139.1964515 Eh     change       -0.1023147E-05 Eh
 * total energy  :  -139.1964524 Eh     change       -0.9136723E-06 Eh
 * total energy  :  -139.1964531 Eh     change       -0.7310393E-06 Eh
 * total energy  :  -139.1964537 Eh     change       -0.6047410E-06 Eh
 * total energy  :  -139.1964543 Eh     change       -0.5336850E-06 Eh
 * total energy  :  -139.1964543 Eh     change       -0.1472191E-07 Eh
   *** GEOMETRY OPTIMIZATION CONVERGED AFTER 44 ITERATIONS ***

 final structure:
================
87
 xtb: 6.7.1 (edcfbbe)
C          -14.03336496110266        1.04163974090713        0.99362367014326
C          -12.87610935141768        1.79859024780853        1.16004802000215
C          -11.62998299778677        1.29200623647594        0.83903594601058
C          -11.56635219843995        0.00096755673492        0.33122703232297
C          -12.73437397166451       -0.78445353253388        0.18650648835858
C          -13.97344386507792       -0.25539174076475        0.51570135987052
C          -12.30425691934870       -2.06987877654649       -0.29748126637445
C          -12.97700300819093       -3.23197100295112       -0.64458996939090
C          -12.24261579694812       -4.30719232950153       -1.11237531125631
C          -10.85926865787117       -4.22429589249337       -1.25144796866311
C          -10.16740780941239       -3.07572001049899       -0.91304640200169
C          -10.89570394227659       -2.00347563215941       -0.41455795173158
N          -10.46352366628709       -0.74755716364276       -0.03346540819639
C           -9.13854481506480       -0.30981306899534       -0.01890767911745
C           -8.13796810230903       -1.09046960053616        0.56847175423553
C           -6.83384042870566       -0.65829300409502        0.57866087862945
C           -6.46160554949691        0.57280631734295        0.00672697176654
C           -5.08912274197583        1.02478868043462        0.01694406923536
C           -4.01479070185102        0.10774042063956        0.03867995700275
C           -2.71524142622286        0.52789203140851        0.03475097045037
C           -2.40310728067500        1.90849633625537        0.02574444828336
C           -1.07155507722668        2.35946424290322        0.02389524025652
N           -0.65531703111283        3.62424443595912        0.00357752150386
N            0.65400538869074        3.62486185618412        0.00110310229426
C            1.07150506708779        2.36059669702567        0.02146716591688
C            2.40348801285620        1.91059774244251        0.02537798231235
C            2.71586811554693        0.53044931457103        0.05640425089647
C            4.01542222714678        0.11032382327037        0.04720195433739
C            5.08937321415481        1.02760194442304        0.02400506486497
C            6.46197665531185        0.57537929648738        0.02160397738591
C            7.49430144849130        1.36099897362050        0.56742310994952
C            8.79955264151765        0.93200644118501        0.56852751292968
C            9.13870576899729       -0.30767236193274        0.01730667236511
N           10.46346551724470       -0.74623793708487        0.01625498559206
C           11.56037360561607       -0.00700665258658       -0.38392078546252
C           11.61702268905040        1.27418728460079       -0.91692064874715
C           12.85795621027810        1.77207407799699       -1.27017747776633
C           14.01671188529578        1.01570425278017       -1.11184891890754
C           13.96319692396146       -0.27232821313743       -0.60951008544949
C           12.72947687403636       -0.79235329679444       -0.24742529084687
C           12.30664978416711       -2.06738509588797        0.26926194676466
C           12.98410943346730       -3.22417389515947        0.62483417189359
C           12.25746483271745       -4.28807947555663        1.12907916763631
C           10.87765267335143       -4.19876052866426        1.29607300251514
C           10.18117237344884       -3.05557842533955        0.94891899580370
C           10.90087905499939       -1.99557912243941        0.41312744322924
C            8.12711420990765       -1.10133552822289       -0.53258619854131
C            6.82301204872272       -0.66910341343401       -0.52776277501826
C            4.76773115580890        2.40440171192701        0.00355621093880
C            3.47337786303894        2.83764312110978       -0.00405044319586
O            0.00043756561383        1.49673918169577        0.03727590667913
C           -3.47342047458814        2.83556095810662        0.01485273402137
C           -4.76743812448118        2.40182971041469        0.00266333811855
C           -7.48328725009222        1.34536078007239       -0.57691819441227
C           -8.78847600828452        0.91681354818283       -0.59215611742888
H          -14.98878525183736        1.47282392804399        1.25329710415801
H          -12.95218354974721        2.80144090601405        1.55352933118175
H          -10.73762910449426        1.87887316873304        0.99276312067158
H          -14.86933276853448       -0.84752155062378        0.40656377535917
H          -14.05116393426761       -3.29109918552514       -0.55624703185492
H          -12.74723010367198       -5.22213035518261       -1.38529263956941
H          -10.31481492461845       -5.07317085482770       -1.63779636353860
H           -9.09827878556574       -3.01437758945426       -1.04564462173895
H           -8.40519358270067       -2.02040808887849        1.04821987338210
H           -6.08893829372599       -1.25916094721848        1.07687724398124
H           -4.22239377462838       -0.95170639601845        0.01816235487346
H           -1.90451862358752       -0.18644394384303        0.03165365555104
H            1.90549101847103       -0.18335439803474        0.09272481025654
H            4.22390118704005       -0.94798740207377        0.09705670295466
H            7.25311165858586        2.30173010444998        1.03737727868290
H            9.56812220385669        1.53471276041012        1.02922778978709
H           10.72327783022887        1.86034706890412       -1.06499987525572
H           12.92851166069294        2.76743058921718       -1.68323137684512
H           14.96789219079976        1.43994087284051       -1.39719748704779
H           14.85974427739145       -0.86455658102488       -0.50653136165260
H           14.05608807399853       -3.28764683514209        0.51541291367064
H           12.76578452219060       -5.19870567606856        1.40942095186883
H           10.33967507498572       -5.03806528781002        1.71132782629785
H            9.11526917989483       -2.98889476930090        1.10307224913405
H            8.38505382517753       -2.04216832690557       -0.99585226218560
H            6.06862993501418       -1.28101485789025       -0.99747591746691
H            5.56380911316973        3.13175734997592       -0.04631624510590
H            3.23083723889063        3.88844697779592       -0.03776858509940
H           -3.23134121465241        3.88699479113283        0.02057755624865
H           -5.56389118226376        3.13022849517061        0.02038546424160
H           -7.23296413500243        2.27444020687746       -1.06487003773086
H           -9.54798145670318        1.50885514594297       -1.08084195011937

          :  Hamiltonian                  GFN2-xTB          :
         :: gradient norm              0.000048282114 Eh/a0 ::
         :: HOMO-LUMO gap              0.475737473822 eV    ::
         :: SCC energy              -141.716731582908 Eh    ::
         :: -> dispersion             -0.115726870588 Eh    ::
         :: -> Gsolv                  -0.065301190230 Eh    ::
         :: repulsion energy           2.520277305665 Eh    ::

    * Orbital Energies and Occupations

         #    Occupation            Energy/Eh            Energy/eV
      -------------------------------------------------------------
         1        2.0000           -0.7395466             -20.1241
       ...           ...                  ...                  ...
       118        2.0000           -0.4132630             -11.2455
       119        2.0000           -0.4114435             -11.1959
       120        2.0000           -0.4097692             -11.1504
       121        2.0000           -0.4093853             -11.1399
       122        2.0000           -0.4090203             -11.1300
       123        2.0000           -0.3940662             -10.7231
       124        2.0000           -0.3872521             -10.5377
       125        2.0000           -0.3872498             -10.5376
       126        2.0000           -0.3767343             -10.2515
       127        1.9996           -0.3734301             -10.1616
       128        1.9556           -0.3688207             -10.0361
       129        1.0448           -0.3629982              -9.8777
       130        0.9999           -0.2848903              -7.7523 (HOMO)
       131        0.0001           -0.2674073              -7.2765 (LUMO)
       132                         -0.2532066              -6.8901
       133                         -0.2524556              -6.8697
       134                         -0.2361089              -6.4249
       135                         -0.2315292              -6.3002
       136                         -0.2314946              -6.2993
       137                         -0.2308728              -6.2824
       138                         -0.2308635              -6.2821
       139                         -0.2268534              -6.1730
       140                         -0.2206892              -6.0053
       141                         -0.2206244              -6.0035
       ...                                ...                  ...
       252                          0.7356673              20.0185
      -------------------------------------------------------------
                  HL-Gap            0.0174830 Eh            0.4757 eV

     #   Z          covCN         q      C6AA      α(0)
     1   6 C        2.920    -0.036    28.891     8.814
     2   6 C        2.923    -0.032    28.797     8.800
     3   6 C        2.909    -0.045    29.121     8.849
     4   6 C        3.072     0.046    26.884     8.502
     5   6 C        3.065    -0.013    28.274     8.719
     6   6 C        2.912    -0.031    28.769     8.795
     7   6 C        3.065    -0.013    28.273     8.719
     8   6 C        2.912    -0.031    28.769     8.795
     9   6 C        2.920    -0.036    28.893     8.815
    10   6 C        2.923    -0.032    28.801     8.801
    11   6 C        2.909    -0.045    29.123     8.849
    12   6 C        3.072     0.046    26.885     8.502
    13   7 N        2.800    -0.019    21.617     6.905
    14   6 C        2.912     0.057    26.727     8.477
    15   6 C        2.917    -0.041    29.024     8.834
    16   6 C        2.922    -0.034    28.847     8.808
    17   6 C        2.971     0.012    27.740     8.639
    18   6 C        2.972     0.004    27.935     8.670
    19   6 C        2.918    -0.035    28.863     8.810
    20   6 C        2.916    -0.035    28.879     8.812
    21   6 C        2.970    -0.020    28.495     8.756
    22   6 C        3.111     0.201    23.607     7.960
    23   7 N        2.031    -0.219    26.539     7.641
    24   7 N        2.031    -0.219    26.538     7.641
    25   6 C        3.111     0.201    23.607     7.960
    26   6 C        2.970    -0.020    28.494     8.756
    27   6 C        2.916    -0.035    28.878     8.812
    28   6 C        2.918    -0.035    28.863     8.810
    29   6 C        2.972     0.004    27.934     8.669
    30   6 C        2.971     0.012    27.739     8.639
    31   6 C        2.922    -0.034    28.844     8.807
    32   6 C        2.917    -0.041    29.020     8.834
    33   6 C        2.912     0.057    26.725     8.477
    34   7 N        2.800    -0.019    21.617     6.905
    35   6 C        3.072     0.046    26.885     8.502
    36   6 C        2.909    -0.045    29.121     8.849
    37   6 C        2.923    -0.032    28.797     8.800
    38   6 C        2.920    -0.036    28.891     8.814
    39   6 C        2.912    -0.031    28.769     8.795
    40   6 C        3.065    -0.013    28.274     8.719
    41   6 C        3.065    -0.013    28.273     8.719
    42   6 C        2.912    -0.031    28.769     8.795
    43   6 C        2.920    -0.036    28.893     8.815
    44   6 C        2.923    -0.032    28.801     8.801
    45   6 C        2.909    -0.045    29.123     8.849
    46   6 C        3.072     0.046    26.885     8.502
    47   6 C        2.917    -0.041    29.025     8.835
    48   6 C        2.922    -0.034    28.846     8.808
    49   6 C        2.918    -0.034    28.840     8.806
    50   6 C        2.917    -0.036    28.904     8.816
    51   8 O        1.714    -0.283    18.702     5.839
    52   6 C        2.917    -0.036    28.904     8.816
    53   6 C        2.918    -0.034    28.841     8.807
    54   6 C        2.922    -0.034    28.845     8.808
    55   6 C        2.917    -0.041    29.019     8.834
    56   1 H        0.926     0.037     2.493     2.469
    57   1 H        0.926     0.038     2.476     2.461
    58   1 H        0.926     0.040     2.454     2.450
    59   1 H        0.926     0.039     2.460     2.453
    60   1 H        0.926     0.039     2.460     2.453
    61   1 H        0.926     0.037     2.495     2.470
    62   1 H        0.926     0.038     2.481     2.463
    63   1 H        0.926     0.039     2.460     2.453
    64   1 H        0.926     0.046     2.375     2.410
    65   1 H        0.926     0.044     2.402     2.424
    66   1 H        0.926     0.038     2.472     2.459
    67   1 H        0.926     0.030     2.589     2.516
    68   1 H        0.926     0.030     2.588     2.516
    69   1 H        0.926     0.038     2.472     2.459
    70   1 H        0.926     0.045     2.384     2.414
    71   1 H        0.926     0.046     2.368     2.407
    72   1 H        0.926     0.040     2.454     2.450
    73   1 H        0.926     0.038     2.476     2.461
    74   1 H        0.926     0.037     2.493     2.469
    75   1 H        0.926     0.039     2.460     2.453
    76   1 H        0.926     0.039     2.460     2.453
    77   1 H        0.926     0.037     2.495     2.470
    78   1 H        0.926     0.038     2.481     2.463
    79   1 H        0.926     0.039     2.460     2.453
    80   1 H        0.926     0.046     2.374     2.410
    81   1 H        0.926     0.044     2.402     2.424
    82   1 H        0.926     0.041     2.431     2.438
    83   1 H        0.926     0.042     2.428     2.436
    84   1 H        0.926     0.042     2.428     2.437
    85   1 H        0.926     0.041     2.432     2.439
    86   1 H        0.926     0.045     2.384     2.414
    87   1 H        0.926     0.046     2.369     2.407

molecular dipole:
                 x           y           z       tot (Debye)
 q only:        0.006      -2.303      -0.011
   full:        0.006      -2.774      -0.001       7.050

 projected vibrational frequencies (cm⁻¹)
eigval :       -0.00    -0.00     0.00     0.00     0.00     0.00
eigval :        2.86     8.30    13.76    16.38    20.66    28.62
eigval :       35.52    36.42    45.29    58.86    68.01    71.67
eigval :       77.09    77.53    97.21   104.20   105.99   107.18
eigval :      112.13   127.20   136.93   142.06   144.46   148.82
eigval :      170.18   196.76   202.89   231.16   239.00   250.32
eigval :      259.37   272.51   272.99   282.50   293.39   330.56
eigval :      352.03   356.07   357.50   369.06   373.35   382.82
eigval :      387.62   387.95   390.47   398.61   402.59   409.59
eigval :      419.59   420.86   424.22   435.63   436.15   457.48
eigval :      471.13   477.32   497.23   506.05   509.08   515.72
eigval :      516.07   521.48   536.57   536.73   541.12   541.19
eigval :      579.41   579.61   591.04   591.16   596.60   596.76
eigval :      602.86   614.52   615.27   619.34   641.40   657.06
eigval :      664.81   673.27   674.62   682.42   689.06   690.61
eigval :      694.50   701.94   710.02   711.53   747.90   752.22
eigval :      757.51   763.46   769.32   769.75   779.18   779.65
eigval :      800.55   801.18   822.79   823.11   832.53   835.32
eigval :      845.01   855.06   870.12   870.63   873.58   874.00
eigval :      895.78   895.83   902.08   903.22   904.31   905.14
eigval :      906.74   908.98   909.70   911.07   916.31   916.81
eigval :      918.42   918.50   919.90   920.96   922.20   925.75
eigval :      925.97   926.90   930.70   932.75   965.25   966.24
eigval :      999.76  1001.70  1010.26  1010.30  1029.03  1047.92
eigval :     1050.67  1057.37  1067.93  1068.08  1071.04  1071.65
eigval :     1103.13  1114.27  1127.17  1130.09  1130.61  1142.81
eigval :     1143.01  1147.23  1147.63  1170.93  1173.63  1175.73
eigval :     1176.83  1177.41  1179.38  1189.35  1197.89  1198.47
eigval :     1215.01  1223.23  1229.58  1229.67  1238.60  1239.43
eigval :     1257.23  1257.48  1267.34  1268.78  1275.31  1282.62
eigval :     1284.96  1285.07  1291.57  1291.68  1306.26  1315.03
eigval :     1318.31  1332.11  1335.04  1338.60  1344.99  1345.00
eigval :     1355.45  1355.66  1361.47  1362.09  1412.86  1412.89
eigval :     1413.83  1414.66  1416.48  1416.90  1427.57  1442.06
eigval :     1443.72  1448.88  1460.31  1460.41  1465.42  1465.69
eigval :     1480.05  1480.46  1481.21  1489.51  1500.98  1506.73
eigval :     1507.30  1516.80  1567.01  1567.06  1571.92  1578.92
eigval :     1581.51  1581.55  1582.50  1582.62  1587.81  1599.35
eigval :     1603.55  3074.41  3074.71  3077.05  3077.37  3078.71
eigval :     3079.02  3082.51  3083.03  3083.77  3084.12  3084.18
eigval :     3084.44  3084.94  3085.30  3085.80  3086.09  3087.56
eigval :     3087.73  3091.88  3091.92  3092.97  3093.05  3097.72
eigval :     3097.77  3098.36  3098.43  3098.58  3098.75  3100.32
eigval :     3100.55  3102.41  3102.99

   temp. (K)  partition function   enthalpy   heat capacity  entropy
                                   cal/mol     cal/K/mol   cal/K/mol   J/K/mol
 298.15  VIB  0.347E+21            25110.653    159.839    157.896
         ROT  0.275E+09              888.752      2.981     41.596
         INT  0.952E+29            25999.405    162.820    199.492
         TR   0.181E+29             1481.254      4.968     45.518
         TOT                       27480.6594   167.7883   245.0104  1025.1234

       T/K    H(0)-H(T)+PV         H(T)/Eh          T*S/Eh         G(T)/Eh
   ------------------------------------------------------------------------
    298.15    0.437932E-01    0.700826E+00    0.116412E+00    0.584414E+00
   ------------------------------------------------------------------------

         :::::::::::::::::::::::::::::::::::::::::::::::::::::
         ::                  THERMODYNAMIC                  ::
         :::::::::::::::::::::::::::::::::::::::::::::::::::::
         :: total free energy        -138.612040467721 Eh   ::
         ::.................................................::
         :: total energy             -139.196454277646 Eh   ::
         :: zero point energy           0.657032921174 Eh   ::
         :: G(RRHO) w/o ZPVE           -0.072619111249 Eh   ::
         :: G(RRHO) contrib.            0.584413809925 Eh   ::
         :::::::::::::::::::::::::::::::::::::::::::::::::::::

           -------------------------------------------------
          | TOTAL ENERGY             -139.196454277646 Eh   |
          | TOTAL ENTHALPY           -138.495628138173 Eh   |
          | TOTAL FREE ENERGY        -138.612040467721 Eh   |
          | GRADIENT NORM               0.000050804688 Eh/α |
          | HOMO-LUMO GAP               0.475737558420 eV   |
           -------------------------------------------------

 * finished run on 2025/08/22 at 14:43:19.026
