   * xtb version 6.7.1 (edcfbbe) compiled by 'albert@albert-system' on 2024-07-22

   ID    Z sym.   atoms
    1    6 C      1-9, 11-14, 16-29, 31-38
    2    7 N      10, 15, 30
    3    1 H      39-63

          program call               : xtb data2507/gas/DMAC-11-DPPZ/DMAC-11-DPPZ_gas_T1_crest.xyz --gfn 2 --spinpol --tblite --uhf 2 --ohess vtight --parallel 40 --molden --ceasefiles --namespace data2507/gas/DMAC-11-DPPZ/DMAC-11-DPPZ_gas_T1_finalOpt
 * total energy  :   -96.4858675 Eh     change        0.8265630E-08 Eh
 * total energy  :   -96.4858867 Eh     change       -0.1923579E-04 Eh
 * total energy  :   -96.4858904 Eh     change       -0.3707128E-05 Eh
 * total energy  :   -96.4858910 Eh     change       -0.6019232E-06 Eh
 * total energy  :   -96.4858913 Eh     change       -0.2221351E-06 Eh
 * total energy  :   -96.4858913 Eh     change       -0.3861217E-08 Eh
 * total energy  :   -96.4858915 Eh     change       -0.2302791E-06 Eh
 * total energy  :   -96.4858919 Eh     change       -0.3461548E-06 Eh
 * total energy  :   -96.4858921 Eh     change       -0.2385191E-06 Eh
 * total energy  :   -96.4858922 Eh     change       -0.1577883E-06 Eh
 * total energy  :   -96.4858923 Eh     change       -0.3982875E-07 Eh
   *** GEOMETRY OPTIMIZATION CONVERGED AFTER 11 ITERATIONS ***

 final structure:
================
63
 xtb: 6.7.1 (edcfbbe)
C           -6.95782426735396       -0.58821546344235       -0.08808935553727
C           -5.79654870128648        0.41298631661509        0.05578010296610
C           -6.34415596576137        1.83814725589131        0.25710855080431
C           -4.97161727126429        0.38473751858024       -1.21577717281283
C           -5.56600734412837        0.71022216995587       -2.42694183696151
C           -4.86075180185637        0.69950234303237       -3.61626901872400
C           -3.52000147403853        0.35455331400041       -3.60781678363737
C           -2.90375870640891        0.02625014059071       -2.42020562306380
C           -3.61493025356980        0.03637365591374       -1.21474141351713
N           -2.96888424851199       -0.29810110833828       -0.04054555883267
C           -1.59376288208787       -0.66898983582216       -0.09049201475086
C           -1.24564871963020       -2.00252548241260       -0.26723946939742
C            0.08673739994044       -2.37100379094068       -0.31537628028977
C            1.09946312863711       -1.42226540142585       -0.18911480471594
N            2.39086105630580       -1.73893896625326       -0.22972286794184
C            3.35017765141585       -0.82928182414057       -0.10871588808190
C            4.72990067859291       -1.19777247376991       -0.15548349284758
C            5.06782579299356       -2.54981513649312       -0.33216671319657
C            6.37922577964394       -2.94426116264286       -0.38192781722444
C            7.39061005396248       -1.99163608863959       -0.25558517331355
C            7.07810592712965       -0.66474496860533       -0.08229350928594
C            5.74737935280385       -0.22435475545574       -0.02663369642775
C            5.38396092502380        1.16207099853084        0.15443039382420
C            6.33055689940724        2.18862089216425        0.28887035305281
C            5.95252366183429        3.49858772139558        0.46029500111687
C            4.60138289628634        3.84306696440102        0.50539488370580
C            3.64907360793763        2.86608111597505        0.37718245972107
C            4.01726565041341        1.52185851570535        0.20099040846034
C            2.99216968440885        0.53473554122399        0.07067323558879
N            1.70786977104786        0.86803374057572        0.11368983034398
C            0.73479765643842       -0.03259019845676       -0.00570889361985
C           -0.61336816347955        0.30714532682070        0.03894511379374
C           -3.61848616673980       -0.30178448527515        1.17849787398373
C           -2.91024034179620       -0.64355879733065        2.33634451420204
C           -3.53022814548830       -0.65765256849972        3.56653126314954
C           -4.87177517441315       -0.33051707118557        3.66600724493201
C           -5.57377644699855        0.00885918242103        2.52407238542319
C           -4.97555488690004        0.03221458104684        1.27197362787427
H           -7.58035815210934       -0.33961878929844       -0.94302583325282
H           -6.56458445285339       -1.59312834833651       -0.23010195422603
H           -7.58302084983217       -0.58703320315217        0.80039007924562
H           -5.51892710536655        2.54032295661738        0.35943564209100
H           -6.95637277976919        1.89544997397856        1.15271951250880
H           -6.95141229180146        2.14363066344545       -0.59031467325430
H           -6.61080385755816        0.98081368839142       -2.45013985040732
H           -5.35443977716809        0.95808219671609       -4.54050332924828
H           -2.95271471406818        0.34068012640825       -4.52628042637270
H           -1.85894870736634       -0.24255028515702       -2.41640687523114
H           -2.02148595713942       -2.74620393807679       -0.36594266777876
H            0.36937440977699       -3.40267233113844       -0.45184546863143
H            4.26332885711817       -3.26325776497675       -0.42669371570778
H            6.63161870519950       -3.98536854493326       -0.51788798483278
H            8.42534251196466       -2.29920291883596       -0.29421428581530
H            7.88404993357354        0.04549924915511        0.01209118965003
H            7.38325736702418        1.95672653531097        0.25846680041935
H            6.70572627085182        4.26627802395133        0.56073733436275
H            4.31096206682503        4.87433239940161        0.64051347926615
H            2.59610531831415        3.10147308435754        0.40778703032373
H           -0.88727668812919        1.34137463327180        0.17583078211913
H           -1.86464704116675       -0.89860104529085        2.26168104605136
H           -2.96515343726211       -0.92411281894418        4.44702626654766
H           -5.36842960135629       -0.33875329133064        4.62416292092143
H           -6.61901421901128        0.26178816495555        2.61815318208880

 projected vibrational frequencies (cm⁻¹)
eigval :       -0.00    -0.00    -0.00     0.00     0.00     0.00
eigval :        4.51    17.97    18.33    44.23    50.59    58.76
eigval :       83.76    94.26    94.65   104.10   113.63   129.19
eigval :      133.22   149.88   187.58   191.47   198.11   218.74
eigval :      226.89   241.70   245.44   268.55   289.24   303.88
eigval :      328.99   330.52   344.04   349.76   376.80   381.15
eigval :      389.77   394.05   401.90   404.78   411.76   423.38
eigval :      444.94   448.01   450.34   494.00   511.57   521.93
eigval :      524.84   535.34   540.13   545.14   552.63   570.07
eigval :      585.76   585.83   590.20   599.72   616.74   639.25
eigval :      652.34   673.19   674.62   680.28   684.52   696.19
eigval :      700.48   723.80   726.65   759.85   764.87   774.52
eigval :      776.20   778.50   796.41   812.37   825.35   831.58
eigval :      847.74   863.82   865.48   866.02   873.56   875.71
eigval :      907.99   912.80   913.16   913.97   914.64   917.71
eigval :      920.85   920.88   920.96   922.18   937.89   957.06
eigval :      991.95  1009.31  1013.36  1059.53  1076.76  1082.31
eigval :     1085.01  1098.60  1110.14  1116.74  1130.17  1139.59
eigval :     1143.17  1150.40  1157.01  1162.90  1179.31  1180.05
eigval :     1185.10  1185.30  1186.37  1218.82  1222.70  1239.20
eigval :     1245.99  1246.35  1256.01  1257.62  1262.24  1271.45
eigval :     1287.99  1294.43  1300.32  1312.58  1325.15  1335.56
eigval :     1338.45  1338.87  1344.31  1358.11  1371.12  1391.10
eigval :     1401.35  1407.56  1416.90  1418.75  1429.06  1434.64
eigval :     1437.10  1463.45  1467.52  1472.21  1481.99  1488.01
eigval :     1488.98  1491.34  1498.62  1502.65  1517.13  1534.20
eigval :     1536.64  1553.00  1566.50  1581.20  1584.42  1586.26
eigval :     1594.01  1597.25  3027.86  3029.82  3040.62  3043.12
eigval :     3049.49  3053.14  3075.82  3076.56  3080.57  3080.73
eigval :     3084.80  3085.35  3085.52  3085.96  3092.51  3096.21
eigval :     3096.24  3096.62  3097.73  3098.72  3101.53  3103.98
eigval :     3104.39  3104.78  3108.59

   temp. (K)  partition function   enthalpy   heat capacity  entropy
                                   cal/mol     cal/K/mol   cal/K/mol   J/K/mol
 298.15  VIB  0.355E+13            17058.494    112.910    104.404
         ROT  0.414E+08              888.752      2.981     37.834
         INT  0.147E+21            17947.246    115.891    142.239
         TR   0.104E+29             1481.254      4.968     44.420
         TOT                       19428.4999   120.8587   186.6592   780.9819

       T/K    H(0)-H(T)+PV         H(T)/Eh          T*S/Eh         G(T)/Eh
   ------------------------------------------------------------------------
    298.15    0.309613E-01    0.518396E+00    0.886878E-01    0.429708E+00
   ------------------------------------------------------------------------

         :::::::::::::::::::::::::::::::::::::::::::::::::::::
         ::                  THERMODYNAMIC                  ::
         :::::::::::::::::::::::::::::::::::::::::::::::::::::
         :: total free energy         -96.056184253597 Eh   ::
         ::.................................................::
         :: total energy              -96.485892297236 Eh   ::
         :: zero point energy           0.487434549150 Eh   ::
         :: G(RRHO) w/o ZPVE           -0.057726505511 Eh   ::
         :: G(RRHO) contrib.            0.429708043639 Eh   ::
         :::::::::::::::::::::::::::::::::::::::::::::::::::::

           -------------------------------------------------
          | TOTAL ENERGY              -96.485892297236 Eh   |
          | TOTAL ENTHALPY            -95.967496462697 Eh   |
          | TOTAL FREE ENERGY         -96.056184253597 Eh   |
          | GRADIENT NORM               0.000040801699 Eh/α |
           -------------------------------------------------

 * finished run on 2025/09/05 at 11:26:04.325
