   * xtb version 6.7.1 (edcfbbe) compiled by 'albert@albert-system' on 2024-07-22

   ID    Z sym.   atoms
    1    6 C      1-9, 11-14, 16-29, 31-38
    2    7 N      10, 15, 30
    3    1 H      39-63

          program call               : xtb data2507/gas/DMAC-11-DPPZ/DMAC-11-DPPZ_gas_S0_crest.xyz --gfn 2 --ohess vtight --parallel 40 --molden --ceasefiles --namespace data2507/gas/DMAC-11-DPPZ/DMAC-11-DPPZ_gas_S0_finalOpt
          :  Hamiltonian                  GFN2-xTB          :
 * total energy  :   -96.5280085 Eh     change       -0.1758522E-08 Eh
 * total energy  :   -96.5280089 Eh     change       -0.4489395E-06 Eh
 * total energy  :   -96.5280094 Eh     change       -0.5152885E-06 Eh
 * total energy  :   -96.5280099 Eh     change       -0.4872334E-06 Eh
 * total energy  :   -96.5280103 Eh     change       -0.3713246E-06 Eh
 * total energy  :   -96.5280107 Eh     change       -0.3557909E-06 Eh
 * total energy  :   -96.5280110 Eh     change       -0.3410758E-06 Eh
 * total energy  :   -96.5280114 Eh     change       -0.3626272E-06 Eh
 * total energy  :   -96.5280118 Eh     change       -0.4461965E-06 Eh
 * total energy  :   -96.5280123 Eh     change       -0.4674530E-06 Eh
 * total energy  :   -96.5280126 Eh     change       -0.3717462E-06 Eh
 * total energy  :   -96.5280129 Eh     change       -0.2651779E-06 Eh
 * total energy  :   -96.5280132 Eh     change       -0.2462794E-06 Eh
 * total energy  :   -96.5280134 Eh     change       -0.2526438E-06 Eh
 * total energy  :   -96.5280136 Eh     change       -0.2316262E-06 Eh
 * total energy  :   -96.5280139 Eh     change       -0.2158029E-06 Eh
 * total energy  :   -96.5280141 Eh     change       -0.1951308E-06 Eh
 * total energy  :   -96.5280142 Eh     change       -0.1156445E-06 Eh
 * total energy  :   -96.5280142 Eh     change       -0.1884850E-07 Eh
   *** GEOMETRY OPTIMIZATION CONVERGED AFTER 19 ITERATIONS ***

 final structure:
================
63
 xtb: 6.7.1 (edcfbbe)
C           -6.90758634343628       -0.22739687422137       -0.72270849089031
C           -5.79569781751588        0.35098564947275        0.17162017311282
C           -6.40111149629986        1.26469114240406        1.25291522307319
C           -4.85879359381430        1.17197471608155       -0.69346601767849
C           -5.36230801935445        2.25756294748435       -1.39768568647485
C           -4.56993847437167        3.02613139385064       -2.22915853420236
C           -3.23534269457865        2.69716597958877       -2.38121827797686
C           -2.70881572457355        1.62570074516525       -1.69156886207502
C           -3.50098955220770        0.86360611025059       -0.82785923317998
N           -2.94420363081074       -0.20671941232149       -0.14011562977787
C           -1.57254898182728       -0.51481737747729       -0.31991393583362
C           -1.22710857956449       -1.67118810008797       -1.05970578602111
C            0.07807076432416       -2.00299489258912       -1.26950721743334
C            1.10611006920929       -1.18862007231455       -0.74475039422807
N            2.38838803008293       -1.51447887689510       -0.95072712599257
C            3.31834786893149       -0.72760490079126       -0.44176608060720
C            4.71002618733129       -1.05973912059657       -0.65104663900020
C            5.03670919196938       -2.20217621854251       -1.38709870584997
C            6.35023590999929       -2.54614558302019       -1.60450877063293
C            7.36005050743821       -1.74460094565344       -1.08426484193848
C            7.05139698256437       -0.61585092600467       -0.35684884623454
C            5.72435009348152       -0.23971003632458       -0.11810822512415
C            5.37164627415543        0.94801590190514        0.64800064901427
C            6.33398227445222        1.79932350036347        1.20370821270206
C            5.97570411674662        2.91738126839207        1.92489620261425
C            4.63546744024373        3.23106830524300        2.12004506253041
C            3.66689484171488        2.41369465571596        1.58630163526658
C            4.01693582348996        1.27628828165851        0.85333758303690
C            2.97214884958519        0.43826792744789        0.30731652952606
N            1.71188754654745        0.77073494284782        0.51316661551457
C            0.75986229411019       -0.02197568932230        0.00059412959209
C           -0.59832337230699        0.29419787703170        0.20420097618537
C           -3.70414736205165       -1.01510725856884        0.69314704409325
C           -3.08668794043220       -2.04738204881388        1.40633653370222
C           -3.81624570579382       -2.87662970074625        2.23166996273609
C           -5.17848173410064       -2.68365516345056        2.37199488001081
C           -5.78557440563672       -1.64289828000205        1.69444810549111
C           -5.07518533366776       -0.79343068224221        0.85720604971549
H           -7.46325648690080        0.56609357251715       -1.21456230262205
H           -6.47144369004763       -0.86619376476197       -1.48859387997535
H           -7.60625327127221       -0.82026347814567       -0.13889986066863
H           -5.60933531204043        1.66630114104497        1.88258214707422
H           -7.09428819694234        0.71453686887227        1.88317907605196
H           -6.93679650485596        2.09618692821999        0.80341893015763
H           -6.40641127079054        2.51401131836044       -1.30034885936797
H           -4.99352227311164        3.86536968813737       -2.75939907463298
H           -2.60015607190950        3.27131506534559       -3.03914411168652
H           -1.66918426588633        1.37200382669704       -1.82834122733098
H           -2.02492348433108       -2.28080965839595       -1.45817765281255
H            0.35852622372871       -2.87708868790194       -1.83615131214443
H            4.22649025990690       -2.79920102506393       -1.77513545347720
H            6.59780211379615       -3.42973335772039       -2.17350829308834
H            8.39491180869189       -2.00661159344268       -1.24997514661881
H            7.86211302045309       -0.01956386472241        0.03010194355464
H            7.38356125218602        1.58939841767192        1.07391105443130
H            6.74379082125020        3.55319131046808        2.34066088381895
H            4.36035760348533        4.10851641683817        2.68585955597404
H            2.61718700345231        2.62459315717649        1.71690168678854
H           -0.84749327927234        1.17951714212611        0.76865978420883
H           -2.02138091942070       -2.19561570901268        1.31814639705631
H           -3.31640312330072       -3.66961797169758        2.76770949962101
H           -5.76188381973722       -3.32812224929609        3.01168880374894
H           -6.84613129316331       -1.49136460663041        1.82747961627291

          :  Hamiltonian                  GFN2-xTB          :
         :: gradient norm              0.000072430716 Eh/a0 ::
         :: HOMO-LUMO gap              1.164401937287 eV    ::
         :: SCC energy               -98.288390321400 Eh    ::
         :: -> dispersion             -0.087901556171 Eh    ::
         :: repulsion energy           1.760376136499 Eh    ::

    * Orbital Energies and Occupations

         #    Occupation            Energy/Eh            Energy/eV
      -------------------------------------------------------------
         1        2.0000           -0.6752457             -18.3744
       ...           ...                  ...                  ...
        78        2.0000           -0.4198065             -11.4235
        79        2.0000           -0.4179581             -11.3732
        80        2.0000           -0.4103751             -11.1669
        81        2.0000           -0.4081540             -11.1064
        82        2.0000           -0.4052748             -11.0281
        83        2.0000           -0.4016328             -10.9290
        84        2.0000           -0.4003060             -10.8929
        85        2.0000           -0.3952685             -10.7558
        86        2.0000           -0.3928071             -10.6888
        87        2.0000           -0.3901067             -10.6153
        88        2.0000           -0.3894670             -10.5979
        89        2.0000           -0.3499862              -9.5236
        90        2.0000           -0.3445865              -9.3767 (HOMO)
        91                         -0.3017954              -8.2123 (LUMO)
        92                         -0.2665281              -7.2526
        93                         -0.2539289              -6.9098
        94                         -0.2259574              -6.1486
        95                         -0.2215955              -6.0299
        96                         -0.2207920              -6.0081
        97                         -0.2161534              -5.8818
        98                         -0.2152747              -5.8579
        99                         -0.2033146              -5.5325
       100                         -0.1967883              -5.3549
       101                         -0.1869006              -5.0858
       ...                                ...                  ...
       177                          0.7150973              19.4588
      -------------------------------------------------------------
                  HL-Gap            0.0427911 Eh            1.1644 eV

     #   Z          covCN         q      C6AA      α(0)
     1   6 C        3.761    -0.103    22.510     6.763
     2   6 C        3.909     0.021    20.156     6.381
     3   6 C        3.761    -0.103    22.514     6.764
     4   6 C        2.980    -0.014    28.344     8.733
     5   6 C        2.928    -0.036    28.899     8.816
     6   6 C        2.917    -0.044    29.098     8.846
     7   6 C        2.920    -0.032    28.809     8.802
     8   6 C        2.924    -0.058    29.444     8.899
     9   6 C        2.926     0.058    26.699     8.474
    10   7 N        2.754    -0.068    22.561     7.055
    11   6 C        2.924     0.071    26.404     8.427
    12   6 C        2.918    -0.037    28.911     8.817
    13   6 C        2.916    -0.040    28.991     8.829
    14   6 C        2.967     0.080    26.222     8.399
    15   7 N        1.848    -0.239    27.087     7.714
    16   6 C        2.962     0.083    26.147     8.387
    17   6 C        2.988    -0.001    28.047     8.687
    18   6 C        2.924    -0.027    28.673     8.781
    19   6 C        2.917    -0.028    28.709     8.786
    20   6 C        2.918    -0.027    28.674     8.781
    21   6 C        2.922    -0.034    28.836     8.806
    22   6 C        2.976     0.007    27.861     8.658
    23   6 C        2.976     0.007    27.856     8.657
    24   6 C        2.922    -0.034    28.837     8.806
    25   6 C        2.918    -0.027    28.670     8.780
    26   6 C        2.917    -0.028    28.707     8.786
    27   6 C        2.924    -0.027    28.666     8.780
    28   6 C        2.988    -0.001    28.048     8.687
    29   6 C        2.961     0.084    26.118     8.383
    30   7 N        1.849    -0.240    27.116     7.718
    31   6 C        2.967     0.081    26.182     8.393
    32   6 C        2.920    -0.052    29.297     8.876
    33   6 C        2.929     0.058    26.695     8.473
    34   6 C        2.924    -0.058    29.441     8.898
    35   6 C        2.920    -0.033    28.818     8.803
    36   6 C        2.917    -0.044    29.098     8.846
    37   6 C        2.928    -0.036    28.899     8.816
    38   6 C        2.980    -0.013    28.342     8.733
    39   1 H        0.925     0.039     2.460     2.453
    40   1 H        0.925     0.031     2.573     2.508
    41   1 H        0.925     0.039     2.461     2.453
    42   1 H        0.925     0.032     2.560     2.502
    43   1 H        0.925     0.039     2.462     2.454
    44   1 H        0.925     0.039     2.459     2.452
    45   1 H        0.926     0.030     2.587     2.515
    46   1 H        0.926     0.026     2.642     2.542
    47   1 H        0.926     0.028     2.620     2.531
    48   1 H        0.926     0.024     2.671     2.556
    49   1 H        0.926     0.048     2.348     2.396
    50   1 H        0.926     0.057     2.240     2.341
    51   1 H        0.926     0.059     2.208     2.324
    52   1 H        0.926     0.036     2.501     2.473
    53   1 H        0.926     0.035     2.523     2.484
    54   1 H        0.926     0.036     2.500     2.472
    55   1 H        0.926     0.036     2.499     2.472
    56   1 H        0.926     0.035     2.521     2.483
    57   1 H        0.926     0.036     2.497     2.471
    58   1 H        0.926     0.060     2.200     2.320
    59   1 H        0.926     0.059     2.207     2.323
    60   1 H        0.926     0.024     2.673     2.557
    61   1 H        0.926     0.027     2.624     2.533
    62   1 H        0.926     0.026     2.641     2.542
    63   1 H        0.926     0.030     2.587     2.515

molecular dipole:
                 x           y           z       tot (Debye)
 q only:        0.456       0.033       0.020
   full:        0.518       0.017       0.008       1.317

 projected vibrational frequencies (cm⁻¹)
eigval :       -0.00    -0.00    -0.00    -0.00     0.00     0.00
eigval :       11.16    16.30    18.49    45.58    49.94    58.66
eigval :       83.48    89.72    94.22   102.42   116.95   128.13
eigval :      134.06   150.59   189.60   200.09   202.23   218.65
eigval :      231.10   242.16   253.25   288.76   292.07   306.08
eigval :      329.30   332.65   344.75   354.11   376.26   378.37
eigval :      389.94   392.34   399.01   401.51   410.99   436.81
eigval :      442.84   446.28   452.85   490.33   514.90   519.84
eigval :      530.52   538.91   545.64   547.39   560.44   572.97
eigval :      586.60   587.63   595.38   603.25   633.45   654.73
eigval :      674.41   682.86   683.06   687.24   694.01   703.00
eigval :      734.84   735.63   762.47   768.18   769.76   776.68
eigval :      777.94   789.85   817.19   827.80   837.43   855.31
eigval :      866.38   866.88   869.77   879.58   880.60   913.08
eigval :      913.96   915.12   917.54   920.68   921.07   921.40
eigval :      922.47   929.09   929.69   938.34   941.28   957.25
eigval :      986.41  1014.53  1023.62  1060.87  1077.24  1081.47
eigval :     1084.86  1101.76  1114.70  1120.39  1140.66  1141.59
eigval :     1147.02  1149.14  1160.30  1162.87  1181.21  1181.44
eigval :     1184.73  1188.51  1188.94  1209.87  1234.65  1240.81
eigval :     1245.87  1251.68  1257.53  1268.66  1285.53  1289.07
eigval :     1295.54  1299.31  1303.58  1324.42  1325.42  1334.28
eigval :     1337.56  1342.41  1350.07  1370.57  1402.87  1410.83
eigval :     1421.03  1426.40  1426.75  1435.41  1437.65  1443.19
eigval :     1463.07  1476.36  1479.69  1486.31  1490.14  1491.12
eigval :     1495.43  1500.69  1504.65  1505.44  1533.19  1556.28
eigval :     1569.53  1575.56  1587.30  1590.13  1593.24  1597.93
eigval :     1599.79  1604.17  3026.44  3028.93  3039.37  3042.10
eigval :     3048.37  3052.55  3076.77  3077.46  3078.21  3078.50
eigval :     3082.94  3083.42  3085.95  3088.23  3089.23  3093.67
eigval :     3094.79  3099.97  3100.13  3101.32  3102.42  3103.31
eigval :     3109.39  3109.84  3110.68

   temp. (K)  partition function   enthalpy   heat capacity  entropy
                                   cal/mol     cal/K/mol   cal/K/mol   J/K/mol
 298.15  VIB  0.134E+13            16894.470    111.810    102.747
         ROT  0.412E+08              888.752      2.981     37.826
         INT  0.554E+20            17783.222    114.791    140.573
         TR   0.104E+29             1481.254      4.968     44.420
         TOT                       19264.4760   119.7587   184.9931   774.0113

       T/K    H(0)-H(T)+PV         H(T)/Eh          T*S/Eh         G(T)/Eh
   ------------------------------------------------------------------------
    298.15    0.306999E-01    0.520603E+00    0.878962E-01    0.432707E+00
   ------------------------------------------------------------------------

         :::::::::::::::::::::::::::::::::::::::::::::::::::::
         ::                  THERMODYNAMIC                  ::
         :::::::::::::::::::::::::::::::::::::::::::::::::::::
         :: total free energy         -96.095307081958 Eh   ::
         ::.................................................::
         :: total energy              -96.528014184901 Eh   ::
         :: zero point energy           0.489903413012 Eh   ::
         :: G(RRHO) w/o ZPVE           -0.057196310068 Eh   ::
         :: G(RRHO) contrib.            0.432707102943 Eh   ::
         :::::::::::::::::::::::::::::::::::::::::::::::::::::

           -------------------------------------------------
          | TOTAL ENERGY              -96.528014184901 Eh   |
          | TOTAL ENTHALPY            -96.007410875281 Eh   |
          | TOTAL FREE ENERGY         -96.095307081958 Eh   |
          | GRADIENT NORM               0.000072453223 Eh/α |
          | HOMO-LUMO GAP               1.164404503181 eV   |
           -------------------------------------------------

 * finished run on 2025/09/05 at 11:22:15.046
