   * xtb version 6.7.1 (edcfbbe) compiled by 'albert@albert-system' on 2024-07-22

   ID    Z sym.   atoms
    1    6 C      1-9, 11-14, 16-29, 31-38
    2    7 N      10, 15, 30
    3    1 H      39-63

          program call               : xtb data2507/gas/DMAC-11-DPPZ/DMAC-11-DPPZ.xyz --gfn 2 --ohess vtight --parallel 40 --molden --ceasefiles --namespace data2507/gas/DMAC-11-DPPZ/DMAC-11-DPPZ_gas_S0_preOpt
          :  Hamiltonian                  GFN2-xTB          :
 * total energy  :   -96.5035455 Eh     change       -0.1497853E-08 Eh
 * total energy  :   -96.5214723 Eh     change       -0.1792681E-01 Eh
 * total energy  :   -96.5266515 Eh     change       -0.5179205E-02 Eh
 * total energy  :   -96.5273533 Eh     change       -0.7017908E-03 Eh
 * total energy  :   -96.5277033 Eh     change       -0.3500270E-03 Eh
 * total energy  :   -96.5277663 Eh     change       -0.6300400E-04 Eh
 * total energy  :   -96.5277853 Eh     change       -0.1894760E-04 Eh
 * total energy  :   -96.5277915 Eh     change       -0.6258067E-05 Eh
 * total energy  :   -96.5277928 Eh     change       -0.1241557E-05 Eh
 * total energy  :   -96.5277933 Eh     change       -0.5231924E-06 Eh
 * total energy  :   -96.5277935 Eh     change       -0.2126905E-06 Eh
 * total energy  :   -96.5277938 Eh     change       -0.2862778E-06 Eh
 * total energy  :   -96.5277942 Eh     change       -0.3579710E-06 Eh
 * total energy  :   -96.5277945 Eh     change       -0.3218138E-06 Eh
 * total energy  :   -96.5277947 Eh     change       -0.2116697E-06 Eh
 * total energy  :   -96.5277948 Eh     change       -0.9314394E-07 Eh
   *** GEOMETRY OPTIMIZATION CONVERGED AFTER 16 ITERATIONS ***

 final structure:
================
63
 xtb: 6.7.1 (edcfbbe)
C           -6.52055173418640        0.71738505910703        0.00074811964372
C           -5.35923166433394       -0.29338873429754       -0.00026663264810
C           -5.90581638392568       -1.73265268827304       -0.00169998757704
C           -4.53549160849380       -0.08872220416470        1.25730977803863
C           -5.13686649395392       -0.22791839825736        2.50043350315628
C           -4.43559922014340       -0.05340963828071        3.67928870626923
C           -3.09210875914659        0.27054064305146        3.62601748840334
C           -2.46862984307259        0.41358923064786        2.40447189795435
C           -3.17577767803060        0.23571464157355        1.21202814750056
N           -2.52105531631944        0.38293920444587        0.00039574768503
C           -1.13885170419266        0.71685332410084        0.00071227184588
C           -0.76828508243452        2.08160152740607        0.00193103454348
C            0.54547818166342        2.44705232912919        0.00225147493166
C            1.55187866526748        1.45633407900450        0.00135491804635
N            2.84285672960365        1.81516164539036        0.00165427658386
C            3.75288756518783        0.85981634503101        0.00077822178632
C            5.15268468601486        1.22335661691631        0.00107594450807
C            5.50748742932316        2.57522664980887        0.00228437795749
C            6.82928392184230        2.95474978659601        0.00260012255884
C            7.81889943206914        1.97836308117924        0.00170455237390
C            7.48235618202198        0.64217123699490        0.00050851483722
C            6.14636994735922        0.22440237431736        0.00015652031472
C            5.76463213516463       -1.18154818070137       -0.00110625795460
C            6.70580944917301       -2.21770643077738       -0.00206826827114
C            6.32012099033656       -3.54057071737555       -0.00325838246546
C            4.97259181751516       -3.88230791178496       -0.00353557512778
C            4.02427487661753       -2.88636355636283       -0.00260977700170
C            4.40224892971513       -1.54079427697418       -0.00139928928498
C            3.37836631485091       -0.51927954813322       -0.00045284003623
N            2.11058081896714       -0.88369737687938       -0.00075028032919
C            1.17817563432181        0.07931436932302        0.00013015183850
C           -0.18833715616705       -0.26847884496466       -0.00016864812063
C           -3.17578007848551        0.23811616176209       -1.21152394217706
C           -2.46863612748224        0.41832611794497       -2.40361884204378
C           -3.09212799465043        0.27770989155240       -3.62544072164761
C           -4.43562665270191       -0.04610006178466       -3.67934414876351
C           -5.13688759342628       -0.22293541674993       -2.50083165900801
C           -4.53550134222749       -0.08621493021896       -1.25743933745177
H           -7.14505132464937        0.59097683322183        0.88074328805966
H           -6.12750092918010        1.73243672184320        0.00176525697144
H           -7.14505434404399        0.59274154024910       -0.87949654019706
H           -5.07979982058380       -2.44141401396883       -0.00240665882211
H           -6.51513479488834       -1.91541629018006       -0.88258809066044
H           -6.51513314609082       -1.91717043764742        0.87882356556476
H           -6.18485162206883       -0.48101436123796        2.55775011145188
H           -4.93499149827144       -0.16950780793015        4.62911563131892
H           -2.52576836059840        0.41243566894065        4.53444791978223
H           -1.41951939993926        0.66543630796219        2.36916454003169
H           -1.55223887215977        2.82458729404988        0.00259678133715
H            0.84855414690352        3.48239675324271        0.00317538223100
H            4.71238433006115        3.30410096266070        0.00295506474413
H            7.09862764393863        4.00028864729109        0.00353457640034
H            8.86000540114914        2.26663503727168        0.00194533246872
H            8.27810987839596       -0.08534094934489       -0.00015982784806
H            7.76026352882875       -1.99273847493911       -0.00189070552958
H            7.07240068295199       -4.31586418332421       -0.00398001023851
H            4.67602694437765       -4.92043984147619       -0.00447023074570
H            2.96970506068285       -3.11278053324308       -0.00279044048329
H           -0.46163782649531       -1.31223646534532       -0.00110000956145
H           -1.41951748810285        0.67006964150395       -2.36782414553640
H           -2.52578977369906        0.42138678174595       -4.53359240033612
H           -4.93502901474906       -0.16030347622080       -4.62939542540324
H           -6.18487667540963       -0.47590275442728       -2.55864214586876

          :  Hamiltonian                  GFN2-xTB          :
         :: gradient norm              0.000113839932 Eh/a0 ::
         :: HOMO-LUMO gap              1.055733691889 eV    ::
         :: SCC energy               -98.288629982231 Eh    ::
         :: -> dispersion             -0.087800850778 Eh    ::
         :: repulsion energy           1.760835186718 Eh    ::

    * Orbital Energies and Occupations

         #    Occupation            Energy/Eh            Energy/eV
      -------------------------------------------------------------
         1        2.0000           -0.6771439             -18.4260
       ...           ...                  ...                  ...
        78        2.0000           -0.4207712             -11.4498
        79        2.0000           -0.4194320             -11.4133
        80        2.0000           -0.4120731             -11.2131
        81        2.0000           -0.4071819             -11.0800
        82        2.0000           -0.4034601             -10.9787
        83        2.0000           -0.4027978             -10.9607
        84        2.0000           -0.3990875             -10.8597
        85        2.0000           -0.3942560             -10.7283
        86        2.0000           -0.3937516             -10.7145
        87        2.0000           -0.3910728             -10.6416
        88        2.0000           -0.3886113             -10.5747
        89        2.0000           -0.3517585              -9.5718
        90        2.0000           -0.3425562              -9.3214 (HOMO)
        91                         -0.3037586              -8.2657 (LUMO)
        92                         -0.2681158              -7.2958
        93                         -0.2553059              -6.9472
        94                         -0.2274277              -6.1886
        95                         -0.2214407              -6.0257
        96                         -0.2197912              -5.9808
        97                         -0.2148846              -5.8473
        98                         -0.2138581              -5.8194
        99                         -0.2048556              -5.5744
       100                         -0.1980613              -5.3895
       101                         -0.1855707              -5.0496
       ...                                ...                  ...
       177                          0.7134879              19.4150
      -------------------------------------------------------------
                  HL-Gap            0.0387976 Eh            1.0557 eV

     #   Z          covCN         q      C6AA      α(0)
     1   6 C        3.761    -0.103    22.510     6.763
     2   6 C        3.909     0.021    20.156     6.381
     3   6 C        3.761    -0.103    22.508     6.763
     4   6 C        2.979    -0.014    28.363     8.736
     5   6 C        2.928    -0.036    28.899     8.816
     6   6 C        2.917    -0.045    29.119     8.849
     7   6 C        2.920    -0.033    28.816     8.803
     8   6 C        2.924    -0.059    29.455     8.900
     9   6 C        2.929     0.059    26.687     8.472
    10   7 N        2.755    -0.072    22.640     7.067
    11   6 C        2.925     0.074    26.354     8.419
    12   6 C        2.918    -0.036    28.900     8.816
    13   6 C        2.916    -0.039    28.969     8.826
    14   6 C        2.967     0.080    26.215     8.398
    15   7 N        1.848    -0.238    27.063     7.710
    16   6 C        2.961     0.084    26.125     8.384
    17   6 C        2.988    -0.001    28.046     8.687
    18   6 C        2.924    -0.027    28.666     8.780
    19   6 C        2.917    -0.028    28.704     8.786
    20   6 C        2.918    -0.027    28.666     8.780
    21   6 C        2.922    -0.033    28.833     8.806
    22   6 C        2.976     0.007    27.852     8.657
    23   6 C        2.976     0.007    27.851     8.657
    24   6 C        2.922    -0.033    28.833     8.806
    25   6 C        2.918    -0.026    28.663     8.779
    26   6 C        2.917    -0.028    28.701     8.785
    27   6 C        2.924    -0.026    28.661     8.779
    28   6 C        2.988    -0.001    28.045     8.687
    29   6 C        2.962     0.085    26.109     8.381
    30   7 N        1.849    -0.238    27.067     7.711
    31   6 C        2.967     0.082    26.171     8.391
    32   6 C        2.920    -0.050    29.236     8.867
    33   6 C        2.929     0.059    26.687     8.472
    34   6 C        2.924    -0.059    29.455     8.900
    35   6 C        2.920    -0.033    28.816     8.803
    36   6 C        2.917    -0.045    29.119     8.849
    37   6 C        2.928    -0.036    28.899     8.816
    38   6 C        2.979    -0.014    28.363     8.736
    39   1 H        0.925     0.039     2.465     2.455
    40   1 H        0.925     0.031     2.576     2.510
    41   1 H        0.925     0.039     2.465     2.455
    42   1 H        0.925     0.031     2.565     2.505
    43   1 H        0.925     0.039     2.466     2.456
    44   1 H        0.925     0.039     2.466     2.456
    45   1 H        0.926     0.029     2.597     2.520
    46   1 H        0.926     0.025     2.654     2.547
    47   1 H        0.926     0.027     2.636     2.539
    48   1 H        0.926     0.021     2.720     2.579
    49   1 H        0.926     0.049     2.337     2.390
    50   1 H        0.926     0.057     2.229     2.335
    51   1 H        0.926     0.060     2.203     2.321
    52   1 H        0.926     0.037     2.493     2.469
    53   1 H        0.926     0.035     2.514     2.480
    54   1 H        0.926     0.037     2.493     2.469
    55   1 H        0.926     0.037     2.493     2.469
    56   1 H        0.926     0.035     2.513     2.479
    57   1 H        0.926     0.037     2.490     2.467
    58   1 H        0.926     0.060     2.196     2.317
    59   1 H        0.926     0.060     2.195     2.317
    60   1 H        0.926     0.021     2.720     2.579
    61   1 H        0.926     0.027     2.636     2.539
    62   1 H        0.926     0.025     2.654     2.547
    63   1 H        0.926     0.029     2.597     2.520

molecular dipole:
                 x           y           z       tot (Debye)
 q only:        0.679      -0.053      -0.000
   full:        0.747      -0.034      -0.000       1.901

 projected vibrational frequencies (cm⁻¹)
eigval :       -0.00    -0.00     0.00     0.00     0.00     0.00
eigval :      -10.62    16.29    18.30    39.36    42.07    57.39
eigval :       82.61    89.28    95.73    97.13   115.57   129.24
eigval :      134.79   147.67   190.77   197.35   198.93   219.68
eigval :      227.97   242.21   251.17   286.93   290.44   304.47
eigval :      329.79   330.74   345.20   352.34   376.08   376.46
eigval :      389.80   393.13   398.61   401.34   410.34   436.24
eigval :      442.74   444.40   449.60   486.53   515.40   519.26
eigval :      530.25   538.38   545.02   547.25   558.29   572.79
eigval :      586.64   587.61   594.88   603.14   634.28   655.09
eigval :      674.89   681.80   683.12   687.29   692.96   702.96
eigval :      735.04   735.97   762.47   768.20   770.31   775.90
eigval :      777.23   790.16   814.23   827.34   837.38   856.02
eigval :      863.93   864.44   869.85   875.68   880.01   912.48
eigval :      913.33   915.44   917.82   919.99   920.64   920.65
eigval :      921.33   929.24   929.84   938.51   941.15   957.07
eigval :      986.24  1014.34  1023.59  1060.51  1077.50  1081.69
eigval :     1084.85  1101.81  1112.82  1119.11  1139.69  1141.00
eigval :     1145.84  1149.07  1160.64  1161.82  1181.22  1181.35
eigval :     1184.27  1187.53  1187.56  1208.94  1234.61  1240.14
eigval :     1246.03  1249.63  1256.97  1268.69  1285.36  1289.92
eigval :     1294.83  1301.18  1302.19  1324.80  1326.21  1335.33
eigval :     1338.34  1346.75  1349.51  1370.76  1402.52  1409.07
eigval :     1420.76  1426.36  1426.82  1436.15  1438.04  1445.02
eigval :     1463.35  1476.24  1482.30  1485.90  1490.24  1490.99
eigval :     1497.16  1500.74  1505.65  1507.24  1533.68  1556.42
eigval :     1569.56  1575.91  1587.15  1590.82  1593.45  1598.61
eigval :     1600.54  1604.91  3026.57  3028.96  3038.72  3041.59
eigval :     3047.59  3051.71  3077.15  3077.25  3077.29  3077.94
eigval :     3081.70  3081.80  3087.48  3088.77  3089.76  3091.61
eigval :     3091.96  3097.83  3098.66  3100.36  3102.55  3103.51
eigval :     3109.58  3110.13  3110.98

   temp. (K)  partition function   enthalpy   heat capacity  entropy
                                   cal/mol     cal/K/mol   cal/K/mol   J/K/mol
 298.15  VIB  0.213E+13            16950.108    111.583    103.137
         ROT  0.412E+08              888.752      2.981     37.826
         INT  0.877E+20            17838.861    114.564    140.963
         TR   0.104E+29             1481.254      4.968     44.420
         TOT                       19320.1148   119.5321   185.3833   775.6436

       T/K    H(0)-H(T)+PV         H(T)/Eh          T*S/Eh         G(T)/Eh
   ------------------------------------------------------------------------
    298.15    0.307886E-01    0.520508E+00    0.880816E-01    0.432427E+00
   ------------------------------------------------------------------------

         :::::::::::::::::::::::::::::::::::::::::::::::::::::
         ::                  THERMODYNAMIC                  ::
         :::::::::::::::::::::::::::::::::::::::::::::::::::::
         :: total free energy         -96.095368227035 Eh   ::
         ::.................................................::
         :: total energy              -96.527794795514 Eh   ::
         :: zero point energy           0.489719581022 Eh   ::
         :: G(RRHO) w/o ZPVE           -0.057293012542 Eh   ::
         :: G(RRHO) contrib.            0.432426568479 Eh   ::
         :::::::::::::::::::::::::::::::::::::::::::::::::::::

           -------------------------------------------------
          | TOTAL ENERGY              -96.527794795514 Eh   |
          | TOTAL ENTHALPY            -96.007286651853 Eh   |
          | TOTAL FREE ENERGY         -96.095368227035 Eh   |
          | GRADIENT NORM               0.000113801790 Eh/α |
          | HOMO-LUMO GAP               1.055737454360 eV   |
           -------------------------------------------------

 * finished run on 2025/09/05 at 11:19:39.100
