   * xtb version 6.7.1 (edcfbbe) compiled by 'albert@albert-system' on 2024-07-22

   ID    Z sym.   atoms
    1    6 C      1-9, 11-14, 16-29, 31-38
    2    7 N      10, 15, 30
    3    1 H      39-63

          program call               : xtb data2507/gas/DMAC-11-DPPZ/DMAC-11-DPPZ_gas_S0_finalOpt.xtbopt.xyz --gfn 2 --spinpol --tblite --uhf 2 --ohess vtight --parallel 40 --molden --ceasefiles --namespace data2507/gas/DMAC-11-DPPZ/DMAC-11-DPPZ_gas_T1_preOpt
 * total energy  :   -96.4811161 Eh     change       -0.8850378E-09 Eh
 * total energy  :   -96.4843598 Eh     change       -0.3243677E-02 Eh
 * total energy  :   -96.4854225 Eh     change       -0.1062676E-02 Eh
 * total energy  :   -96.4855602 Eh     change       -0.1377588E-03 Eh
 * total energy  :   -96.4856205 Eh     change       -0.6025613E-04 Eh
 * total energy  :   -96.4856301 Eh     change       -0.9601315E-05 Eh
 * total energy  :   -96.4856417 Eh     change       -0.1161964E-04 Eh
 * total energy  :   -96.4856541 Eh     change       -0.1241190E-04 Eh
 * total energy  :   -96.4856655 Eh     change       -0.1140239E-04 Eh
 * total energy  :   -96.4856746 Eh     change       -0.9094316E-05 Eh
 * total energy  :   -96.4857673 Eh     change       -0.2363749E-05 Eh
 * total energy  :   -96.4857697 Eh     change       -0.2358266E-05 Eh
 * total energy  :   -96.4857720 Eh     change       -0.2264503E-05 Eh
 * total energy  :   -96.4857742 Eh     change       -0.2192927E-05 Eh
 * total energy  :   -96.4857762 Eh     change       -0.2019036E-05 Eh
 * total energy  :   -96.4857778 Eh     change       -0.1641321E-05 Eh
 * total energy  :   -96.4857791 Eh     change       -0.1309361E-05 Eh
 * total energy  :   -96.4857802 Eh     change       -0.1039948E-05 Eh
 * total energy  :   -96.4857802 Eh     change       -0.2866497E-07 Eh
   *** GEOMETRY OPTIMIZATION CONVERGED AFTER 44 ITERATIONS ***

 final structure:
================
63
 xtb: 6.7.1 (edcfbbe)
C           -6.95334498861752       -0.21539671465572       -0.61713039042473
C           -5.79289370839350        0.37290630478487        0.20680251983177
C           -6.33600846074146        1.32942271945122        1.28468051028011
C           -4.88601579190545        1.15191398600608       -0.72496093815399
C           -5.39868324763338        2.22679230647149       -1.43793427862841
C           -4.62404623268747        2.96044155242127       -2.31720729780342
C           -3.29813670117924        2.61072173418381       -2.50677943493344
C           -2.76216084098796        1.54906755458541       -1.81130108417484
C           -3.53805991413094        0.81648086735047       -0.90540244909553
N           -2.96895226535739       -0.23589669785669       -0.21234135359567
C           -1.59534812494867       -0.54273154097664       -0.42562560317836
C           -1.24447390050976       -1.61856427116076       -1.23284120543859
C            0.08793092948014       -1.92787246731019       -1.43745153655599
C            1.10015362765376       -1.16926661766064       -0.85299282029014
N            2.39156250015749       -1.43750316067611       -1.02466520126329
C            3.34998823441948       -0.70491039559991       -0.47047674724650
C            4.72984223524440       -1.01886077714443       -0.66773543007818
C            5.06897208975671       -2.13409137298287       -1.45177816452885
C            6.38047565993789       -2.47269891504447       -1.65948025733863
C            7.39079013515712       -1.70045455002438       -1.08564393344082
C            7.07714962720656       -0.60521866313662       -0.31726234219613
C            5.74630381401455       -0.22819116895775       -0.08369097418087
C            5.38174039249608        0.91717472797599        0.71768017571421
C            6.32745915028706        1.76258476675980        1.31669540369127
C            5.94831356813577        2.84479857909353        2.07390376615776
C            4.59687201161129        3.13138949386272        2.26827937838649
C            3.64540074738906        2.32728776970007        1.69735025356738
C            4.01475730241805        1.21809558089891        0.91834988355319
C            2.99059497012526        0.41093574991104        0.33374088019854
N            1.70608194727004        0.68840634188465        0.52130276361670
C            0.73372742101271       -0.04021083252728       -0.02284846481639
C           -0.61443253735920        0.23757169803630        0.17533153045349
C           -3.69721027672588       -1.00754483811024        0.67406031003507
C           -3.06384749498398       -2.04192513712618        1.37290611482781
C           -3.76601260156263       -2.83709667733865        2.25190099349138
C           -5.11646977213212       -2.61235781171471        2.45711518389665
C           -5.74058697033112       -1.57815013548935        1.78456286958776
C           -5.05815119561976       -0.76041747007127        0.89455589279206
H           -7.51510663557102        0.57149631898051       -1.11253978663706
H           -6.56289340803689       -0.88929100259740       -1.37743769399942
H           -7.63624027423897       -0.77303071172777        0.01761177495544
H           -5.51109149899408        1.74146499616780        1.86286795864662
H           -7.00432074209083        0.80827597182864        1.96438723689576
H           -6.88331206780357        2.15213873100423        0.83322994006705
H           -6.43391138579265        2.50413212872900       -1.30878731739513
H           -5.05416653277802        3.79234939945066       -2.85358266705940
H           -2.67969185717014        3.16335246374265       -3.19793728054095
H           -1.73057821756621        1.27626802932751       -1.96879180226959
H           -2.01897090133920       -2.21258491275689       -1.69344285213362
H            0.37116821565521       -2.76273659077300       -2.05845552245966
H            4.26530645340234       -2.71298242654592       -1.88091893361944
H            6.63375808051372       -3.33213168861450       -2.26223802198466
H            8.42555975525458       -1.96551956257285       -1.24613478808229
H            7.88221795794715       -0.03074659951377        0.11257360606663
H            7.38035157411056        1.57011283089171        1.18531011490024
H            6.70084491005426        3.47779253978880        2.52086204043176
H            4.30555706873199        3.98329743061827        2.86451734337315
H            2.59225871744211        2.52443949670975        1.82819175302372
H           -0.88863909623906        1.07333438911544        0.79972537993554
H           -2.00990226291628       -2.21600809029643        1.22285339221615
H           -3.25712462604977       -3.63101062115759        2.77757018939506
H           -5.67809006511725       -3.23125586810690        3.13998126873348
H           -6.79124056481115       -1.40712615730304        1.96394498102219

 projected vibrational frequencies (cm⁻¹)
eigval :       -0.00    -0.00    -0.00     0.00     0.00     0.00
eigval :       10.04    18.16    18.54    45.49    52.97    59.79
eigval :       84.02    94.34    94.65   105.84   113.83   129.05
eigval :      134.60   150.65   188.31   191.32   199.32   218.12
eigval :      228.55   241.70   246.49   268.96   289.53   304.52
eigval :      329.17   331.18   343.83   349.94   376.54   381.57
eigval :      389.88   393.55   401.86   404.51   411.79   423.36
eigval :      444.66   448.36   451.34   494.78   511.64   521.15
eigval :      524.88   535.08   540.35   545.53   553.65   569.82
eigval :      585.72   585.85   590.77   599.84   616.23   638.41
eigval :      652.12   673.05   674.42   679.52   684.68   696.40
eigval :      699.67   723.68   726.39   759.68   765.05   775.09
eigval :      776.70   778.73   797.86   813.07   825.63   831.66
eigval :      847.35   864.12   866.46   867.12   873.82   877.78
eigval :      908.24   913.03   913.45   914.24   914.39   917.95
eigval :      921.19   921.36   921.47   922.50   937.93   957.40
eigval :      991.99  1009.65  1014.02  1059.61  1076.93  1082.19
eigval :     1084.80  1098.57  1110.78  1117.32  1130.76  1140.02
eigval :     1144.03  1150.42  1157.06  1163.92  1179.97  1180.68
eigval :     1185.40  1186.44  1187.58  1219.09  1222.82  1240.68
eigval :     1245.82  1247.52  1256.01  1257.68  1263.43  1272.11
eigval :     1287.05  1294.97  1300.42  1313.02  1324.15  1334.86
eigval :     1335.87  1340.02  1344.41  1358.20  1371.06  1391.30
eigval :     1402.11  1407.91  1417.06  1420.13  1429.22  1434.45
eigval :     1436.72  1463.59  1467.70  1472.23  1481.31  1489.17
eigval :     1489.94  1491.44  1499.64  1503.71  1516.94  1533.89
eigval :     1536.32  1552.97  1566.79  1581.54  1584.51  1586.55
eigval :     1594.14  1597.08  3027.65  3029.69  3040.78  3043.27
eigval :     3049.68  3053.10  3075.73  3076.32  3080.52  3080.68
eigval :     3084.44  3085.34  3085.52  3085.54  3092.00  3096.02
eigval :     3096.23  3096.60  3097.48  3098.88  3100.52  3103.69
eigval :     3105.31  3106.48  3108.13

   temp. (K)  partition function   enthalpy   heat capacity  entropy
                                   cal/mol     cal/K/mol   cal/K/mol   J/K/mol
 298.15  VIB  0.140E+13            17031.350    112.965    103.448
         ROT  0.414E+08              888.752      2.981     37.834
         INT  0.580E+20            17920.103    115.946    141.281
         TR   0.104E+29             1481.254      4.968     44.420
         TOT                       19401.3565   120.9139   185.7018   776.9764

       T/K    H(0)-H(T)+PV         H(T)/Eh          T*S/Eh         G(T)/Eh
   ------------------------------------------------------------------------
    298.15    0.309180E-01    0.518461E+00    0.882329E-01    0.430228E+00
   ------------------------------------------------------------------------

         :::::::::::::::::::::::::::::::::::::::::::::::::::::
         ::                  THERMODYNAMIC                  ::
         :::::::::::::::::::::::::::::::::::::::::::::::::::::
         :: total free energy         -96.055552399175 Eh   ::
         ::.................................................::
         :: total energy              -96.485780139624 Eh   ::
         :: zero point energy           0.487542635179 Eh   ::
         :: G(RRHO) w/o ZPVE           -0.057314894731 Eh   ::
         :: G(RRHO) contrib.            0.430227740449 Eh   ::
         :::::::::::::::::::::::::::::::::::::::::::::::::::::

           -------------------------------------------------
          | TOTAL ENERGY              -96.485780139624 Eh   |
          | TOTAL ENTHALPY            -95.967319474819 Eh   |
          | TOTAL FREE ENERGY         -96.055552399175 Eh   |
          | GRADIENT NORM               0.000086253796 Eh/α |
           -------------------------------------------------

 * finished run on 2025/09/05 at 11:22:21.690
