   * xtb version 6.7.1 (edcfbbe) compiled by 'albert@albert-system' on 2024-07-22

   ID    Z sym.   atoms
    1    6 C      1-12, 14-16, 18-32, 34-36, 38
    2    7 N      13, 17, 33, 37
    3    1 H      39-60

          program call               : xtb data2507/gas/DMeCzIPN/DMeCzIPN.xyz --gfn 2 --ohess vtight --parallel 40 --molden --ceasefiles --namespace data2507/gas/DMeCzIPN/DMeCzIPN_gas_S0_preOpt
          :  Hamiltonian                  GFN2-xTB          :
 * total energy  :   -95.7015685 Eh     change       -0.4472682E-08 Eh
 * total energy  :   -95.7161827 Eh     change       -0.1461422E-01 Eh
 * total energy  :   -95.7191933 Eh     change       -0.3010557E-02 Eh
 * total energy  :   -95.7190356 Eh     change        0.1576761E-03 Eh
 * total energy  :   -95.7210501 Eh     change       -0.2014450E-02 Eh
 * total energy  :   -95.7214284 Eh     change       -0.3782900E-03 Eh
 * total energy  :   -95.7212530 Eh     change        0.1753560E-03 Eh
 * total energy  :   -95.7218202 Eh     change       -0.5671852E-03 Eh
 * total energy  :   -95.7218953 Eh     change       -0.7514448E-04 Eh
 * total energy  :   -95.7220320 Eh     change       -0.1366524E-03 Eh
 * total energy  :   -95.7224591 Eh     change       -0.2047315E-05 Eh
 * total energy  :   -95.7224616 Eh     change       -0.2445668E-05 Eh
 * total energy  :   -95.7224639 Eh     change       -0.2336697E-05 Eh
 * total energy  :   -95.7224655 Eh     change       -0.1594173E-05 Eh
 * total energy  :   -95.7224664 Eh     change       -0.8962087E-06 Eh
 * total energy  :   -95.7224669 Eh     change       -0.4725446E-06 Eh
 * total energy  :   -95.7224672 Eh     change       -0.2841798E-06 Eh
 * total energy  :   -95.7224673 Eh     change       -0.1173724E-06 Eh
 * total energy  :   -95.7224673 Eh     change       -0.5098289E-07 Eh
   *** GEOMETRY OPTIMIZATION CONVERGED AFTER 40 ITERATIONS ***

 final structure:
================
60
 xtb: 6.7.1 (edcfbbe)
C            2.78978156302923        2.48127235853874       -1.08828051529956
C            3.79238579175760        1.52613617406884       -0.51217355174516
C            5.11386448921209        1.92433169705678       -0.35950427118645
C            6.07709534829043        1.12075975460715        0.23779206590826
C            5.74342324850994       -0.11620319165468        0.74995065887093
C            4.43506058165870       -0.55243807989299        0.60504040239308
C            3.75537080167209       -1.73735662820143        1.05279191769500
C            4.16789350857631       -2.86698901846785        1.74583886474138
C            3.24119581314075       -3.85693097788573        2.00791344991143
C            1.92393297604636       -3.73703724167433        1.57490311973060
C            1.49154172237774       -2.62181044480233        0.88061716604922
C            2.41358414880965       -1.61637869012522        0.63831563630738
N            2.25561298067543       -0.41910675062097       -0.04807211954875
C            1.12969929351372       -0.12437093863590       -0.80890551151352
C           -0.12160631478205       -0.06193607343121       -0.20786732708803
C           -1.26414270012957        0.20562903829409       -0.95236276201982
N           -2.51068196648180        0.24990438798818       -0.33552166584227
C           -3.53641965358080       -0.63865771244935       -0.62778122763288
C           -3.59982850346606       -1.62216256363130       -1.60176581271456
C           -4.74120563072804       -2.40013709805922       -1.65521855384150
C           -5.78707354784316       -2.21861526367608       -0.75464186893558
C           -5.71259479251812       -1.26052793505001        0.23665831337506
C           -4.57694506029442       -0.46519712477606        0.30660234621362
C           -4.16234878763118        0.58499447127365        1.19554688816720
C           -4.78499336262954        1.19161518896957        2.27651463154888
C           -4.12838611875795        2.22628839489311        2.91028440586817
C           -2.89774215026778        2.67477890599627        2.44554552283752
C           -2.24907392427312        2.10056556429194        1.36020533809396
C           -0.96586975801076        2.69610900330823        0.86089769221681
C           -2.88243012308867        1.00759760039745        0.76831198833929
C           -1.15147670568491        0.39381552354653       -2.34510831708159
C           -2.28847624739277        0.72233731004126       -3.11833063249288
N           -3.19522163633642        1.01666202013583       -3.75432036276894
C            0.09256167028376        0.30447793790195       -2.95939549686254
C            1.23059099023855        0.04018553847581       -2.20675890554757
C            2.47267182981977       -0.12628090290463       -2.86095069207350
N            3.46367933755518       -0.29007823257305       -3.41325309601134
C            3.47976911444579        0.24243011620118       -0.06713641253644
H            1.81918317091616        2.37551788653196       -0.60590613403069
H            2.66147663253438        2.31951689507083       -2.15940682747576
H            3.13444706767645        3.50342429438906       -0.94782363252264
H            5.39638096462586        2.90649575038723       -0.70951683360951
H            7.08931608231690        1.48574110103301        0.32343970152239
H            6.47210510486759       -0.72864004505601        1.25757794253102
H            5.19361686637553       -2.96691400586916        2.06575969024717
H            3.54021343918299       -4.74252695164419        2.54803628298334
H            1.22334566010691       -4.53227000350469        1.78136121132424
H            0.47043256756468       -2.55178675585672        0.53572120112926
H           -0.21053233751905       -0.21868764044394        0.85672485943556
H           -2.79295074128244       -1.78597729444811       -2.30057345989839
H           -4.82008177579366       -3.16622146665096       -2.41167399469462
H           -6.66351237671785       -2.84417973290122       -0.83144258001220
H           -6.51513269082341       -1.13056086867318        0.94641283308700
H           -5.76082590544211        0.86488946585237        2.59999989893131
H           -4.58180388103061        2.71550797665904        3.75899057668958
H           -2.43017517045589        3.51641432118770        2.93591425111322
H           -0.09959324671502        2.13312732046188        1.21111994821164
H           -0.94455328134538        2.71755611367292       -0.22798219197924
H           -0.86835595056540        3.71618561123004        1.22557956791117
H            0.17380257580934        0.43571191108733       -4.02869561642538

          :  Hamiltonian                  GFN2-xTB          :
         :: gradient norm              0.000093125774 Eh/a0 ::
         :: HOMO-LUMO gap              2.053857038922 eV    ::
         :: SCC energy               -97.560790198066 Eh    ::
         :: -> dispersion             -0.089000103992 Eh    ::
         :: repulsion energy           1.838322873348 Eh    ::

    * Orbital Energies and Occupations

         #    Occupation            Energy/Eh            Energy/eV
      -------------------------------------------------------------
         1        2.0000           -0.7070440             -19.2396
       ...           ...                  ...                  ...
        77        2.0000           -0.4334583             -11.7950
        78        2.0000           -0.4311810             -11.7330
        79        2.0000           -0.4303995             -11.7118
        80        2.0000           -0.4286373             -11.6638
        81        2.0000           -0.4281471             -11.6505
        82        2.0000           -0.4268065             -11.6140
        83        2.0000           -0.4252858             -11.5726
        84        2.0000           -0.4121774             -11.2159
        85        2.0000           -0.4119164             -11.2088
        86        2.0000           -0.3877298             -10.5507
        87        2.0000           -0.3875326             -10.5453
        88        2.0000           -0.3778167             -10.2809
        89        2.0000           -0.3756399             -10.2217 (HOMO)
        90                         -0.3001620              -8.1678 (LUMO)
        91                         -0.2874307              -7.8214
        92                         -0.2539791              -6.9111
        93                         -0.2534265              -6.8961
        94                         -0.2317802              -6.3071
        95                         -0.2315408              -6.3005
        96                         -0.2257890              -6.1440
        97                         -0.2238964              -6.0925
        98                         -0.2165878              -5.8937
        99                         -0.2058874              -5.6025
       100                         -0.2016808              -5.4880
       ...                                ...                  ...
       174                          1.1580254              31.5115
      -------------------------------------------------------------
                  HL-Gap            0.0754779 Eh            2.0539 eV

     #   Z          covCN         q      C6AA      α(0)
     1   6 C        3.756    -0.100    22.463     6.758
     2   6 C        2.957    -0.001    28.049     8.687
     3   6 C        2.932    -0.040    28.984     8.829
     4   6 C        2.920    -0.037    28.909     8.817
     5   6 C        2.913    -0.034    28.849     8.807
     6   6 C        3.069    -0.013    28.266     8.718
     7   6 C        3.064    -0.012    28.245     8.715
     8   6 C        2.913    -0.031    28.764     8.795
     9   6 C        2.920    -0.038    28.935     8.821
    10   6 C        2.925    -0.032    28.789     8.799
    11   6 C        2.910    -0.051    29.255     8.869
    12   6 C        3.066     0.047    26.877     8.501
    13   7 N        2.802    -0.050    22.205     6.999
    14   6 C        2.916     0.082    26.175     8.390
    15   6 C        2.924    -0.055    29.375     8.888
    16   6 C        2.916     0.081    26.188     8.392
    17   7 N        2.804    -0.048    22.162     6.992
    18   6 C        3.067     0.049    26.839     8.495
    19   6 C        2.910    -0.046    29.143     8.852
    20   6 C        2.925    -0.029    28.732     8.790
    21   6 C        2.920    -0.037    28.914     8.818
    22   6 C        2.913    -0.031    28.762     8.794
    23   6 C        3.064    -0.013    28.265     8.718
    24   6 C        3.071    -0.014    28.279     8.719
    25   6 C        2.913    -0.035    28.872     8.811
    26   6 C        2.919    -0.039    28.963     8.825
    27   6 C        2.931    -0.042    29.052     8.840
    28   6 C        2.957    -0.004    28.117     8.697
    29   6 C        3.756    -0.099    22.449     6.755
    30   6 C        3.057     0.038    27.093     8.536
    31   6 C        2.972     0.001    28.011     8.681
    32   6 C        1.911     0.116    28.252     8.584
    33   7 N        0.911    -0.223    25.876     7.357
    34   6 C        2.935    -0.015    28.398     8.740
    35   6 C        2.972     0.003    27.963     8.674
    36   6 C        1.911     0.116    28.238     8.582
    37   7 N        0.911    -0.227    25.958     7.369
    38   6 C        3.058     0.040    27.053     8.530
    39   1 H        0.925     0.031     2.568     2.506
    40   1 H        0.924     0.043     2.406     2.426
    41   1 H        0.925     0.047     2.357     2.401
    42   1 H        0.926     0.036     2.501     2.473
    43   1 H        0.926     0.035     2.512     2.479
    44   1 H        0.926     0.037     2.496     2.470
    45   1 H        0.926     0.037     2.489     2.467
    46   1 H        0.926     0.034     2.533     2.489
    47   1 H        0.926     0.034     2.535     2.490
    48   1 H        0.926     0.024     2.677     2.559
    49   1 H        0.926     0.058     2.219     2.329
    50   1 H        0.926     0.022     2.708     2.573
    51   1 H        0.926     0.036     2.502     2.474
    52   1 H        0.926     0.035     2.520     2.482
    53   1 H        0.926     0.036     2.496     2.471
    54   1 H        0.926     0.036     2.504     2.474
    55   1 H        0.926     0.033     2.540     2.492
    56   1 H        0.926     0.033     2.539     2.492
    57   1 H        0.924     0.040     2.455     2.450
    58   1 H        0.925     0.032     2.561     2.503
    59   1 H        0.925     0.047     2.363     2.404
    60   1 H        0.926     0.056     2.252     2.347

molecular dipole:
                 x           y           z       tot (Debye)
 q only:        0.077       0.087       1.267
   full:        0.052       0.057       1.546       3.933

 projected vibrational frequencies (cm⁻¹)
eigval :       -0.00    -0.00     0.00     0.00     0.00     0.00
eigval :       18.81    22.91    23.17    40.73    46.36    56.78
eigval :       80.44    90.81    98.16   106.04   117.83   122.76
eigval :      125.36   131.25   143.92   177.87   188.53   197.60
eigval :      199.62   210.82   226.97   246.87   253.28   265.72
eigval :      272.95   279.27   283.51   288.52   321.62   326.89
eigval :      355.89   389.44   398.98   407.65   410.13   436.63
eigval :      439.97   479.55   482.01   483.75   493.65   495.88
eigval :      503.13   507.08   521.53   526.26   545.51   549.22
eigval :      550.25   554.63   565.98   573.07   581.06   593.87
eigval :      632.99   643.26   662.02   672.41   674.14   680.80
eigval :      693.28   700.48   706.57   707.64   726.39   738.86
eigval :      772.06   773.89   796.49   796.55   866.61   868.09
eigval :      871.46   884.91   886.91   887.80   888.16   893.56
eigval :      898.77   901.49   902.36   908.36   913.04   913.51
eigval :      916.86   917.43   922.21   924.01  1002.90  1005.94
eigval :     1028.19  1034.60  1067.52  1074.75  1076.13  1089.71
eigval :     1115.73  1116.97  1131.19  1151.11  1156.88  1166.85
eigval :     1168.47  1181.35  1181.65  1195.11  1195.80  1218.59
eigval :     1227.04  1227.66  1235.90  1253.62  1261.82  1290.09
eigval :     1291.95  1302.53  1308.29  1309.56  1339.21  1353.56
eigval :     1354.99  1357.58  1360.53  1364.12  1392.84  1397.82
eigval :     1406.01  1409.91  1423.09  1427.27  1453.38  1464.24
eigval :     1475.92  1477.24  1484.21  1488.49  1490.28  1492.15
eigval :     1499.94  1501.90  1504.63  1557.94  1581.88  1582.05
eigval :     1588.00  1589.74  1597.73  1598.16  1611.50  1611.99
eigval :     2368.01  2372.69  2985.99  2990.25  3014.21  3020.38
eigval :     3037.62  3039.44  3076.42  3077.67  3077.84  3080.27
eigval :     3084.39  3084.57  3089.64  3090.12  3092.57  3092.88
eigval :     3093.59  3098.31  3100.01  3100.46  3102.07  3102.39

   temp. (K)  partition function   enthalpy   heat capacity  entropy
                                   cal/mol     cal/K/mol   cal/K/mol   J/K/mol
 298.15  VIB  0.273E+13            17634.100    112.902    107.447
         ROT  0.308E+08              888.752      2.981     37.247
         INT  0.840E+20            18522.852    115.883    144.694
         TR   0.104E+29             1481.254      4.968     44.414
         TOT                       20004.1059   120.8508   189.1085   791.2301

       T/K    H(0)-H(T)+PV         H(T)/Eh          T*S/Eh         G(T)/Eh
   ------------------------------------------------------------------------
    298.15    0.318786E-01    0.485079E+00    0.898516E-01    0.395227E+00
   ------------------------------------------------------------------------

         :::::::::::::::::::::::::::::::::::::::::::::::::::::
         ::                  THERMODYNAMIC                  ::
         :::::::::::::::::::::::::::::::::::::::::::::::::::::
         :: total free energy         -95.327240266532 Eh   ::
         ::.................................................::
         :: total energy              -95.722467324711 Eh   ::
         :: zero point energy           0.453200049457 Eh   ::
         :: G(RRHO) w/o ZPVE           -0.057972991278 Eh   ::
         :: G(RRHO) contrib.            0.395227058179 Eh   ::
         :::::::::::::::::::::::::::::::::::::::::::::::::::::

           -------------------------------------------------
          | TOTAL ENERGY              -95.722467324711 Eh   |
          | TOTAL ENTHALPY            -95.237388703296 Eh   |
          | TOTAL FREE ENERGY         -95.327240266532 Eh   |
          | GRADIENT NORM               0.000093165689 Eh/α |
          | HOMO-LUMO GAP               2.053857130738 eV   |
           -------------------------------------------------

 * finished run on 2025/07/19 at 22:05:34.500
