   * xtb version 6.7.1 (edcfbbe) compiled by 'albert@albert-system' on 2024-07-22

   ID    Z sym.   atoms
    1    6 C      1-12, 14-16, 18-32, 34-36, 38
    2    7 N      13, 17, 33, 37
    3    1 H      39-60

          program call               : xtb data2507/gas/DMeCzIPN/DMeCzIPN_gas_S0_finalOpt.xtbopt.xyz --gfn 2 --spinpol --tblite --uhf 2 --ohess vtight --parallel 40 --molden --ceasefiles --namespace data2507/gas/DMeCzIPN/DMeCzIPN_gas_T1_preOpt
 * total energy  :   -95.6323797 Eh     change       -0.1157413E-07 Eh
 * total energy  :   -95.6364339 Eh     change       -0.4054209E-02 Eh
 * total energy  :   -95.6375458 Eh     change       -0.1111844E-02 Eh
 * total energy  :   -95.6376882 Eh     change       -0.1424564E-03 Eh
 * total energy  :   -95.6378068 Eh     change       -0.1186036E-03 Eh
 * total energy  :   -95.6378696 Eh     change       -0.6282034E-04 Eh
 * total energy  :   -95.6379247 Eh     change       -0.5500356E-04 Eh
 * total energy  :   -95.6379659 Eh     change       -0.4122067E-04 Eh
 * total energy  :   -95.6379869 Eh     change       -0.2098292E-04 Eh
 * total energy  :   -95.6380031 Eh     change       -0.1622496E-04 Eh
 * total energy  :   -95.6382243 Eh     change       -0.9510847E-06 Eh
 * total energy  :   -95.6382253 Eh     change       -0.9475444E-06 Eh
 * total energy  :   -95.6382262 Eh     change       -0.9025243E-06 Eh
 * total energy  :   -95.6382271 Eh     change       -0.8679633E-06 Eh
 * total energy  :   -95.6382279 Eh     change       -0.8588647E-06 Eh
 * total energy  :   -95.6382287 Eh     change       -0.8054405E-06 Eh
 * total energy  :   -95.6382295 Eh     change       -0.7803617E-06 Eh
 * total energy  :   -95.6382295 Eh     change        0.3450681E-07 Eh
 * total energy  :   -95.6382295 Eh     change       -0.4499050E-07 Eh
   *** GEOMETRY OPTIMIZATION CONVERGED AFTER 69 ITERATIONS ***

 final structure:
================
60
 xtb: 6.7.1 (edcfbbe)
C            2.34526046294712        2.92549244538476        0.81429100907748
C            3.50555236722854        1.98954331801322        0.93648875721651
C            4.71059249557833        2.45644630486708        1.44991116243727
C            5.81731395478240        1.63895283823715        1.63234226787051
C            5.75435270174622        0.28609095160986        1.34095721955462
C            4.57178202761284       -0.21613672718137        0.82907467652984
C            4.16233082112439       -1.54512087436223        0.46238693982531
C            4.79233623123865       -2.77873057589939        0.47089411389437
C            4.09036013037340       -3.88352746141162        0.01889211478663
C            2.78449072743303       -3.76395934426517       -0.45104915665960
C            2.13786950922117       -2.54293977460805       -0.46882172530440
C            2.82945716967313       -1.43588132175849        0.00380588729808
N            2.42579955420879       -0.11967634703528        0.07411602804614
C            1.20593442202151        0.34694584212647       -0.42463625203666
C           -0.00014062380957       -0.12345578556255        0.06364790537971
C           -1.20617607891795        0.34684836183248       -0.42482542224173
N           -2.42609269155315       -0.11987496641832        0.07370633644481
C           -2.82966605655491       -1.43610012138456        0.00326687231286
C           -2.13788474760638       -2.54312587624333       -0.46915263664712
C           -2.78445339920440       -3.76417653404060       -0.45157808627006
C           -4.09045891761205       -3.88380711853397        0.01796466500969
C           -4.79262257162377       -2.77904347561551        0.46976310134260
C           -4.16267084454826       -1.54540746018439        0.46145469519345
C           -4.57229294642377       -0.21644380642004        0.82804202789411
C           -5.75503589817416        0.28572759982986        1.33957287690600
C           -5.81813753583885        1.63858508971254        1.63096216658341
C           -4.71139129627700        2.45612237666600        1.44888999853532
C           -3.50617794404545        1.98927421104753        0.93582456890744
C           -2.34587127295786        2.92525546630100        0.81402310429196
C           -3.46320090328265        0.63544980043242        0.58532767982946
C           -1.21076825367195        1.25539522533316       -1.57097266453779
C           -2.41749755714728        1.63806677732621       -2.14739830813744
N           -3.42529190610597        1.96776646888741       -2.60737424103116
C           -0.00003896093942        1.66003362593351       -2.11384224491810
C            1.21063588141038        1.25547377128726       -1.57079614420407
C            2.41742300333024        1.63820987045388       -2.14705801079024
N            3.42526429154187        1.96794637524450       -2.60690511461487
C            3.46272826265302        0.63570832623739        0.58601913505781
H            1.40081414076195        2.40954481405210        0.97677641641257
H            2.32265218363229        3.37200550122546       -0.17998889327587
H            2.43833669117226        3.73011065450242        1.54055019127506
H            4.78083334246597        3.49976232419061        1.72006170337163
H            6.72959800832306        2.06285832473568        2.02359741936405
H            6.59987138686631       -0.36199541191267        1.51080768303517
H            5.81019055063095       -2.87332232248358        0.81666827264470
H            4.56328100803277       -4.85392514054501        0.01976685071093
H            2.26936320965209       -4.64122539114772       -0.81219600041183
H            1.13259369632098       -2.45153872493147       -0.84953680267944
H           -0.00017840351485       -0.81313299875937        0.89719743741470
H           -1.13249469738099       -2.45167937810450       -0.84955425122633
H           -2.26917234119080       -4.64141813957891       -0.81256677673941
H           -4.56333630598758       -4.85422566136936        0.01869201737470
H           -5.81057598581105       -2.87368473182053        0.81522933838617
H           -6.60058257000804       -0.36239160277138        1.50915318684199
H           -6.73055773044175        2.06244799193546        2.02194458548931
H           -4.78175132001951        3.49943008849383        1.71904464798169
H           -2.32300317743412        3.37186162289489       -0.18020940458606
H           -2.43915875885511        3.72980512062863        1.54033188006572
H           -1.40145990578882        2.40930939464610        0.97671712898503
H            0.00000512341233        2.30436099667128       -2.98230551399986

 projected vibrational frequencies (cm⁻¹)
eigval :       -0.00    -0.00    -0.00    -0.00     0.00     0.00
eigval :       12.81    22.36    26.58    33.61    39.35    52.00
eigval :       77.26    88.92    95.32   102.73   109.87   112.26
eigval :      120.92   125.65   141.50   172.08   182.01   188.39
eigval :      191.29   204.28   218.52   243.07   253.69   259.55
eigval :      262.66   267.00   278.72   283.06   320.87   331.18
eigval :      355.08   370.37   391.84   395.34   403.86   421.86
eigval :      422.66   434.73   440.99   472.83   473.07   481.91
eigval :      492.87   494.13   524.02   528.31   541.59   544.94
eigval :      545.62   550.01   555.59   563.66   573.70   576.39
eigval :      599.94   619.57   640.39   641.69   669.23   672.40
eigval :      676.52   680.70   706.51   706.68   719.73   733.64
eigval :      763.33   768.58   790.24   790.37   856.08   859.93
eigval :      866.84   874.00   881.25   881.97   883.76   884.71
eigval :      886.26   894.12   898.05   902.05   902.35   905.10
eigval :      912.20   912.26   916.12   917.93   998.13  1002.44
eigval :     1018.92  1020.29  1060.23  1062.79  1067.71  1084.11
eigval :     1110.56  1112.09  1124.59  1131.13  1139.65  1143.79
eigval :     1160.77  1163.05  1175.73  1176.05  1191.89  1193.65
eigval :     1211.46  1216.54  1233.46  1246.27  1261.51  1267.34
eigval :     1269.10  1290.58  1293.39  1299.67  1308.27  1327.90
eigval :     1328.99  1351.29  1355.53  1365.06  1366.84  1385.90
eigval :     1386.72  1395.13  1398.97  1403.02  1407.13  1413.38
eigval :     1437.62  1447.67  1462.76  1465.74  1470.40  1474.80
eigval :     1477.16  1478.69  1490.01  1491.83  1558.12  1560.64
eigval :     1563.94  1565.30  1575.22  1576.22  1595.47  1596.33
eigval :     2222.86  2292.05  3000.83  3001.13  3025.16  3025.74
eigval :     3033.90  3034.60  3067.52  3077.95  3083.72  3083.79
eigval :     3084.01  3084.58  3089.33  3090.07  3092.52  3092.74
eigval :     3096.43  3097.49  3101.24  3101.85  3101.94  3103.56

   temp. (K)  partition function   enthalpy   heat capacity  entropy
                                   cal/mol     cal/K/mol   cal/K/mol   J/K/mol
 298.15  VIB  0.109E+14            18036.310    114.320    110.412
         ROT  0.313E+08              888.752      2.981     37.278
         INT  0.340E+21            18925.062    117.301    147.690
         TR   0.104E+29             1481.254      4.968     44.414
         TOT                       20406.3162   122.2689   192.1041   803.7634

       T/K    H(0)-H(T)+PV         H(T)/Eh          T*S/Eh         G(T)/Eh
   ------------------------------------------------------------------------
    298.15    0.325195E-01    0.481048E+00    0.912748E-01    0.389773E+00
   ------------------------------------------------------------------------

         :::::::::::::::::::::::::::::::::::::::::::::::::::::
         ::                  THERMODYNAMIC                  ::
         :::::::::::::::::::::::::::::::::::::::::::::::::::::
         :: total free energy         -95.248456070128 Eh   ::
         ::.................................................::
         :: total energy              -95.638229514287 Eh   ::
         :: zero point energy           0.448528753964 Eh   ::
         :: G(RRHO) w/o ZPVE           -0.058755309806 Eh   ::
         :: G(RRHO) contrib.            0.389773444159 Eh   ::
         :::::::::::::::::::::::::::::::::::::::::::::::::::::

           -------------------------------------------------
          | TOTAL ENERGY              -95.638229514287 Eh   |
          | TOTAL ENTHALPY            -95.157181225452 Eh   |
          | TOTAL FREE ENERGY         -95.248456070128 Eh   |
          | GRADIENT NORM               0.000076971718 Eh/α |
           -------------------------------------------------

 * finished run on 2025/07/19 at 22:08:09.108
