   * xtb version 6.7.1 (edcfbbe) compiled by 'albert@albert-system' on 2024-07-22

   ID    Z sym.   atoms
    1    6 C      1-12, 14-16, 18-32, 34-36, 38
    2    7 N      13, 17, 33, 37
    3    1 H      39-60

          program call               : xtb data2507/gas/DMeCzIPN/DMeCzIPN_gas_T1_crest.xyz --gfn 2 --spinpol --tblite --uhf 2 --ohess vtight --parallel 40 --molden --ceasefiles --namespace data2507/gas/DMeCzIPN/DMeCzIPN_gas_T1_finalOpt
 * total energy  :   -95.6382229 Eh     change       -0.3385611E-07 Eh
 * total energy  :   -95.6382413 Eh     change       -0.1841383E-04 Eh
 * total energy  :   -95.6382471 Eh     change       -0.5810199E-05 Eh
 * total energy  :   -95.6382480 Eh     change       -0.8942571E-06 Eh
 * total energy  :   -95.6382498 Eh     change       -0.1815216E-05 Eh
 * total energy  :   -95.6382509 Eh     change       -0.1110608E-05 Eh
 * total energy  :   -95.6382517 Eh     change       -0.7714711E-06 Eh
 * total energy  :   -95.6382519 Eh     change       -0.2353201E-06 Eh
 * total energy  :   -95.6382521 Eh     change       -0.1813273E-06 Eh
 * total energy  :   -95.6382522 Eh     change       -0.6811887E-07 Eh
   *** GEOMETRY OPTIMIZATION CONVERGED AFTER 10 ITERATIONS ***

 final structure:
================
60
 xtb: 6.7.1 (edcfbbe)
C            2.35178884628321        2.92965145748436        0.81375757652310
C            3.49948230743889        1.98188966304643        0.95949303312895
C            4.69517839378548        2.43351922032902        1.50745753584893
C            5.79021494098682        1.60502461058762        1.70943897614034
C            5.72409297149968        0.25603110162710        1.40132451821143
C            4.55048841945409       -0.23129437157632        0.85551529337798
C            4.14002384939018       -1.55343940254664        0.46597334782473
C            4.76042652147938       -2.79193764480700        0.47562210070192
C            4.06003752669121       -3.88670900717245       -0.00248399790311
C            2.76550963978463       -3.75248345734762       -0.49922509603465
C            2.12856379254581       -2.52649121012244       -0.51841315854562
C            2.81817937153290       -1.42961471328172       -0.01970330081989
N            2.42237350662790       -0.11150474328127        0.05565576431302
C            1.20552595489433        0.36151603663587       -0.44488477746627
C           -0.00107494008974       -0.11172001387116        0.03889091850776
C           -1.20690636178118        0.36082417257143       -0.44794515471088
N           -2.42434957322889       -0.11071907194745        0.05233223515444
C           -2.81792171782268       -1.42987216061821       -0.01565806246624
C           -2.12744064870269       -2.52798926219309       -0.51051410390976
C           -2.76199421392536       -3.75505365248117       -0.48359433990835
C           -4.05505773162185       -3.88924892781917        0.01702033090086
C           -4.75649452304551       -2.79335403963410        0.49095367964719
C           -4.13853913227914       -1.55371193366232        0.47333927045642
C           -4.55071813857524       -0.23037324588289        0.85680846712370
C           -5.72425211922596        0.25717372465513        1.40258113182459
C           -5.79269497605133        1.60754965429928        1.70397249169027
C           -4.69987783453531        2.43728458884122        1.49532655086019
C           -3.50425211556080        1.98546540419985        0.94726626358015
C           -2.35948139668136        2.93557745579776        0.79417206752663
C           -3.45583881249348        0.63325109867538        0.59113280420934
C           -1.21043532507458        1.27329789643438       -1.59066806011220
C           -2.41694020809237        1.65589548208159       -2.16750701354986
N           -3.42529109162108        1.98542806311688       -2.62642381008486
C            0.00109362821712        1.68194054439606       -2.12903310281486
C            1.21151666005800        1.27614278946953       -1.58591365519407
C            2.41938224459780        1.66343652328142       -2.15667452570918
N            3.42892918408454        1.99688100760772       -2.61013069628762
C            3.45345334118470        0.63149080137404        0.59636530438293
H            1.39891823359466        2.42344594805499        0.95677778268294
H            2.35433227750963        3.37537369349776       -0.18115780235670
H            2.43804380153754        3.73373590787139        1.54138525837029
H            4.76729745444374        3.47356803925539        1.78945399066927
H            6.69552042003481        2.01715436043184        2.12849514447826
H            6.56003842864336       -0.40070125039196        1.58481329542212
H            5.76973229468048       -2.89796032296813        0.84248702361731
H            4.52544677125292       -4.86072838771911       -0.00108572152883
H            2.25181956669282       -4.62211244121096       -0.88033252319303
H            1.13249594007610       -2.42324355552336       -0.91976294222137
H           -0.00187001884512       -0.80624064641827        0.86843150835339
H           -1.13256104309024       -2.42493654492031       -0.91483652500868
H           -2.24755609762981       -4.62562361934330       -0.86152677211203
H           -4.51850525925607       -4.86417259641583        0.02467568400912
H           -5.76473757887639       -2.89940862317525        0.86072137659958
H           -6.55831279351227       -0.40048916029532        1.59123632235830
H           -6.69797932355479        2.01988366170998        2.12287137859740
H           -4.77370368841488        3.47865735448130        1.77194737858594
H           -2.36476716925723        3.37523194554939       -0.20343317329095
H           -2.44708728681831        3.74386230309714        1.51696876578380
H           -1.40488086818116        2.43313356286211        0.93890122469231
H            0.00204305074205        2.33039484090343       -2.99441381202590

 projected vibrational frequencies (cm⁻¹)
eigval :       -0.00    -0.00    -0.00    -0.00     0.00     0.00
eigval :       12.59    21.42    26.91    32.44    39.60    52.17
eigval :       77.37    88.32    95.26   102.05   109.63   112.05
eigval :      121.37   124.35   142.65   171.74   182.00   190.06
eigval :      193.59   204.37   218.55   243.40   253.70   259.26
eigval :      262.77   266.56   278.63   283.11   320.95   331.30
eigval :      355.38   370.19   391.61   395.44   403.65   421.66
eigval :      422.46   434.77   441.08   472.71   472.83   481.66
eigval :      492.97   494.18   524.16   527.88   541.53   544.88
eigval :      545.55   549.94   555.75   563.59   573.55   576.31
eigval :      600.26   619.67   640.46   641.63   669.04   672.58
eigval :      676.04   680.50   706.49   706.65   719.79   733.59
eigval :      762.90   768.46   789.96   790.11   855.75   860.03
eigval :      866.50   874.05   880.80   881.46   883.56   884.50
eigval :      886.20   894.14   897.57   901.73   902.25   905.02
eigval :      912.06   912.14   915.54   917.45   998.19  1002.45
eigval :     1018.62  1020.29  1060.40  1062.44  1067.00  1084.13
eigval :     1110.46  1111.99  1124.43  1130.88  1139.71  1143.28
eigval :     1160.63  1163.64  1175.63  1175.99  1192.03  1193.71
eigval :     1211.43  1216.21  1233.46  1246.29  1261.16  1267.42
eigval :     1269.12  1291.26  1294.15  1299.90  1308.36  1328.09
eigval :     1329.26  1351.81  1356.28  1364.84  1366.47  1385.98
eigval :     1386.83  1395.10  1398.76  1402.89  1407.19  1413.64
eigval :     1437.46  1447.07  1462.72  1465.79  1470.04  1474.67
eigval :     1477.26  1478.68  1490.35  1491.81  1558.34  1560.46
eigval :     1564.04  1565.38  1575.25  1576.10  1595.40  1596.41
eigval :     2222.56  2292.10  3000.80  3001.10  3024.80  3025.28
eigval :     3035.06  3035.77  3067.64  3078.26  3083.81  3083.86
eigval :     3084.26  3084.85  3089.43  3090.20  3092.59  3092.77
eigval :     3096.54  3097.53  3101.81  3102.31  3102.36  3103.46

   temp. (K)  partition function   enthalpy   heat capacity  entropy
                                   cal/mol     cal/K/mol   cal/K/mol   J/K/mol
 298.15  VIB  0.117E+14            18038.268    114.311    110.461
         ROT  0.313E+08              888.752      2.981     37.277
         INT  0.365E+21            18927.021    117.292    147.738
         TR   0.104E+29             1481.254      4.968     44.414
         TOT                       20408.2747   122.2605   192.1520   803.9639

       T/K    H(0)-H(T)+PV         H(T)/Eh          T*S/Eh         G(T)/Eh
   ------------------------------------------------------------------------
    298.15    0.325227E-01    0.481046E+00    0.912976E-01    0.389748E+00
   ------------------------------------------------------------------------

         :::::::::::::::::::::::::::::::::::::::::::::::::::::
         ::                  THERMODYNAMIC                  ::
         :::::::::::::::::::::::::::::::::::::::::::::::::::::
         :: total free energy         -95.248503884420 Eh   ::
         ::.................................................::
         :: total energy              -95.638252183690 Eh   ::
         :: zero point energy           0.448523250747 Eh   ::
         :: G(RRHO) w/o ZPVE           -0.058774951477 Eh   ::
         :: G(RRHO) contrib.            0.389748299270 Eh   ::
         :::::::::::::::::::::::::::::::::::::::::::::::::::::

           -------------------------------------------------
          | TOTAL ENERGY              -95.638252183690 Eh   |
          | TOTAL ENTHALPY            -95.157206276978 Eh   |
          | TOTAL FREE ENERGY         -95.248503884420 Eh   |
          | GRADIENT NORM               0.000063619946 Eh/α |
           -------------------------------------------------

 * finished run on 2025/07/19 at 22:11:19.158
