   * xtb version 6.7.1 (edcfbbe) compiled by 'albert@albert-system' on 2024-07-22

   ID    Z sym.   atoms
    1    6 C      1-12, 14-16, 18-32, 34-36, 38
    2    7 N      13, 17, 33, 37
    3    1 H      39-60

          program call               : xtb data2507/gas/DMeCzIPN/DMeCzIPN_gas_S0_crest.xyz --gfn 2 --ohess vtight --parallel 40 --molden --ceasefiles --namespace data2507/gas/DMeCzIPN/DMeCzIPN_gas_S0_finalOpt
          :  Hamiltonian                  GFN2-xTB          :
 * total energy  :   -95.7230649 Eh     change       -0.1765855E-08 Eh
 * total energy  :   -95.7230656 Eh     change       -0.7827141E-06 Eh
 * total energy  :   -95.7230666 Eh     change       -0.9480547E-06 Eh
 * total energy  :   -95.7230678 Eh     change       -0.1228336E-05 Eh
 * total energy  :   -95.7230691 Eh     change       -0.1329345E-05 Eh
 * total energy  :   -95.7230713 Eh     change       -0.2197493E-05 Eh
 * total energy  :   -95.7230740 Eh     change       -0.2639067E-05 Eh
 * total energy  :   -95.7230767 Eh     change       -0.2696185E-05 Eh
 * total energy  :   -95.7230787 Eh     change       -0.1990021E-05 Eh
 * total energy  :   -95.7230797 Eh     change       -0.1063710E-05 Eh
 * total energy  :   -95.7230809 Eh     change       -0.1736959E-06 Eh
 * total energy  :   -95.7230811 Eh     change       -0.1902350E-06 Eh
 * total energy  :   -95.7230813 Eh     change       -0.2036128E-06 Eh
 * total energy  :   -95.7230815 Eh     change       -0.1603657E-06 Eh
 * total energy  :   -95.7230816 Eh     change       -0.1498642E-06 Eh
 * total energy  :   -95.7230817 Eh     change       -0.1319262E-06 Eh
 * total energy  :   -95.7230819 Eh     change       -0.1211429E-06 Eh
 * total energy  :   -95.7230819 Eh     change        0.1511140E-08 Eh
 * total energy  :   -95.7230819 Eh     change       -0.3993414E-07 Eh
   *** GEOMETRY OPTIMIZATION CONVERGED AFTER 23 ITERATIONS ***

 final structure:
================
60
 xtb: 6.7.1 (edcfbbe)
C            2.32283484032523        2.88756987416225        0.90675465350377
C            3.52162189244008        1.98599341159979        0.91170306425726
C            4.74980430910840        2.47720258242572        1.33390790003252
C            5.88223064320786        1.67941470501482        1.44124255062915
C            5.82075924704375        0.32912672116290        1.16490900469652
C            4.61311959448962       -0.19454754324769        0.72837887823845
C            4.19959302304481       -1.53304948915384        0.40704425034380
C            4.85864289970258       -2.75438834754100        0.38515361668300
C            4.15454228628093       -3.87957035153903        0.00328691748763
C            2.81638419296944       -3.79404778070228       -0.36943332520504
C            2.14237039804515       -2.58691866127240       -0.35838012405453
C            2.83798444978919       -1.46104797453796        0.04971730703777
N            2.41384220084987       -0.14192643433713        0.13091773496851
C            1.20955672313466        0.31207620319403       -0.39776655901949
C           -0.00035483204498       -0.16183603147702        0.09553867165959
C           -1.20992161187761        0.31221000618419       -0.39851874902436
N           -2.41450424826268       -0.14169956631751        0.12954669827606
C           -2.83828347421861       -1.46094255611251        0.04878843846223
C           -2.14256485751183       -2.58663348532299       -0.35964566800906
C           -2.81621671459052       -3.79396363813674       -0.37020224557770
C           -4.15412583655709       -3.87985975886622        0.00334145523516
C           -4.85836464222244       -2.75484975473402        0.38545557665940
C           -4.19968165859053       -1.53330105452363        0.40681366607908
C           -4.61345157222943       -0.19485429635776        0.72803651426719
C           -5.82108444685980        0.32847581462114        1.16499532146108
C           -5.88296655131360        1.67882434142276        1.44092146831171
C           -4.75091392830148        2.47701628476885        1.33270400540632
C           -3.52272027972915        1.98616250899298        0.91009935851536
C           -2.32444883266092        2.88842377159033        0.90412847180213
C           -3.48649755713506        0.63903334429244        0.55232873490902
C           -1.20507793938594        1.24320271512475       -1.45921359648623
C           -2.42060005957940        1.67134798116567       -2.04002456121931
N           -3.39489006298167        2.00715820789578       -2.54196273531588
C            0.00035047983051        1.69989296303102       -1.97797512128798
C            1.20543249287564        1.24318819202367       -1.45837782460095
C            2.42125510528115        1.67153998594198       -2.03829297892266
N            3.39586032028163        2.00751564815960       -2.53952103665112
C            3.48581220922419        0.63899368347881        0.55342381193832
H            1.42427371492188        2.35057901556395        1.20810029579397
H            2.15346076546067        3.31493811746197       -0.08251108344562
H            2.48059852808586        3.71097504018063        1.59984474030184
H            4.81889585623027        3.52129652825068        1.60244568576570
H            6.80964839922806        2.12164067794148        1.77206655396872
H            6.68123102048835       -0.30926010056768        1.29054768698300
H            5.90104552198189       -2.81702549988208        0.65707311167948
H            4.64735744185194       -4.83982940026149       -0.01729397306775
H            2.29328971664208       -4.68684255332406       -0.67790768982774
H            1.11033254333865       -2.53137333197610       -0.66921304773521
H           -0.00065915764396       -0.86512025913620        0.91511600422067
H           -1.11075282112640       -2.53076368064984       -0.67118202169002
H           -2.29304613997003       -4.68662235530391       -0.67893916278569
H           -4.64665421422586       -4.84027286616520       -0.01685157700257
H           -5.90060128801683       -2.81777780820503        0.65794177978696
H           -6.68122791729399       -0.31022917454247        1.29127112269810
H           -6.81038753639196        2.12079153278207        1.77208240920437
H           -4.82030082872037        3.52119301945991        1.60084561216506
H           -2.15622224878315        3.31584996680736       -0.08530953668206
H           -2.48213185094565        3.71177098210276        1.59730814530935
H           -1.42528609122451        2.35203846288052        1.20472968401052
H            0.00064807544055        2.39797652990831       -2.80259100613754

          :  Hamiltonian                  GFN2-xTB          :
         :: gradient norm              0.000051675550 Eh/a0 ::
         :: HOMO-LUMO gap              2.080069006664 eV    ::
         :: SCC energy               -97.561724428472 Eh    ::
         :: -> dispersion             -0.090304479351 Eh    ::
         :: repulsion energy           1.838642518705 Eh    ::

    * Orbital Energies and Occupations

         #    Occupation            Energy/Eh            Energy/eV
      -------------------------------------------------------------
         1        2.0000           -0.7065997             -19.2276
       ...           ...                  ...                  ...
        77        2.0000           -0.4326870             -11.7740
        78        2.0000           -0.4312525             -11.7350
        79        2.0000           -0.4297176             -11.6932
        80        2.0000           -0.4293204             -11.6824
        81        2.0000           -0.4276824             -11.6378
        82        2.0000           -0.4275537             -11.6343
        83        2.0000           -0.4234262             -11.5220
        84        2.0000           -0.4116992             -11.2029
        85        2.0000           -0.4116401             -11.2013
        86        2.0000           -0.3873063             -10.5391
        87        2.0000           -0.3871817             -10.5358
        88        2.0000           -0.3767033             -10.2506
        89        2.0000           -0.3760663             -10.2333 (HOMO)
        90                         -0.2996251              -8.1532 (LUMO)
        91                         -0.2871115              -7.8127
        92                         -0.2539275              -6.9097
        93                         -0.2531190              -6.8877
        94                         -0.2317046              -6.3050
        95                         -0.2310741              -6.2878
        96                         -0.2254483              -6.1348
        97                         -0.2234419              -6.0802
        98                         -0.2168024              -5.8995
        99                         -0.2046129              -5.5678
       100                         -0.2025379              -5.5113
       ...                                ...                  ...
       174                          1.1573347              31.4927
      -------------------------------------------------------------
                  HL-Gap            0.0764411 Eh            2.0801 eV

     #   Z          covCN         q      C6AA      α(0)
     1   6 C        3.756    -0.098    22.433     6.753
     2   6 C        2.957    -0.001    28.054     8.688
     3   6 C        2.932    -0.040    28.983     8.829
     4   6 C        2.920    -0.037    28.909     8.817
     5   6 C        2.913    -0.034    28.846     8.807
     6   6 C        3.070    -0.013    28.260     8.717
     7   6 C        3.064    -0.012    28.247     8.715
     8   6 C        2.913    -0.030    28.760     8.794
     9   6 C        2.920    -0.038    28.938     8.822
    10   6 C        2.925    -0.032    28.789     8.799
    11   6 C        2.911    -0.049    29.225     8.865
    12   6 C        3.066     0.048    26.865     8.499
    13   7 N        2.802    -0.050    22.197     6.997
    14   6 C        2.916     0.082    26.180     8.390
    15   6 C        2.922    -0.057    29.423     8.895
    16   6 C        2.916     0.082    26.180     8.390
    17   7 N        2.802    -0.050    22.196     6.997
    18   6 C        3.066     0.048    26.865     8.499
    19   6 C        2.911    -0.049    29.225     8.865
    20   6 C        2.925    -0.032    28.789     8.799
    21   6 C        2.920    -0.038    28.938     8.822
    22   6 C        2.913    -0.030    28.760     8.794
    23   6 C        3.064    -0.012    28.247     8.715
    24   6 C        3.070    -0.013    28.260     8.717
    25   6 C        2.913    -0.034    28.846     8.807
    26   6 C        2.920    -0.037    28.909     8.817
    27   6 C        2.932    -0.040    28.983     8.829
    28   6 C        2.957    -0.001    28.054     8.688
    29   6 C        3.756    -0.098    22.433     6.753
    30   6 C        3.060     0.040    27.047     8.529
    31   6 C        2.972     0.002    27.969     8.675
    32   6 C        1.911     0.116    28.243     8.583
    33   7 N        0.911    -0.227    25.964     7.370
    34   6 C        2.934    -0.015    28.386     8.738
    35   6 C        2.972     0.002    27.970     8.675
    36   6 C        1.911     0.116    28.243     8.583
    37   7 N        0.911    -0.227    25.964     7.370
    38   6 C        3.060     0.040    27.047     8.528
    39   1 H        0.925     0.029     2.603     2.523
    40   1 H        0.924     0.043     2.414     2.430
    41   1 H        0.925     0.047     2.357     2.401
    42   1 H        0.926     0.036     2.505     2.475
    43   1 H        0.926     0.035     2.513     2.479
    44   1 H        0.926     0.037     2.494     2.470
    45   1 H        0.926     0.037     2.492     2.469
    46   1 H        0.926     0.034     2.536     2.490
    47   1 H        0.926     0.034     2.537     2.491
    48   1 H        0.926     0.022     2.709     2.574
    49   1 H        0.926     0.059     2.214     2.327
    50   1 H        0.926     0.022     2.709     2.574
    51   1 H        0.926     0.034     2.537     2.491
    52   1 H        0.926     0.034     2.536     2.490
    53   1 H        0.926     0.037     2.492     2.469
    54   1 H        0.926     0.037     2.494     2.470
    55   1 H        0.926     0.035     2.513     2.479
    56   1 H        0.926     0.036     2.505     2.475
    57   1 H        0.924     0.043     2.413     2.429
    58   1 H        0.925     0.047     2.357     2.401
    59   1 H        0.925     0.029     2.603     2.523
    60   1 H        0.926     0.055     2.261     2.351

molecular dipole:
                 x           y           z       tot (Debye)
 q only:       -0.000      -0.381       1.182
   full:       -0.000      -0.559       1.410       3.856

 projected vibrational frequencies (cm⁻¹)
eigval :       -0.00    -0.00    -0.00     0.00     0.00     0.00
eigval :       14.75    23.77    29.25    35.94    46.44    55.52
eigval :       80.56    95.24    98.78   105.81   118.31   118.32
eigval :      125.17   130.33   144.19   175.59   190.19   198.54
eigval :      204.34   214.27   226.05   253.91   256.67   260.35
eigval :      266.73   275.61   282.40   286.19   321.24   327.38
eigval :      360.92   394.29   395.56   402.49   407.65   437.22
eigval :      439.55   479.65   481.93   485.20   489.44   493.81
eigval :      500.64   506.31   521.54   527.52   544.64   548.42
eigval :      549.53   555.39   566.61   574.35   586.54   589.74
eigval :      634.77   639.87   668.54   671.53   673.69   678.38
eigval :      691.03   700.85   706.41   707.55   726.69   738.91
eigval :      767.17   772.88   796.23   796.40   858.27   862.80
eigval :      870.54   886.60   887.02   887.51   888.95   891.88
eigval :      894.20   899.48   899.85   906.56   912.16   912.76
eigval :      917.12   917.22   920.78   922.74  1003.03  1006.20
eigval :     1027.16  1029.22  1067.16  1069.62  1073.94  1088.98
eigval :     1115.68  1117.25  1129.82  1151.71  1152.89  1164.30
eigval :     1168.20  1179.16  1182.39  1194.59  1196.39  1219.08
eigval :     1222.91  1227.36  1232.30  1251.97  1262.10  1289.36
eigval :     1291.20  1301.27  1307.37  1308.73  1337.76  1354.43
eigval :     1354.72  1358.88  1361.09  1365.60  1394.02  1397.43
eigval :     1403.50  1406.17  1422.76  1425.57  1451.74  1463.35
eigval :     1476.26  1476.67  1484.83  1488.87  1490.72  1492.36
eigval :     1500.31  1501.27  1503.72  1557.39  1582.13  1582.49
eigval :     1589.26  1589.64  1598.53  1599.03  1611.96  1612.25
eigval :     2367.16  2370.94  2988.88  2989.60  3013.55  3015.02
eigval :     3037.24  3037.81  3079.98  3080.03  3080.22  3081.50
eigval :     3085.94  3086.82  3090.16  3090.30  3092.57  3093.38
eigval :     3094.01  3098.36  3100.16  3100.34  3102.08  3102.36

   temp. (K)  partition function   enthalpy   heat capacity  entropy
                                   cal/mol     cal/K/mol   cal/K/mol   J/K/mol
 298.15  VIB  0.300E+13            17646.921    112.957    107.535
         ROT  0.312E+08              888.752      2.981     37.272
         INT  0.935E+20            18535.674    115.938    144.807
         TR   0.104E+29             1481.254      4.968     44.414
         TOT                       20016.9277   120.9060   189.2207   791.6993

       T/K    H(0)-H(T)+PV         H(T)/Eh          T*S/Eh         G(T)/Eh
   ------------------------------------------------------------------------
    298.15    0.318990E-01    0.484919E+00    0.899048E-01    0.395014E+00
   ------------------------------------------------------------------------

         :::::::::::::::::::::::::::::::::::::::::::::::::::::
         ::                  THERMODYNAMIC                  ::
         :::::::::::::::::::::::::::::::::::::::::::::::::::::
         :: total free energy         -95.328068222491 Eh   ::
         ::.................................................::
         :: total energy              -95.723081909756 Eh   ::
         :: zero point energy           0.453019525687 Eh   ::
         :: G(RRHO) w/o ZPVE           -0.058005838423 Eh   ::
         :: G(RRHO) contrib.            0.395013687265 Eh   ::
         :::::::::::::::::::::::::::::::::::::::::::::::::::::

           -------------------------------------------------
          | TOTAL ENERGY              -95.723081909756 Eh   |
          | TOTAL ENTHALPY            -95.238163379364 Eh   |
          | TOTAL FREE ENERGY         -95.328068222491 Eh   |
          | GRADIENT NORM               0.000051600661 Eh/α |
          | HOMO-LUMO GAP               2.080068597571 eV   |
           -------------------------------------------------

 * finished run on 2025/07/19 at 22:08:02.201
