   * xtb version 6.7.1 (edcfbbe) compiled by 'albert@albert-system' on 2024-07-22

   ID    Z sym.   atoms
    1    6 C      1-6, 8-13, 15-27, 29-34, 36
    2    8 O      7
    3    7 N      14, 28, 35
    4    1 H      37-55

          program call               : xtb data2507/gas/1PXZ-BP/1PXZ-BP_gas_T1_crest.xyz --gfn 2 --spinpol --tblite --uhf 2 --ohess vtight --parallel 40 --molden --ceasefiles --namespace data2507/gas/1PXZ-BP/1PXZ-BP_gas_T1_finalOpt
 * total energy  :   -91.0600047 Eh     change       -0.4995968E-09 Eh
 * total energy  :   -91.0600302 Eh     change       -0.2556610E-04 Eh
 * total energy  :   -91.0600364 Eh     change       -0.6120388E-05 Eh
 * total energy  :   -91.0600378 Eh     change       -0.1406592E-05 Eh
 * total energy  :   -91.0600388 Eh     change       -0.1018137E-05 Eh
 * total energy  :   -91.0600396 Eh     change       -0.7824221E-06 Eh
 * total energy  :   -91.0600405 Eh     change       -0.8896442E-06 Eh
 * total energy  :   -91.0600408 Eh     change       -0.3939090E-06 Eh
 * total energy  :   -91.0600410 Eh     change       -0.1306137E-06 Eh
 * total energy  :   -91.0600410 Eh     change       -0.8372865E-08 Eh
   *** GEOMETRY OPTIMIZATION CONVERGED AFTER 10 ITERATIONS ***

 final structure:
================
55
 xtb: 6.7.1 (edcfbbe)
C           -5.12323496871630        2.98074718386439       -2.25805582979320
C           -3.74271104339199        2.97921964551470       -2.31497358319019
C           -3.00874404693944        2.10980245510230       -1.52470010416181
C           -3.64685910188697        1.23165659705577       -0.65549031170693
C           -5.04962910028127        1.22356230861977       -0.62333639374645
C           -5.77596488536848        2.09481777249357       -1.41429376618364
O           -5.75851626145918        0.35935182303248        0.17056471080671
C           -5.04681101537575       -0.51435166869945        0.95161010106109
C           -5.77218889242152       -1.38154378828585        1.74805379916734
C           -5.11870636171363       -2.27723985553453        2.58065818070758
C           -3.73764414530856       -2.29028372844907        2.61979053439496
C           -3.00462938917122       -1.42558900416598        1.82349420875951
C           -3.64362304130190       -0.53577528483048        0.96682789920559
N           -2.94061080218724        0.34659771249705        0.15247243099316
C           -1.52331820242239        0.36161170566071        0.15891439817445
C           -0.84287672174563        1.47285936177056        0.67736017220987
C            0.52481231789777        1.47795740677821        0.67985082839781
C            1.25680156450363        0.38575962243730        0.18126721248072
C            0.57722260338633       -0.74265660718888       -0.33962954034116
C           -0.82342890583091       -0.71542628983221       -0.34075041295863
C            1.33795523282752       -1.85763866143667       -0.84842105768734
C            0.74158859644885       -3.01717058709337       -1.36760765613309
C            1.49592462324432       -4.05958537715790       -1.84817147928754
C            2.88973983936719       -3.98916326228675       -1.83093920605129
C            3.50530583135925       -2.87356440200438       -1.32679128965500
C            2.75116753909032       -1.79804099576451       -0.82932026752665
C            3.43449063560105       -0.65679467464029       -0.30481454879218
N            4.75676450668445       -0.59748744923168       -0.28279265108742
C            5.41738345749991        0.45544272261214        0.20167646109117
C            6.80709161995324        0.52536967143406        0.23111648720283
C            7.45192517382760        1.63739950338584        0.74238195241282
C            6.71935953226460        2.70609876610605        1.23720692551660
C            5.33677740182823        2.67133778029854        1.22594061272316
C            4.65294046123080        1.56884005740742        0.71981729318458
N            3.32248736055626        1.49249896792797        0.69534806679275
C            2.68184462662147        0.43798271984849        0.20706157112650
H           -5.69699076476005        3.65848130113459       -2.87001707252163
H           -3.22410835306288        3.65377394594118       -2.97849793333627
H           -1.93182561634933        2.10705590160996       -1.58449700460775
H           -6.85213770055644        2.06103622898499       -1.35742399339756
H           -6.84856349742704       -1.33603394795368        1.70453453169794
H           -5.69183227787067       -2.95125760096484        3.19728634102225
H           -3.21746347232736       -2.97304639726021        3.27364185100501
H           -1.92709861669409       -1.43521055577809        1.87035960863944
H           -1.40616577700440        2.30647240796708        1.06892608202175
H            1.07813175611616        2.31744458060153        1.07183429396917
H           -1.38725494876365       -1.54529766740769       -0.73691476129408
H           -0.33306822643403       -3.10498567312764       -1.39412448099112
H            1.00789506428927       -4.93911635645484       -2.24171214794421
H            3.47644785096461       -4.81166526119143       -2.21184954741120
H            4.58110883191618       -2.79150906021587       -1.29725364354054
H            7.36558297560331       -0.31242558440761       -0.15674354656442
H            8.53077728479684        1.66950806498079        0.75399817156781
H            7.22719720669572        3.57185235715258        1.63445735350520
H            4.75627170169744        3.49703744684391        1.60744646367355

 projected vibrational frequencies (cm⁻¹)
eigval :       -0.00    -0.00    -0.00    -0.00     0.00     0.00
eigval :       13.32    21.05    25.64    47.23    49.72    62.23
eigval :       86.24   103.58   104.90   116.82   137.78   149.17
eigval :      172.66   197.57   222.39   243.21   247.80   265.33
eigval :      274.90   279.91   312.90   326.87   356.35   378.30
eigval :      384.37   392.80   412.04   414.28   417.05   429.34
eigval :      434.58   441.95   457.42   466.44   506.93   512.28
eigval :      515.28   522.55   525.73   527.87   549.63   575.64
eigval :      580.32   584.07   605.12   613.18   613.67   623.16
eigval :      655.34   663.08   664.55   676.04   679.53   687.34
eigval :      704.76   721.68   759.88   762.37   772.07   778.12
eigval :      778.59   808.45   820.15   824.33   832.90   850.51
eigval :      855.27   860.88   865.13   866.80   875.89   877.39
eigval :      897.86   899.29   904.00   907.82   911.44   914.52
eigval :      916.06   917.35   917.98   922.27   965.83  1033.75
eigval :     1062.08  1074.23  1088.01  1088.12  1090.21  1110.30
eigval :     1122.16  1127.54  1142.98  1148.87  1169.03  1170.81
eigval :     1175.37  1180.00  1184.45  1203.56  1207.64  1225.10
eigval :     1228.60  1236.94  1242.04  1250.85  1253.13  1259.06
eigval :     1270.81  1291.48  1308.13  1311.06  1313.26  1325.45
eigval :     1334.03  1346.72  1350.03  1361.28  1365.31  1398.37
eigval :     1411.88  1417.46  1423.33  1426.34  1443.49  1464.44
eigval :     1470.77  1471.83  1481.15  1493.36  1518.28  1539.41
eigval :     1546.60  1549.03  1563.59  1573.37  1574.72  1585.01
eigval :     1590.80  1596.31  3077.12  3082.27  3086.00  3087.49
eigval :     3087.84  3091.64  3091.83  3094.70  3095.78  3099.18
eigval :     3100.62  3100.86  3100.96  3101.11  3106.37  3108.12
eigval :     3108.60  3113.89  3114.35

   temp. (K)  partition function   enthalpy   heat capacity  entropy
                                   cal/mol     cal/K/mol   cal/K/mol   J/K/mol
 298.15  VIB  0.312E+11            14924.187    100.370     89.781
         ROT  0.346E+08              888.752      2.981     37.477
         INT  0.108E+19            15812.939    103.351    127.258
         TR   0.959E+28             1481.254      4.968     44.257
         TOT                       17294.1929   108.3189   171.5147   717.6174

       T/K    H(0)-H(T)+PV         H(T)/Eh          T*S/Eh         G(T)/Eh
   ------------------------------------------------------------------------
    298.15    0.275601E-01    0.435484E+00    0.814922E-01    0.353991E+00
   ------------------------------------------------------------------------

         :::::::::::::::::::::::::::::::::::::::::::::::::::::
         ::                  THERMODYNAMIC                  ::
         :::::::::::::::::::::::::::::::::::::::::::::::::::::
         :: total free energy         -90.706049629914 Eh   ::
         ::.................................................::
         :: total energy              -91.060040979814 Eh   ::
         :: zero point energy           0.407923461129 Eh   ::
         :: G(RRHO) w/o ZPVE           -0.053932111229 Eh   ::
         :: G(RRHO) contrib.            0.353991349900 Eh   ::
         :::::::::::::::::::::::::::::::::::::::::::::::::::::

           -------------------------------------------------
          | TOTAL ENERGY              -91.060040979814 Eh   |
          | TOTAL ENTHALPY            -90.624557468058 Eh   |
          | TOTAL FREE ENERGY         -90.706049629914 Eh   |
          | GRADIENT NORM               0.000146290126 Eh/α |
           -------------------------------------------------

 * finished run on 2025/07/17 at 21:33:15.383
