   * xtb version 6.7.1 (edcfbbe) compiled by 'albert@albert-system' on 2024-07-22

   ID    Z sym.   atoms
    1    6 C      1-6, 8-13, 15-27, 29-34, 36
    2    8 O      7
    3    7 N      14, 28, 35
    4    1 H      37-55

          program call               : xtb data2507/gas/1PXZ-BP/1PXZ-BP_gas_S0_finalOpt.xtbopt.xyz --gfn 2 --spinpol --tblite --uhf 2 --ohess vtight --parallel 40 --molden --ceasefiles --namespace data2507/gas/1PXZ-BP/1PXZ-BP_gas_T1_preOpt
 * total energy  :   -91.0555787 Eh     change       -0.3706778E-07 Eh
 * total energy  :   -91.0588168 Eh     change       -0.3238140E-02 Eh
 * total energy  :   -91.0597993 Eh     change       -0.9824554E-03 Eh
 * total energy  :   -91.0599234 Eh     change       -0.1241029E-03 Eh
 * total energy  :   -91.0599702 Eh     change       -0.4686645E-04 Eh
 * total energy  :   -91.0599744 Eh     change       -0.4195693E-05 Eh
 * total energy  :   -91.0599782 Eh     change       -0.3727411E-05 Eh
 * total energy  :   -91.0599834 Eh     change       -0.5287352E-05 Eh
 * total energy  :   -91.0599884 Eh     change       -0.4945703E-05 Eh
 * total energy  :   -91.0599923 Eh     change       -0.3955928E-05 Eh
 * total energy  :   -91.0600393 Eh     change       -0.4620642E-06 Eh
 * total energy  :   -91.0600396 Eh     change       -0.2713618E-06 Eh
 * total energy  :   -91.0600400 Eh     change       -0.3775228E-06 Eh
 * total energy  :   -91.0600405 Eh     change       -0.5701690E-06 Eh
 * total energy  :   -91.0600411 Eh     change       -0.5078691E-06 Eh
 * total energy  :   -91.0600414 Eh     change       -0.3793701E-06 Eh
 * total energy  :   -91.0600417 Eh     change       -0.2394071E-06 Eh
 * total energy  :   -91.0600418 Eh     change       -0.1278416E-06 Eh
 * total energy  :   -91.0600419 Eh     change       -0.7630626E-07 Eh
   *** GEOMETRY OPTIMIZATION CONVERGED AFTER 35 ITERATIONS ***

 final structure:
================
55
 xtb: 6.7.1 (edcfbbe)
C           -5.13404484507219        3.05199827908566       -2.13704925125965
C           -3.75360089896872        3.05531357461346       -2.19592798216777
C           -3.01677594591086        2.15824868001518       -1.43997934398480
C           -3.65173766258748        1.24676571569845       -0.60332724071379
C           -5.05446980444998        1.23390285567579       -0.57063026896411
C           -5.78371551569037        2.13304235103225       -1.32698680261312
O           -5.76065363773865        0.33781447319076        0.18948639287936
C           -5.04632583772090       -0.56432910035336        0.93484703857905
C           -5.76929770833642       -1.46513829485459        1.69540374235084
C           -5.11341710129547       -2.39084604614621        2.49247463126003
C           -3.73236376410747       -2.39987886530782        2.53309278671777
C           -3.00180465193336       -1.50177622749334        1.77234948821601
C           -3.64306802669706       -0.58166715515409        0.94999452292615
N           -2.94256511432714        0.33398070805253        0.17073729807474
C           -1.52555990849218        0.35219336499983        0.17691731645287
C           -0.84726080592862        1.44959563329942        0.72683647113119
C            0.52040931279577        1.45858866984026        0.72733325216938
C            1.25466544788205        0.38293349916950        0.19722226294696
C            0.57742158211402       -0.73279801144363       -0.35310719625992
C           -0.82321407511507       -0.70851168326058       -0.35358497856825
C            1.34047889722992       -1.83280438057081       -0.89031642832630
C            0.74640818030332       -2.98128817734798       -1.43592668108897
C            1.50281797695668       -4.01041001767466       -1.94130875563142
C            2.89645123993283       -3.93697398664990       -1.92361256901698
C            3.50981612064320       -2.83171360881630       -1.39455525277736
C            2.75357118275859       -1.76993371301395       -0.87148073972820
C            3.43450604185703       -0.63931141961728       -0.32136284748141
N            4.75669574719490       -0.57525118273787       -0.30293314376588
C            5.41487274312771        0.46843147617455        0.20432089362678
C            6.80441075952339        0.54431005257777        0.22856583712308
C            7.44669829713452        1.64653071807949        0.76372693679722
C            6.71179121325486        2.69917335930591        1.28861023329633
C            5.32934856032082        2.65801397488242        1.28354687621692
C            4.64805296277094        1.56517648692665        0.75357607152173
N            3.31782347330212        1.48365651807057        0.73322589884676
C            2.67962828456568        0.43927994654605        0.22051966448339
H           -5.71005790717169        3.75144426865985       -2.72185883109376
H           -3.23721076139437        3.75546266822744       -2.83418750341434
H           -1.93997931247026        2.16002749078190       -1.50173013017802
H           -6.85974579353988        2.09455067728432       -1.27034943758883
H           -6.84578459039496       -1.42172969365679        1.65261867509697
H           -5.68466867039584       -3.09112977271504        3.08092687394150
H           -3.21018589426628       -3.10574798619221        3.16027086228588
H           -1.92434698857193       -1.50912038616355        1.82079476487470
H           -1.41212353738107        2.26987553426501        1.14350416061984
H            1.07191381630834        2.28824656361411        1.14212645567956
H           -1.38518676473390       -1.52774123326917       -0.77379226460401
H           -0.32805685946207       -3.07133618541270       -1.46304101887578
H            1.01652793577792       -4.88184531505377       -2.35451899393469
H            3.48481193513673       -4.74908926021329       -2.32379009764127
H            4.58545542497083       -2.74778625140722       -1.36422127069193
H            7.36487265075287       -0.28090888219986       -0.18271234436415
H            8.52543417490428        1.68359909828798        0.77044031502814
H            7.21763718196903        3.55730640226271        1.70449229163671
H            4.74692875642213        3.47126067047115        1.68818504582945

 projected vibrational frequencies (cm⁻¹)
eigval :       -0.00    -0.00    -0.00     0.00     0.00     0.00
eigval :       13.03    20.85    25.10    47.21    49.27    62.09
eigval :       86.02   103.60   104.52   117.12   137.94   149.19
eigval :      172.67   197.54   222.39   243.47   247.61   265.48
eigval :      274.80   279.96   312.90   326.90   356.36   378.15
eigval :      384.38   392.62   412.01   414.42   416.89   429.40
eigval :      434.34   441.99   457.40   466.39   506.74   512.14
eigval :      515.40   522.45   525.73   527.69   549.48   575.65
eigval :      579.87   583.40   605.00   613.05   613.62   623.13
eigval :      655.27   663.10   664.57   675.99   679.48   687.04
eigval :      705.27   721.65   759.36   762.61   771.61   777.61
eigval :      778.04   808.89   819.63   824.09   832.66   850.51
eigval :      855.58   860.21   864.65   866.37   875.50   876.88
eigval :      897.33   898.78   903.34   907.92   910.91   913.81
eigval :      915.37   917.02   917.91   921.61   966.08  1033.86
eigval :     1061.83  1074.28  1087.50  1087.95  1090.24  1110.39
eigval :     1122.17  1127.26  1142.46  1148.70  1167.33  1170.24
eigval :     1174.15  1178.95  1183.68  1203.38  1206.18  1224.54
eigval :     1228.20  1236.73  1241.46  1250.41  1253.23  1258.01
eigval :     1270.47  1290.58  1307.85  1311.03  1313.24  1325.24
eigval :     1333.59  1346.33  1349.41  1361.12  1365.13  1398.01
eigval :     1411.55  1417.09  1422.92  1426.04  1443.00  1464.34
eigval :     1470.86  1471.62  1482.11  1493.18  1518.73  1539.01
eigval :     1546.63  1548.79  1563.50  1573.30  1574.64  1584.64
eigval :     1590.58  1596.17  3076.80  3082.30  3085.73  3087.42
eigval :     3087.99  3091.09  3091.25  3094.74  3095.84  3099.16
eigval :     3100.34  3100.67  3100.78  3101.17  3106.43  3108.47
eigval :     3108.91  3113.86  3114.44

   temp. (K)  partition function   enthalpy   heat capacity  entropy
                                   cal/mol     cal/K/mol   cal/K/mol   J/K/mol
 298.15  VIB  0.332E+11            14929.479    100.380     89.842
         ROT  0.346E+08              888.752      2.981     37.477
         INT  0.115E+19            15818.231    103.361    127.319
         TR   0.959E+28             1481.254      4.968     44.257
         TOT                       17299.4849   108.3290   171.5751   717.8702

       T/K    H(0)-H(T)+PV         H(T)/Eh          T*S/Eh         G(T)/Eh
   ------------------------------------------------------------------------
    298.15    0.275685E-01    0.435418E+00    0.815209E-01    0.353897E+00
   ------------------------------------------------------------------------

         :::::::::::::::::::::::::::::::::::::::::::::::::::::
         ::                  THERMODYNAMIC                  ::
         :::::::::::::::::::::::::::::::::::::::::::::::::::::
         :: total free energy         -90.706144869794 Eh   ::
         ::.................................................::
         :: total energy              -91.060041884635 Eh   ::
         :: zero point energy           0.407849391006 Eh   ::
         :: G(RRHO) w/o ZPVE           -0.053952376165 Eh   ::
         :: G(RRHO) contrib.            0.353897014841 Eh   ::
         :::::::::::::::::::::::::::::::::::::::::::::::::::::

           -------------------------------------------------
          | TOTAL ENERGY              -91.060041884635 Eh   |
          | TOTAL ENTHALPY            -90.624624009568 Eh   |
          | TOTAL FREE ENERGY         -90.706144869794 Eh   |
          | GRADIENT NORM               0.000078380016 Eh/α |
           -------------------------------------------------

 * finished run on 2025/07/17 at 21:30:12.478
