   * xtb version 6.7.1 (edcfbbe) compiled by 'albert@albert-system' on 2024-07-22

   ID    Z sym.   atoms
    1    6 C      1-6, 8-13, 15-27, 29-34, 36
    2    8 O      7
    3    7 N      14, 28, 35
    4    1 H      37-55

          program call               : xtb data2507/gas/1PXZ-BP/1PXZ-BP.xyz --gfn 2 --ohess vtight --parallel 40 --molden --ceasefiles --namespace data2507/gas/1PXZ-BP/1PXZ-BP_gas_S0_preOpt
          :  Hamiltonian                  GFN2-xTB          :
 * total energy  :   -91.0821062 Eh     change       -0.1926892E-08 Eh
 * total energy  :   -91.0959579 Eh     change       -0.1385171E-01 Eh
 * total energy  :   -91.0996882 Eh     change       -0.3730287E-02 Eh
 * total energy  :   -91.1003661 Eh     change       -0.6779393E-03 Eh
 * total energy  :   -91.1007741 Eh     change       -0.4080257E-03 Eh
 * total energy  :   -91.1008456 Eh     change       -0.7147849E-04 Eh
 * total energy  :   -91.1008665 Eh     change       -0.2083727E-04 Eh
 * total energy  :   -91.1008725 Eh     change       -0.6021780E-05 Eh
 * total energy  :   -91.1008668 Eh     change        0.5698613E-05 Eh
 * total energy  :   -91.1008730 Eh     change       -0.6221339E-05 Eh
 * total energy  :   -91.1008750 Eh     change       -0.2216261E-06 Eh
 * total energy  :   -91.1008752 Eh     change       -0.2106979E-06 Eh
 * total energy  :   -91.1008752 Eh     change       -0.3095265E-07 Eh
 * total energy  :   -91.1008754 Eh     change       -0.1216966E-06 Eh
 * total energy  :   -91.1008755 Eh     change       -0.1925150E-06 Eh
 * total energy  :   -91.1008757 Eh     change       -0.1333936E-06 Eh
 * total energy  :   -91.1008759 Eh     change       -0.1810316E-06 Eh
 * total energy  :   -91.1008761 Eh     change       -0.2632469E-06 Eh
 * total energy  :   -91.1008761 Eh     change       -0.1591843E-08 Eh
   *** GEOMETRY OPTIMIZATION CONVERGED AFTER 22 ITERATIONS ***

 final structure:
================
55
 xtb: 6.7.1 (edcfbbe)
C           -5.10983396886952       -0.51736885051339        3.57130896878853
C           -3.73083287716900       -0.51141233034225        3.60484163214468
C           -3.00167575627929       -0.48703341289372        2.42467667944290
C           -3.64796191417686       -0.46845790994232        1.19652481135160
C           -5.04929360010686       -0.47426246260131        1.17043196464231
C           -5.76889192453487       -0.49882250839945        2.34891353971247
O           -5.76242881262963       -0.45533760377495       -0.00503141328416
C           -5.04884653173347       -0.44062181596962       -1.18028436330993
C           -5.76801570231988       -0.43208341412478       -2.35925331836111
C           -5.10851709845280       -0.41630059817613       -3.58144917305071
C           -3.72950268954863       -0.40963979903958       -3.61430206337268
C           -3.00077186332423       -0.41842271382310       -2.43365139620226
C           -3.64750023575648       -0.43387054264848       -1.20568909833860
N           -2.94574840187052       -0.43975541576838       -0.00428360632904
C           -1.52604638438233       -0.45548590036430       -0.00412566939357
C           -0.84458209094324       -1.67223729809770       -0.01454860468676
C            0.52946048990040       -1.66807358774332       -0.01457750155321
C            1.24367118336736       -0.46642327878631       -0.00384917431704
C            0.56560658596668        0.76861068824236        0.00740942764244
C           -0.83267581478267        0.73919502434920        0.00657123549285
C            1.31934179443576        2.01472247166553        0.01987447224975
C            0.69878682109393        3.26923293567618        0.03251685975754
C            1.43453604132256        4.43418290407877        0.04469243225964
C            2.82407406339747        4.39033576310152        0.04465330525473
C            3.46159243109465        3.17168514037393        0.03232449850424
C            2.72774025788161        1.98249934492934        0.01995453352792
C            3.42965774508493        0.71727126437556        0.00729302145329
N            4.74904423696495        0.71669437776858        0.00696558776598
C            5.37911421676255       -0.46612614820655       -0.00500211533098
C            6.78985799012429       -0.51311420986432       -0.00593801085576
C            7.42822269276746       -1.71972922568607       -0.01830974551315
C            6.69791453391926       -2.92413464489935       -0.03019644214642
C            5.33283656704681       -2.91593113486221       -0.02959068906914
C            4.63916383182220       -1.68668200595196       -0.01694975210654
N            3.29892607093960       -1.67426528352873       -0.01628328983353
C            2.69000535088486       -0.50391284405511       -0.00451773687133
H           -5.68146275599728       -0.53631996471726        4.48581222802175
H           -3.20702946086498       -0.52564256589636        4.54835009653350
H           -1.92264833113090       -0.48277615235505        2.45477404511645
H           -6.84571403843430       -0.50307628784682        2.29234535719209
H           -6.84485774373272       -0.43809038911150       -2.30321355384347
H           -5.67981605739682       -0.40962959291707       -4.49633119871782
H           -3.20535830752106       -0.39774315523928       -4.55765451276081
H           -1.92172946812357       -0.41397744513532       -2.46323376454800
H           -1.40245408389394       -2.59635511432096       -0.02260028069640
H            1.09248769228381       -2.58787056107526       -0.02290934659669
H           -1.40746894137315        1.65149481622564        0.01437827224631
H           -0.37677454843320        3.34352304212552        0.03297559683540
H            0.92547690373876        5.38680138803896        0.05433904828295
H            3.39547597437133        5.30629966957230        0.05434443254177
H            4.53769939775724        3.09869811654425        0.03198992484768
H            7.33072395269704        0.42046604095122        0.00324710908447
H            8.50754838524039       -1.76197202965238       -0.01920499278035
H            7.23438809158042       -3.86158928584123       -0.03994448013149
H            4.75508410133578       -3.82716650384699       -0.03857978669235

          :  Hamiltonian                  GFN2-xTB          :
         :: gradient norm              0.000029956882 Eh/a0 ::
         :: HOMO-LUMO gap              0.890194058866 eV    ::
         :: SCC energy               -92.723361785615 Eh    ::
         :: -> dispersion             -0.076512657240 Eh    ::
         :: repulsion energy           1.622485656354 Eh    ::

    * Orbital Energies and Occupations

         #    Occupation            Energy/Eh            Energy/eV
      -------------------------------------------------------------
         1        2.0000           -0.7215927             -19.6355
       ...           ...                  ...                  ...
        72        2.0000           -0.4302161             -11.7068
        73        2.0000           -0.4250838             -11.5671
        74        2.0000           -0.4226733             -11.5015
        75        2.0000           -0.4192565             -11.4085
        76        2.0000           -0.4135203             -11.2525
        77        2.0000           -0.4105571             -11.1718
        78        2.0000           -0.4080973             -11.1049
        79        2.0000           -0.4055719             -11.0362
        80        2.0000           -0.3971292             -10.8064
        81        2.0000           -0.3949174             -10.7462
        82        2.0000           -0.3856536             -10.4942
        83        2.0000           -0.3525250              -9.5927
        84        2.0000           -0.3372906              -9.1781 (HOMO)
        85                         -0.3045766              -8.2880 (LUMO)
        86                         -0.2711165              -7.3775
        87                         -0.2609479              -7.1008
        88                         -0.2328413              -6.3359
        89                         -0.2291332              -6.2350
        90                         -0.2245341              -6.1099
        91                         -0.2208789              -6.0104
        92                         -0.2096219              -5.7041
        93                         -0.2071720              -5.6374
        94                         -0.2036163              -5.5407
        95                         -0.1907421              -5.1904
       ...                                ...                  ...
       163                          0.7121689              19.3791
      -------------------------------------------------------------
                  HL-Gap            0.0327140 Eh            0.8902 eV

     #   Z          covCN         q      C6AA      α(0)
     1   6 C        2.919    -0.042    29.042     8.837
     2   6 C        2.919    -0.039    28.967     8.826
     3   6 C        2.923    -0.061    29.522     8.910
     4   6 C        2.924     0.044    27.019     8.524
     5   6 C        2.882     0.123    25.289     8.244
     6   6 C        2.920    -0.057    29.415     8.894
     7   8 O        1.708    -0.259    18.284     5.773
     8   6 C        2.882     0.123    25.289     8.244
     9   6 C        2.920    -0.057    29.415     8.894
    10   6 C        2.919    -0.042    29.042     8.837
    11   6 C        2.919    -0.039    28.967     8.826
    12   6 C        2.923    -0.061    29.522     8.910
    13   6 C        2.924     0.044    27.019     8.524
    14   7 N        2.754    -0.079    22.771     7.087
    15   6 C        2.921     0.070    26.434     8.431
    16   6 C        2.918    -0.038    28.949     8.823
    17   6 C        2.924    -0.027    28.675     8.782
    18   6 C        2.988    -0.002    28.070     8.691
    19   6 C        2.976     0.008    27.827     8.653
    20   6 C        2.925    -0.044    29.087     8.845
    21   6 C        2.976     0.007    27.855     8.657
    22   6 C        2.922    -0.033    28.814     8.803
    23   6 C        2.918    -0.026    28.656     8.778
    24   6 C        2.917    -0.027    28.678     8.782
    25   6 C        2.924    -0.026    28.660     8.779
    26   6 C        2.988    -0.000    28.021     8.683
    27   6 C        2.961     0.083    26.140     8.386
    28   7 N        1.848    -0.238    27.079     7.712
    29   6 C        2.967     0.083    26.148     8.388
    30   6 C        2.916    -0.039    28.967     8.826
    31   6 C        2.916    -0.026    28.655     8.778
    32   6 C        2.916    -0.026    28.657     8.778
    33   6 C        2.916    -0.039    28.967     8.826
    34   6 C        2.967     0.083    26.153     8.388
    35   7 N        1.848    -0.239    27.095     7.715
    36   6 C        2.962     0.083    26.142     8.386
    37   1 H        0.926     0.036     2.504     2.474
    38   1 H        0.926     0.034     2.534     2.489
    39   1 H        0.926     0.029     2.599     2.521
    40   1 H        0.926     0.049     2.338     2.391
    41   1 H        0.926     0.049     2.338     2.391
    42   1 H        0.926     0.036     2.504     2.474
    43   1 H        0.926     0.034     2.534     2.489
    44   1 H        0.926     0.029     2.599     2.521
    45   1 H        0.926     0.046     2.371     2.408
    46   1 H        0.926     0.067     2.123     2.278
    47   1 H        0.926     0.046     2.369     2.407
    48   1 H        0.926     0.038     2.476     2.461
    49   1 H        0.926     0.037     2.492     2.469
    50   1 H        0.926     0.038     2.474     2.460
    51   1 H        0.926     0.061     2.187     2.313
    52   1 H        0.926     0.053     2.288     2.365
    53   1 H        0.926     0.041     2.438     2.442
    54   1 H        0.926     0.041     2.438     2.442
    55   1 H        0.926     0.052     2.289     2.366

molecular dipole:
                 x           y           z       tot (Debye)
 q only:        0.861       0.197       0.002
   full:        0.960       0.180       0.002       2.482

 projected vibrational frequencies (cm⁻¹)
eigval :       -0.00    -0.00    -0.00     0.00     0.00     0.00
eigval :      -18.00    17.02    18.45    40.25    41.39    57.26
eigval :       77.79    89.86   106.51   110.07   136.42   146.38
eigval :      172.27   206.10   218.25   237.56   249.10   264.15
eigval :      276.39   285.00   312.98   335.97   356.08   378.62
eigval :      382.12   392.86   405.74   415.44   415.48   423.35
eigval :      436.16   438.36   446.96   464.34   510.90   512.35
eigval :      518.99   520.67   526.58   540.12   552.01   577.84
eigval :      580.21   586.09   607.88   616.36   623.38   658.68
eigval :      659.30   663.56   668.59   692.01   695.54   710.12
eigval :      736.96   764.37   765.49   771.00   776.96   777.36
eigval :      782.42   811.23   826.89   835.06   852.59   859.77
eigval :      859.79   863.77   865.28   876.62   878.61   893.52
eigval :      895.01   912.93   913.34   914.93   919.18   920.45
eigval :      924.24   926.45   930.02   930.24   981.18  1042.63
eigval :     1054.58  1063.40  1087.63  1088.81  1091.94  1106.95
eigval :     1121.01  1140.69  1144.09  1147.80  1170.50  1171.04
eigval :     1176.13  1180.52  1181.96  1197.18  1206.86  1219.67
eigval :     1230.90  1239.51  1242.47  1260.52  1260.94  1280.20
eigval :     1283.15  1312.02  1313.88  1317.58  1319.07  1339.91
eigval :     1344.78  1347.59  1358.30  1372.32  1401.69  1411.72
eigval :     1425.17  1430.02  1441.18  1445.49  1462.13  1480.37
eigval :     1493.01  1494.71  1507.55  1508.77  1535.84  1551.19
eigval :     1566.11  1566.52  1581.60  1583.31  1591.02  1596.36
eigval :     1605.41  1607.64  3078.63  3079.32  3086.07  3086.18
eigval :     3086.73  3090.28  3092.91  3094.26  3094.44  3099.32
eigval :     3101.67  3101.71  3101.82  3102.30  3110.55  3111.68
eigval :     3111.77  3112.26  3112.35

   temp. (K)  partition function   enthalpy   heat capacity  entropy
                                   cal/mol     cal/K/mol   cal/K/mol   J/K/mol
 298.15  VIB  0.686E+11            14905.728     99.035     90.108
         ROT  0.344E+08              888.752      2.981     37.469
         INT  0.236E+19            15794.480    102.016    127.577
         TR   0.959E+28             1481.254      4.968     44.257
         TOT                       17275.7338   106.9838   171.8339   718.9532

       T/K    H(0)-H(T)+PV         H(T)/Eh          T*S/Eh         G(T)/Eh
   ------------------------------------------------------------------------
    298.15    0.275306E-01    0.437412E+00    0.816439E-01    0.355768E+00
   ------------------------------------------------------------------------

         :::::::::::::::::::::::::::::::::::::::::::::::::::::
         ::                  THERMODYNAMIC                  ::
         :::::::::::::::::::::::::::::::::::::::::::::::::::::
         :: total free energy         -90.745107901374 Eh   ::
         ::.................................................::
         :: total energy              -91.100876129260 Eh   ::
         :: zero point energy           0.409881444944 Eh   ::
         :: G(RRHO) w/o ZPVE           -0.054113217058 Eh   ::
         :: G(RRHO) contrib.            0.355768227887 Eh   ::
         :::::::::::::::::::::::::::::::::::::::::::::::::::::

           -------------------------------------------------
          | TOTAL ENERGY              -91.100876129260 Eh   |
          | TOTAL ENTHALPY            -90.663464050087 Eh   |
          | TOTAL FREE ENERGY         -90.745107901374 Eh   |
          | GRADIENT NORM               0.000029956178 Eh/α |
          | HOMO-LUMO GAP               0.890193227226 eV   |
           -------------------------------------------------

 * finished run on 2025/07/17 at 21:28:12.043
