   * xtb version 6.7.1 (edcfbbe) compiled by 'albert@albert-system' on 2024-07-22

   ID    Z sym.   atoms
    1    6 C      1-6, 8-13, 15-27, 29-34, 36
    2    8 O      7
    3    7 N      14, 28, 35
    4    1 H      37-55

          program call               : xtb data2507/gas/1PXZ-BP/1PXZ-BP_gas_S0_crest.xyz --gfn 2 --ohess vtight --parallel 40 --molden --ceasefiles --namespace data2507/gas/1PXZ-BP/1PXZ-BP_gas_S0_finalOpt
          :  Hamiltonian                  GFN2-xTB          :
 * total energy  :   -91.1020428 Eh     change       -0.1023793E-08 Eh
 * total energy  :   -91.1020436 Eh     change       -0.8153580E-06 Eh
 * total energy  :   -91.1020443 Eh     change       -0.6927866E-06 Eh
 * total energy  :   -91.1020456 Eh     change       -0.1332958E-05 Eh
 * total energy  :   -91.1020460 Eh     change       -0.4003084E-06 Eh
 * total energy  :   -91.1020463 Eh     change       -0.2808451E-06 Eh
 * total energy  :   -91.1020465 Eh     change       -0.2277755E-06 Eh
 * total energy  :   -91.1020467 Eh     change       -0.1488474E-06 Eh
 * total energy  :   -91.1020468 Eh     change       -0.1422853E-06 Eh
 * total energy  :   -91.1020469 Eh     change       -0.1496288E-06 Eh
 * total energy  :   -91.1020471 Eh     change       -0.1164293E-06 Eh
 * total energy  :   -91.1020471 Eh     change       -0.7379312E-07 Eh
   *** GEOMETRY OPTIMIZATION CONVERGED AFTER 12 ITERATIONS ***

 final structure:
================
55
 xtb: 6.7.1 (edcfbbe)
C           -5.16300146476481        3.14287218089847       -2.04000156248161
C           -3.78488872221351        3.15912280132588       -2.10808460216244
C           -3.03598809326262        2.23933490309176       -1.38974157385196
C           -3.65491531622753        1.29474424163827       -0.58064568557458
C           -5.05544903465594        1.26450530132687       -0.54633479215057
C           -5.79728697427295        2.18465092920876       -1.26295361926763
O           -5.75443828304955        0.32687507850884        0.17271937105588
C           -5.02845013184181       -0.60111406691267        0.87713610876635
C           -5.74490983410734       -1.53852259445958        1.59735155960728
C           -5.08484292825336       -2.48981974570582        2.36121875516759
C           -3.70597794371807       -2.48223091232339        2.41172483594900
C           -2.98235965466024       -1.54552459413055        1.68927593398331
C           -3.62691175009259       -0.60596292090264        0.89417941719915
N           -2.93071179187590        0.35274323043756        0.15382039387447
C           -1.52043510399463        0.38270681161813        0.16143978637030
C           -0.84591211829884        1.49591708776878        0.67015789533028
C            0.52674272297712        1.50693021409573        0.67156981946664
C            1.25720790123875        0.41947466134576        0.18181776569118
C            0.59020149923939       -0.71313729132711       -0.32659037106820
C           -0.80664437799994       -0.69626307045730       -0.33178193479831
C            1.35670553322155       -1.84592195557327       -0.82767576381990
C            0.74965701370507       -3.00406238913195       -1.32690341865357
C            1.49757624289864       -4.06199112542036       -1.79596731767635
C            2.88645489980390       -4.00353387843113       -1.78353007770522
C            3.51083760982642       -2.88018369401123       -1.29371278204253
C            2.76461871337117       -1.80063573454426       -0.81360309557912
C            3.45378876898185       -0.63772740653530       -0.29683176369199
N            4.77270373692643       -0.62404497175760       -0.29423535356196
C            5.39097826840477        0.46141356390869        0.19290728361899
C            6.80086516175995        0.51766363025138        0.21665250455709
C            7.42758703380333        1.62429803555486        0.71337686756378
C            6.68530808513599        2.71577524725632        1.20429654578356
C            5.32026613452293        2.69517961003088        1.19629138533363
C            4.63865685970970        1.56729099889587        0.69080217274169
N            3.29851621704560        1.54356293866496        0.68211880935361
C            2.70100829670271        0.46869696886740        0.20225180791322
H           -5.75003746358396        3.85895721877273       -2.59303317226639
H           -3.27677182681982        3.88520736941909       -2.72388630318445
H           -1.96000144639858        2.25286021055289       -1.46556395130563
H           -6.87256408130652        2.13078091994908       -1.20325955192679
H           -6.82162240062941       -1.50256419164528        1.55152456502883
H           -5.65233350055924       -3.21893222057717        2.91759726157057
H           -3.17708936731741       -3.20257118234905        3.01677388720494
H           -1.90554674216949       -1.54099049199270        1.75392736403051
H           -1.40995052971282        2.32969325629873        1.06044955757764
H            1.07798518553967        2.34915256277169        1.05870589549641
H           -1.36667545796897       -1.52861661406129       -0.72735366617530
H           -0.32509400301918       -3.08792366875962       -1.35009062269954
H            0.99849795396132       -4.94188393803738       -2.17485682959280
H            3.46753000558007       -4.83482825729369       -2.15363591812939
H            4.58610846571305       -2.80060900728063       -1.26484419786620
H            7.35108009473091       -0.32893468634930       -0.16390871092268
H            8.50648007457504        1.67275268941657        0.73445938980816
H            7.21221066400383        3.57613002362740        1.59032748479043
H            4.73347523479568        3.52089866096756        1.56800696742062

          :  Hamiltonian                  GFN2-xTB          :
         :: gradient norm              0.000049353949 Eh/a0 ::
         :: HOMO-LUMO gap              1.079640237471 eV    ::
         :: SCC energy               -92.723596234574 Eh    ::
         :: -> dispersion             -0.076837239607 Eh    ::
         :: repulsion energy           1.621549098495 Eh    ::

    * Orbital Energies and Occupations

         #    Occupation            Energy/Eh            Energy/eV
      -------------------------------------------------------------
         1        2.0000           -0.7257988             -19.7500
       ...           ...                  ...                  ...
        72        2.0000           -0.4289249             -11.6716
        73        2.0000           -0.4243629             -11.5475
        74        2.0000           -0.4206266             -11.4458
        75        2.0000           -0.4195680             -11.4170
        76        2.0000           -0.4138538             -11.2615
        77        2.0000           -0.4111280             -11.1874
        78        2.0000           -0.4104485             -11.1689
        79        2.0000           -0.4027731             -10.9600
        80        2.0000           -0.3953196             -10.7572
        81        2.0000           -0.3923513             -10.6764
        82        2.0000           -0.3876362             -10.5481
        83        2.0000           -0.3495021              -9.5104
        84        2.0000           -0.3411210              -9.2824 (HOMO)
        85                         -0.3014451              -8.2027 (LUMO)
        86                         -0.2681618              -7.2971
        87                         -0.2580044              -7.0207
        88                         -0.2363755              -6.4321
        89                         -0.2279103              -6.2018
        90                         -0.2272177              -6.1829
        91                         -0.2186657              -5.9502
        92                         -0.2129512              -5.7947
        93                         -0.2040457              -5.5524
        94                         -0.2010179              -5.4700
        95                         -0.1924342              -5.2364
       ...                                ...                  ...
       163                          0.7149327              19.4543
      -------------------------------------------------------------
                  HL-Gap            0.0396760 Eh            1.0796 eV

     #   Z          covCN         q      C6AA      α(0)
     1   6 C        2.919    -0.040    29.002     8.831
     2   6 C        2.919    -0.039    28.961     8.825
     3   6 C        2.924    -0.060    29.486     8.905
     4   6 C        2.922     0.043    27.043     8.528
     5   6 C        2.884     0.124    25.268     8.241
     6   6 C        2.920    -0.056    29.401     8.892
     7   8 O        1.709    -0.256    18.234     5.765
     8   6 C        2.884     0.125    25.266     8.241
     9   6 C        2.920    -0.056    29.401     8.892
    10   6 C        2.919    -0.040    29.005     8.832
    11   6 C        2.919    -0.039    28.966     8.826
    12   6 C        2.924    -0.060    29.501     8.907
    13   6 C        2.922     0.042    27.048     8.529
    14   7 N        2.752    -0.071    22.613     7.063
    15   6 C        2.919     0.067    26.506     8.443
    16   6 C        2.918    -0.041    29.026     8.835
    17   6 C        2.923    -0.028    28.699     8.785
    18   6 C        2.988    -0.005    28.136     8.701
    19   6 C        2.976     0.007    27.853     8.657
    20   6 C        2.926    -0.047    29.179     8.859
    21   6 C        2.976     0.007    27.865     8.659
    22   6 C        2.922    -0.033    28.828     8.805
    23   6 C        2.918    -0.027    28.668     8.780
    24   6 C        2.917    -0.028    28.691     8.784
    25   6 C        2.924    -0.027    28.666     8.780
    26   6 C        2.988    -0.000    28.028     8.684
    27   6 C        2.961     0.083    26.146     8.387
    28   7 N        1.848    -0.240    27.113     7.717
    29   6 C        2.967     0.082    26.165     8.390
    30   6 C        2.917    -0.039    28.975     8.827
    31   6 C        2.916    -0.027    28.673     8.781
    32   6 C        2.916    -0.027    28.669     8.780
    33   6 C        2.917    -0.039    28.981     8.828
    34   6 C        2.967     0.083    26.157     8.389
    35   7 N        1.848    -0.241    27.156     7.723
    36   6 C        2.961     0.083    26.150     8.388
    37   1 H        0.926     0.038     2.481     2.463
    38   1 H        0.926     0.036     2.506     2.475
    39   1 H        0.926     0.035     2.512     2.479
    40   1 H        0.926     0.050     2.321     2.382
    41   1 H        0.926     0.050     2.320     2.382
    42   1 H        0.926     0.037     2.483     2.464
    43   1 H        0.926     0.035     2.513     2.479
    44   1 H        0.926     0.035     2.521     2.483
    45   1 H        0.926     0.044     2.393     2.419
    46   1 H        0.926     0.065     2.144     2.289
    47   1 H        0.926     0.044     2.391     2.418
    48   1 H        0.926     0.037     2.491     2.468
    49   1 H        0.926     0.036     2.507     2.476
    50   1 H        0.926     0.037     2.487     2.466
    51   1 H        0.926     0.060     2.194     2.316
    52   1 H        0.926     0.052     2.301     2.372
    53   1 H        0.926     0.040     2.454     2.450
    54   1 H        0.926     0.040     2.454     2.450
    55   1 H        0.926     0.051     2.302     2.373

molecular dipole:
                 x           y           z       tot (Debye)
 q only:        0.458      -0.148      -0.080
   full:        0.545      -0.141      -0.071       1.443

 projected vibrational frequencies (cm⁻¹)
eigval :       -0.00    -0.00    -0.00    -0.00    -0.00     0.00
eigval :       14.35    22.47    24.70    42.07    45.77    62.74
eigval :       85.41    98.27   106.80   120.22   138.83   150.15
eigval :      175.48   211.30   222.66   246.86   249.12   266.61
eigval :      280.36   286.34   314.56   337.98   357.29   380.60
eigval :      381.98   392.21   408.51   414.82   417.37   430.58
eigval :      437.70   441.63   447.37   463.84   510.17   515.87
eigval :      520.28   523.59   529.17   540.21   552.31   577.32
eigval :      581.24   585.95   607.55   616.85   622.28   658.99
eigval :      661.42   664.74   669.23   689.76   694.91   709.91
eigval :      736.11   764.12   765.49   770.15   778.93   779.06
eigval :      782.62   812.04   834.55   834.91   855.15   862.31
eigval :      863.72   866.76   872.08   876.21   883.17   897.26
eigval :      898.93   914.30   914.62   915.53   917.61   920.02
eigval :      926.32   929.60   929.72   930.12   980.85  1043.13
eigval :     1054.94  1063.79  1090.49  1090.59  1093.39  1108.50
eigval :     1122.84  1142.92  1144.15  1148.74  1170.41  1170.77
eigval :     1175.75  1180.91  1185.67  1201.72  1209.19  1220.18
eigval :     1232.43  1239.75  1244.36  1261.17  1262.46  1280.65
eigval :     1283.84  1310.63  1313.66  1317.48  1321.93  1338.06
eigval :     1340.58  1345.69  1354.38  1372.82  1401.71  1412.66
eigval :     1424.40  1430.50  1440.35  1445.70  1462.89  1480.75
eigval :     1488.70  1492.61  1504.25  1505.04  1534.60  1549.28
eigval :     1565.69  1567.34  1579.92  1581.10  1590.25  1595.89
eigval :     1603.63  1607.36  3077.72  3078.33  3085.90  3088.32
eigval :     3088.78  3089.42  3090.84  3098.33  3098.60  3098.63
eigval :     3100.26  3101.11  3105.26  3106.04  3110.21  3111.08
eigval :     3111.73  3112.61  3113.15

   temp. (K)  partition function   enthalpy   heat capacity  entropy
                                   cal/mol     cal/K/mol   cal/K/mol   J/K/mol
 298.15  VIB  0.286E+11            14787.574     99.149     88.884
         ROT  0.344E+08              888.752      2.981     37.470
         INT  0.984E+18            15676.326    102.130    126.354
         TR   0.959E+28             1481.254      4.968     44.257
         TOT                       17157.5800   107.0978   170.6104   713.8340

       T/K    H(0)-H(T)+PV         H(T)/Eh          T*S/Eh         G(T)/Eh
   ------------------------------------------------------------------------
    298.15    0.273423E-01    0.437617E+00    0.810625E-01    0.356555E+00
   ------------------------------------------------------------------------

         :::::::::::::::::::::::::::::::::::::::::::::::::::::
         ::                  THERMODYNAMIC                  ::
         :::::::::::::::::::::::::::::::::::::::::::::::::::::
         :: total free energy         -90.745492446464 Eh   ::
         ::.................................................::
         :: total energy              -91.102047136078 Eh   ::
         :: zero point energy           0.410274862250 Eh   ::
         :: G(RRHO) w/o ZPVE           -0.053720172636 Eh   ::
         :: G(RRHO) contrib.            0.356554689614 Eh   ::
         :::::::::::::::::::::::::::::::::::::::::::::::::::::

           -------------------------------------------------
          | TOTAL ENERGY              -91.102047136078 Eh   |
          | TOTAL ENTHALPY            -90.664429929755 Eh   |
          | TOTAL FREE ENERGY         -90.745492446464 Eh   |
          | GRADIENT NORM               0.000049358128 Eh/α |
          | HOMO-LUMO GAP               1.079637908855 eV   |
           -------------------------------------------------

 * finished run on 2025/07/17 at 21:30:07.670
