   * xtb version 6.7.1 (edcfbbe) compiled by 'albert@albert-system' on 2024-07-22

   ID    Z sym.   atoms
    1    8 O      1
    2    6 C      2-12, 14-17, 19-35, 37-53
    3    7 N      13, 18, 36
    4    1 H      54-84

          program call               : xtb data2507/gas/CCDC/CCDC_gas_S0_finalOpt.xtbopt.xyz --gfn 2 --spinpol --tblite --uhf 2 --ohess vtight --parallel 40 --molden --ceasefiles --namespace data2507/gas/CCDC/CCDC_gas_T1_preOpt
 * total energy  :  -133.5800037 Eh     change       -0.5398590E-08 Eh
 * total energy  :  -133.5831347 Eh     change       -0.3131000E-02 Eh
 * total energy  :  -133.5841468 Eh     change       -0.1012072E-02 Eh
 * total energy  :  -133.5843388 Eh     change       -0.1920479E-03 Eh
 * total energy  :  -133.5845284 Eh     change       -0.1895394E-03 Eh
 * total energy  :  -133.5846641 Eh     change       -0.1357436E-03 Eh
 * total energy  :  -133.5848112 Eh     change       -0.1471302E-03 Eh
 * total energy  :  -133.5849097 Eh     change       -0.9843883E-04 Eh
 * total energy  :  -133.5849647 Eh     change       -0.5505191E-04 Eh
 * total energy  :  -133.5850188 Eh     change       -0.5408383E-04 Eh
 * total energy  :  -133.5854545 Eh     change       -0.4893990E-06 Eh
 * total energy  :  -133.5854551 Eh     change       -0.6118989E-06 Eh
 * total energy  :  -133.5854556 Eh     change       -0.5338352E-06 Eh
 * total energy  :  -133.5854562 Eh     change       -0.5381247E-06 Eh
 * total energy  :  -133.5854567 Eh     change       -0.4880832E-06 Eh
 * total energy  :  -133.5854571 Eh     change       -0.4525830E-06 Eh
 * total energy  :  -133.5854575 Eh     change       -0.3611183E-06 Eh
 * total energy  :  -133.5854579 Eh     change       -0.4461639E-06 Eh
 * total energy  :  -133.5854579 Eh     change       -0.2223106E-07 Eh
   *** GEOMETRY OPTIMIZATION CONVERGED AFTER 68 ITERATIONS ***

 final structure:
================
84
 xtb: 6.7.1 (edcfbbe)
O            6.65065864348192       -3.81423300459811        1.60197489583507
C            6.49329747969393       -2.74196371918150        0.94958495959634
C            7.67743841382781       -2.06102479004000        0.40586284227960
C            8.78654577613054       -2.82906151950103        0.03427185413527
C            9.92331443044656       -2.21895088345439       -0.45298843831175
C            9.98808183120095       -0.83755538772893       -0.55828692062337
C            8.90777311978841       -0.06839977125669       -0.15193916923911
C            7.76272064147214       -0.66748911551796        0.33366225880311
C            5.18251626195164       -2.19887065913405        0.72847289666860
C            4.11391333044129       -2.68915991649634        1.51999917543295
C            2.84153720946712       -2.21359246149431        1.36216235292881
C            2.56229343377450       -1.24968712695150        0.38340378343882
N            1.26438954196347       -0.74263013906259        0.22950205685100
C            0.11146024110930       -1.48487141138122        0.13923230369728
C           -0.05898505403310       -2.86451221106418        0.12297711678197
C           -1.34019891423199       -3.36126268716092        0.01775754465798
C           -2.44953105517911       -2.50739937904904       -0.08393407103822
N           -3.73612035806549       -3.05112831037511       -0.16998064178889
C           -4.81966999799766       -2.66831625847044        0.59604861312624
C           -4.89225151753802       -1.73514201894135        1.62100589281393
C           -6.10993402739347       -1.56337939520824        2.25203707120086
C           -7.22986579690725       -2.30535606511342        1.88528651141796
C           -7.15707166568685       -3.25484291079633        0.88363676255801
C           -5.94553327329270       -3.44387209598023        0.23474586717123
C           -5.51037515306703       -4.33275457183009       -0.80815883680896
C           -6.15354702634102       -5.30093762939131       -1.56541333247177
C           -5.42930804373772       -5.97428452391366       -2.53086215074886
C           -4.08704596727748       -5.67891433998236       -2.75558093035965
C           -3.42514690785613       -4.71833555907657       -2.01415253196144
C           -4.13989421823848       -4.05829767004780       -1.02414778954309
C           -2.28325666014765       -1.12731529541072       -0.10249520236770
C           -1.00193869051243       -0.61427724883530        0.00572469779117
C           -0.47385754151703        0.71916143473324        0.01246525775227
C           -1.05573835897218        1.97269911305019       -0.07740116503077
C           -0.23479680606999        3.09162848486874       -0.00106475433281
N           -0.79317650839707        4.37219169576046       -0.08396777791979
C           -0.35125398261806        5.39602758568624       -0.89833112830827
C            0.67028085060140        5.39984667766374       -1.83797989906061
C            0.88837593871796        6.56514273836109       -2.54851223846355
C            0.10748004528159        7.69964128014168       -2.34210816487708
C           -0.92797482756874        7.69348228467798       -1.42680772597500
C           -1.16558587410283        6.53522447424066       -0.70111495273185
C           -2.14227455324992        6.17190399972891        0.28943097256584
C           -3.18073364934149        6.85829990401312        0.90190397473707
C           -3.93401002502758        6.20290223989944        1.85741330937455
C           -3.65038853092402        4.88720079971573        2.21491863975290
C           -2.62040301138617        4.18359777879137        1.61951497125501
C           -1.87747124694378        4.82764031112589        0.63982028061378
C            1.15111307515997        2.95355216537832        0.17396716672130
C            1.74420270458957        1.71254636729187        0.25473247957215
C            0.93158153956855        0.58905486742400        0.15812420395999
C            3.59565708668057       -0.80457950470956       -0.45145731961837
C            4.87380775531041       -1.27349882376507       -0.29297196652190
H            8.72936768148138       -3.90308432433163        0.12407642737165
H           10.76773967303405       -2.82384343390397       -0.75076056068680
H           10.87994029576086       -0.36141650756920       -0.93790142354651
H            8.96336647136541        1.00995517375259       -0.20204035487785
H            6.94714359134572       -0.05652819280461        0.69132975409964
H            4.34323334172024       -3.42477756319537        2.27546536443838
H            2.04800532376404       -2.55222906885018        2.01253010692990
H            0.78592800232531       -3.53114721366915        0.19230124119139
H           -1.50504528472237       -4.42746518972447        0.03457456121340
H           -4.02476687380407       -1.17062724686793        1.92760065782929
H           -6.19300369693271       -0.84108175982137        3.05044933589519
H           -8.16400206376019       -2.14074089890703        2.40092697842066
H           -8.02073417216608       -3.84261184675894        0.61239670378523
H           -7.19869785759402       -5.51697269186883       -1.40406742761161
H           -5.90996518113814       -6.73376099731880       -3.12895353339609
H           -3.55177484064069       -6.20915773731899       -3.52902819524882
H           -2.39028308979882       -4.48296430140205       -2.21034446910067
H           -3.13451736480532       -0.47556836122261       -0.22519854426752
H           -2.11920353643284        2.08262509138333       -0.22317619432115
H            1.26843588664978        4.51985223136592       -2.01896685765914
H            1.67951998329331        6.59482289077921       -3.28280012555249
H            0.31111093064811        8.59178773446435       -2.91496893819850
H           -1.54418201207322        8.56742225778687       -1.28004373233242
H           -3.38911436931795        7.88406108121859        0.63852818915532
H           -4.74831276879982        6.71823238475738        2.34416664623861
H           -4.24509159756645        4.40718103772828        2.97778978856567
H           -2.39443697350331        3.17172587372374        1.91985239345105
H            1.75227844955227        3.84415148515286        0.27369038509535
H            2.80691684447973        1.61780782712260        0.41346185424632
H            3.36571899242082       -0.11457881189753       -1.25103441471177
H            5.64196507730037       -0.96073563234135       -0.98329341330252

 projected vibrational frequencies (cm⁻¹)
eigval :       -0.00    -0.00    -0.00    -0.00     0.00     0.00
eigval :       11.33    15.06    16.16    16.73    21.56    24.33
eigval :       37.19    42.83    44.16    59.54    65.50    87.72
eigval :       96.21   103.61   109.22   116.41   117.43   128.30
eigval :      131.34   143.80   148.52   166.61   176.37   202.18
eigval :      208.40   223.81   225.59   255.43   265.16   270.72
eigval :      272.89   277.02   277.89   305.28   322.41   329.80
eigval :      349.48   356.54   373.82   381.22   389.41   393.23
eigval :      398.79   401.97   406.34   420.68   421.09   426.78
eigval :      431.52   436.33   438.37   455.40   460.15   491.40
eigval :      516.63   516.87   524.84   530.86   535.49   539.08
eigval :      539.24   539.39   552.04   555.44   563.32   580.97
eigval :      585.58   588.01   592.33   601.37   610.07   615.66
eigval :      627.90   643.49   649.78   657.02   661.17   674.17
eigval :      674.50   682.24   703.36   705.61   707.13   710.72
eigval :      713.31   743.06   752.24   755.10   756.30   769.33
eigval :      769.79   779.65   780.03   801.95   813.86   827.00
eigval :      829.19   843.73   863.36   865.55   865.79   872.94
eigval :      873.32   882.33   882.64   884.48   887.68   890.23
eigval :      897.55   897.89   901.56   902.63   905.20   905.66
eigval :      906.32   911.13   918.19   919.46   920.31   922.57
eigval :      922.76   925.09   926.05   930.77   938.34   957.99
eigval :      978.69   993.22  1001.05  1011.95  1012.97  1029.80
eigval :     1069.99  1070.08  1073.17  1073.32  1077.81  1103.81
eigval :     1111.73  1117.19  1127.59  1131.98  1144.44  1148.95
eigval :     1149.43  1163.60  1165.82  1168.95  1174.73  1177.65
eigval :     1179.92  1180.20  1181.62  1184.43  1185.67  1205.35
eigval :     1219.43  1227.05  1230.15  1233.77  1234.98  1242.55
eigval :     1243.63  1256.94  1258.54  1275.50  1281.50  1294.65
eigval :     1295.19  1297.37  1297.57  1323.57  1328.40  1330.83
eigval :     1344.36  1349.33  1354.73  1357.73  1358.36  1359.87
eigval :     1362.60  1380.51  1409.97  1413.43  1415.81  1420.49
eigval :     1420.74  1422.22  1428.99  1432.17  1436.18  1444.38
eigval :     1452.23  1463.26  1468.05  1469.24  1473.00  1485.62
eigval :     1485.71  1488.31  1547.12  1547.26  1552.11  1557.15
eigval :     1570.56  1572.03  1572.85  1576.23  1583.52  1586.05
eigval :     1588.78  1589.79  1590.28  1607.07  1608.99  3066.16
eigval :     3071.26  3072.06  3075.89  3080.05  3080.26  3080.93
eigval :     3081.32  3082.03  3085.06  3085.20  3086.42  3086.69
eigval :     3088.21  3091.59  3091.92  3093.44  3093.57  3093.90
eigval :     3095.38  3096.34  3097.87  3098.35  3098.62  3099.42
eigval :     3099.58  3100.05  3100.54  3100.96  3105.67  3108.14

   temp. (K)  partition function   enthalpy   heat capacity  entropy
                                   cal/mol     cal/K/mol   cal/K/mol   J/K/mol
 298.15  VIB  0.263E+19            23837.156    153.367    146.626
         ROT  0.159E+09              888.752      2.981     40.506
         INT  0.418E+27            24725.908    156.348    187.132
         TR   0.171E+29             1481.254      4.968     45.402
         TOT                       26207.1619   161.3161   232.5333   972.9195

       T/K    H(0)-H(T)+PV         H(T)/Eh          T*S/Eh         G(T)/Eh
   ------------------------------------------------------------------------
    298.15    0.417638E-01    0.679072E+00    0.110484E+00    0.568588E+00
   ------------------------------------------------------------------------

         :::::::::::::::::::::::::::::::::::::::::::::::::::::
         ::                  THERMODYNAMIC                  ::
         :::::::::::::::::::::::::::::::::::::::::::::::::::::
         :: total free energy        -133.016869605832 Eh   ::
         ::.................................................::
         :: total energy             -133.585457952629 Eh   ::
         :: zero point energy           0.637308667164 Eh   ::
         :: G(RRHO) w/o ZPVE           -0.068720320366 Eh   ::
         :: G(RRHO) contrib.            0.568588346797 Eh   ::
         :::::::::::::::::::::::::::::::::::::::::::::::::::::

           -------------------------------------------------
          | TOTAL ENERGY             -133.585457952629 Eh   |
          | TOTAL ENTHALPY           -132.906385514541 Eh   |
          | TOTAL FREE ENERGY        -133.016869605832 Eh   |
          | GRADIENT NORM               0.000068223076 Eh/α |
           -------------------------------------------------

 * finished run on 2025/09/14 at 05:39:16.845
