   * xtb version 6.7.1 (edcfbbe) compiled by 'albert@albert-system' on 2024-07-22

   ID    Z sym.   atoms
    1    8 O      1
    2    6 C      2-12, 14-17, 19-35, 37-53
    3    7 N      13, 18, 36
    4    1 H      54-84

          program call               : xtb data2507/gas/CCDC/CCDC.xyz --gfn 2 --ohess vtight --parallel 40 --molden --ceasefiles --namespace data2507/gas/CCDC/CCDC_gas_S0_preOpt
          :  Hamiltonian                  GFN2-xTB          :
 * total energy  :  -133.6435481 Eh     change       -0.3043965E-08 Eh
 * total energy  :  -133.6603220 Eh     change       -0.1677395E-01 Eh
 * total energy  :  -133.6641795 Eh     change       -0.3857452E-02 Eh
 * total energy  :  -133.6650345 Eh     change       -0.8550562E-03 Eh
 * total energy  :  -133.6657270 Eh     change       -0.6924401E-03 Eh
 * total energy  :  -133.6659832 Eh     change       -0.2562397E-03 Eh
 * total energy  :  -133.6661304 Eh     change       -0.1471243E-03 Eh
 * total energy  :  -133.6662375 Eh     change       -0.1071814E-03 Eh
 * total energy  :  -133.6663325 Eh     change       -0.9498219E-04 Eh
 * total energy  :  -133.6664195 Eh     change       -0.8693584E-04 Eh
 * total energy  :  -133.6669995 Eh     change       -0.1824178E-06 Eh
 * total energy  :  -133.6669997 Eh     change       -0.2902722E-06 Eh
 * total energy  :  -133.6670004 Eh     change       -0.6194843E-06 Eh
 * total energy  :  -133.6670008 Eh     change       -0.4577770E-06 Eh
 * total energy  :  -133.6670010 Eh     change       -0.1688710E-06 Eh
 * total energy  :  -133.6670011 Eh     change       -0.1086355E-06 Eh
 * total energy  :  -133.6670012 Eh     change       -0.1432714E-06 Eh
 * total energy  :  -133.6670013 Eh     change       -0.1025021E-06 Eh
 * total energy  :  -133.6670014 Eh     change       -0.9673019E-07 Eh
   *** GEOMETRY OPTIMIZATION CONVERGED AFTER 54 ITERATIONS ***

 final structure:
================
84
 xtb: 6.7.1 (edcfbbe)
O            7.39468428978390       -1.39694212410127       -2.43985984717880
C            6.99335804478988       -1.05233370822191       -1.34614782167060
C            7.92442004938999       -0.81964265793912       -0.21274954455958
C            7.57556802770327       -1.12426118288472        1.10139294510569
C            8.48789285155084       -0.92828555468997        2.12187875936548
C            9.74746729423193       -0.42143146777131        1.84412222768530
C           10.10451717514523       -0.12755443122907        0.53770354211682
C            9.20207480300539       -0.33632980870900       -0.48744786539323
C            5.54629695911342       -0.84421317483692       -1.08398785006803
C            5.08518453314995        0.11281908873871       -0.18188979591777
C            3.73055070036423        0.29980418710224        0.00443120460094
C            2.81091235687714       -0.46794307691084       -0.70850553636920
N            1.43882683808281       -0.28170770768160       -0.51472063821620
C            0.51024678937384       -1.28128150022757       -0.29578941684337
C            0.69536944795687       -2.64975142306325       -0.15548787695159
C           -0.41211203895102       -3.43210375089805        0.09804697662704
C           -1.69275887209675       -2.87506343701073        0.20683741917936
N           -2.78891845161163       -3.71517757442163        0.45335497798265
C           -3.72430515918335       -3.54993977580008        1.45493248452001
C           -3.79634842518055       -2.58243211205008        2.44700104248294
C           -4.83689405084722       -2.66304682670781        3.35228870026069
C           -5.78358016523126       -3.68297789009282        3.28425106290652
C           -5.70472582431273       -4.66080029530552        2.31315211519602
C           -4.66755346040916       -4.60150993981924        1.39160818704346
C           -4.27556513691882       -5.43529396200710        0.29031859729146
C           -4.80492809531079       -6.59034438632413       -0.27006538697384
C           -4.17532210447499       -7.14184091754449       -1.36776772041626
C           -3.04018517421663       -6.54829971167828       -1.91578933349864
C           -2.49488330249967       -5.39927061420457       -1.37631671065436
C           -3.10988668436007       -4.85298013596655       -0.25877247350503
C           -1.87935775039140       -1.50546262506900        0.08925459629695
C           -0.77209104205153       -0.70501947933272       -0.14832034926411
C           -0.60140918073464        0.71328715007757       -0.29383072290411
C           -1.48530222708247        1.78131482372979       -0.25679918058457
C           -0.98875902375532        3.05866008846412       -0.47157663008946
N           -1.85386853866196        4.16287733260609       -0.44687377427992
C           -3.03172210078877        4.28324075442451       -1.15660905519046
C           -3.61551647049586        3.40361828233183       -2.05708207740147
C           -4.80098298076012        3.78532299271498       -2.65518421656599
C           -5.39477123171615        5.01429568199394       -2.37552519845669
C           -4.80772351286016        5.90263419527549       -1.49713781786214
C           -3.61550009492458        5.54178051878788       -0.88318243999675
C           -2.74078487557367        6.20474227703240        0.04257652776578
C           -2.78106304395019        7.43722715312361        0.68107712103867
C           -1.76037783516599        7.76581901154686        1.55044214604245
C           -0.71588059091284        6.87748953708740        1.79744324538115
C           -0.65362772573156        5.64588784055414        1.17460604462972
C           -1.66482362531624        5.31909399558759        0.28226312904394
C            0.37292008848979        3.25997403061263       -0.73128527653099
C            1.26597711915089        2.20891437263606       -0.75361311219009
C            0.77746619462269        0.93158585633096       -0.51598371744023
C            3.26787708218180       -1.41672581176313       -1.62211159167104
C            4.62181688489588       -1.59346695474219       -1.81066075754694
H            6.60121221048692       -1.53750641197446        1.31880528444063
H            8.21660372838472       -1.17268573554705        3.13839875163339
H           10.45352644127541       -0.26346324249296        2.64592982580647
H           11.08916754996196        0.25831833458991        0.31958784331869
H            9.46543005261981       -0.12309697376543       -1.51277067345239
H            5.78935538908783        0.72296489350871        0.36421657319836
H            3.37535924188040        1.02950193316660        0.71640030288665
H            1.67668664341369       -3.09393817565327       -0.21997508409798
H           -0.29667783400950       -4.49686950918166        0.23223908863992
H           -3.05804106393616       -1.79779572056300        2.51889521176796
H           -4.91637155955679       -1.92002587033123        4.13226000795356
H           -6.58363693742440       -3.70920281356855        4.00907618381486
H           -6.42957634005234       -5.45968278998674        2.26914538478057
H           -5.69329059721576       -7.04167087341659        0.14548598101270
H           -4.56935048887947       -8.04119172518142       -1.81725589922717
H           -2.57812068904258       -6.99462544039187       -2.78414496857774
H           -1.62483542310614       -4.93705009995265       -1.81820407036006
H           -2.86572671595871       -1.07680221482618        0.17437053349893
H           -2.53465478794897        1.62638565157621       -0.05983384053119
H           -3.15445774547413        2.45640285556095       -2.29386075095949
H           -5.27646285854061        3.11694532237583       -3.35795083859318
H           -6.32309934303009        5.27440281677149       -2.86202953174937
H           -5.25982051308399        6.86121801646599       -1.29148081809326
H           -3.59819195304080        8.11943772055048        0.50096827916914
H           -1.77146702312484        8.72028642716385        2.05544133157744
H            0.06091814034660        7.15666711196975        2.49422780085307
H            0.15100095990137        4.95712441655297        1.38480028038861
H            0.71957504113341        4.26200251101713       -0.93337798782155
H            2.30819791085486        2.38036818171528       -0.97434967381422
H            2.55589508774697       -1.98987528410873       -2.19638446681832
H            4.98895274294748       -2.31350146380264       -2.52653837701479

          :  Hamiltonian                  GFN2-xTB          :
         :: gradient norm              0.000061083166 Eh/a0 ::
         :: HOMO-LUMO gap              1.708458338850 eV    ::
         :: SCC energy              -136.148448892724 Eh    ::
         :: -> dispersion             -0.118193969356 Eh    ::
         :: repulsion energy           2.481447451143 Eh    ::

    * Orbital Energies and Occupations

         #    Occupation            Energy/Eh            Energy/eV
      -------------------------------------------------------------
         1        2.0000           -0.7088602             -19.2891
       ...           ...                  ...                  ...
       112        2.0000           -0.4166051             -11.3364
       113        2.0000           -0.4161451             -11.3239
       114        2.0000           -0.4153546             -11.3024
       115        2.0000           -0.4152721             -11.3001
       116        2.0000           -0.4028395             -10.9618
       117        2.0000           -0.4027119             -10.9583
       118        2.0000           -0.3957595             -10.7692
       119        2.0000           -0.3950504             -10.7499
       120        2.0000           -0.3840346             -10.4501
       121        2.0000           -0.3760868             -10.2338
       122        2.0000           -0.3760038             -10.2316
       123        2.0000           -0.3609072              -9.8208
       124        2.0000           -0.3566110              -9.7039 (HOMO)
       125                         -0.2938263              -7.9954 (LUMO)
       126                         -0.2621699              -7.1340
       127                         -0.2490184              -6.7761
       128                         -0.2477916              -6.7428
       129                         -0.2451584              -6.6711
       130                         -0.2423521              -6.5947
       131                         -0.2388750              -6.5001
       132                         -0.2377020              -6.4682
       133                         -0.2193721              -5.9694
       134                         -0.2192885              -5.9671
       135                         -0.2170864              -5.9072
       ...                                ...                  ...
       243                          0.7487783              20.3753
      -------------------------------------------------------------
                  HL-Gap            0.0627847 Eh            1.7085 eV

     #   Z          covCN         q      C6AA      α(0)
     1   8 O        0.858    -0.368    21.044     6.150
     2   6 C        2.828     0.226    23.262     7.903
     3   6 C        2.973    -0.011    28.297     8.726
     4   6 C        2.921    -0.027    28.671     8.781
     5   6 C        2.918    -0.027    28.682     8.782
     6   6 C        2.920    -0.023    28.575     8.766
     7   6 C        2.918    -0.026    28.654     8.778
     8   6 C        2.925    -0.017    28.443     8.746
     9   6 C        2.972    -0.015    28.374     8.737
    10   6 C        2.920    -0.026    28.650     8.778
    11   6 C        2.921    -0.043    29.066     8.841
    12   6 C        2.913     0.069    26.458     8.435
    13   7 N        2.802    -0.037    21.948     6.958
    14   6 C        3.075     0.043    26.949     8.511
    15   6 C        2.909    -0.049    29.224     8.864
    16   6 C        2.927    -0.045    29.118     8.849
    17   6 C        2.913     0.056    26.747     8.481
    18   7 N        2.803    -0.044    22.090     6.981
    19   6 C        3.076     0.046    26.885     8.501
    20   6 C        2.910    -0.051    29.276     8.872
    21   6 C        2.924    -0.034    28.838     8.806
    22   6 C        2.920    -0.041    29.023     8.835
    23   6 C        2.912    -0.033    28.820     8.803
    24   6 C        3.068    -0.017    28.371     8.734
    25   6 C        3.068    -0.017    28.371     8.734
    26   6 C        2.912    -0.033    28.819     8.803
    27   6 C        2.920    -0.041    29.025     8.835
    28   6 C        2.924    -0.034    28.841     8.807
    29   6 C        2.910    -0.051    29.275     8.872
    30   6 C        3.077     0.046    26.885     8.501
    31   6 C        2.915    -0.046    29.147     8.853
    32   6 C        3.068    -0.014    28.298     8.723
    33   6 C        3.068    -0.014    28.298     8.723
    34   6 C        2.915    -0.046    29.147     8.853
    35   6 C        2.913     0.056    26.748     8.481
    36   7 N        2.803    -0.044    22.090     6.980
    37   6 C        3.077     0.046    26.883     8.501
    38   6 C        2.910    -0.051    29.272     8.872
    39   6 C        2.924    -0.033    28.834     8.806
    40   6 C        2.920    -0.041    29.021     8.834
    41   6 C        2.912    -0.033    28.819     8.803
    42   6 C        3.069    -0.017    28.371     8.734
    43   6 C        3.068    -0.017    28.369     8.734
    44   6 C        2.912    -0.033    28.819     8.803
    45   6 C        2.920    -0.041    29.028     8.835
    46   6 C        2.924    -0.034    28.845     8.808
    47   6 C        2.910    -0.051    29.278     8.873
    48   6 C        3.077     0.046    26.885     8.501
    49   6 C        2.927    -0.045    29.116     8.849
    50   6 C        2.909    -0.049    29.222     8.864
    51   6 C        3.075     0.044    26.947     8.511
    52   6 C        2.920    -0.042    29.037     8.837
    53   6 C        2.924    -0.017    28.442     8.746
    54   1 H        0.926     0.035     2.514     2.480
    55   1 H        0.926     0.038     2.482     2.464
    56   1 H        0.926     0.039     2.460     2.453
    57   1 H        0.926     0.041     2.440     2.443
    58   1 H        0.926     0.055     2.262     2.352
    59   1 H        0.926     0.044     2.402     2.424
    60   1 H        0.926     0.046     2.368     2.406
    61   1 H        0.926     0.036     2.502     2.473
    62   1 H        0.926     0.044     2.394     2.420
    63   1 H        0.926     0.026     2.647     2.544
    64   1 H        0.926     0.028     2.613     2.528
    65   1 H        0.926     0.027     2.625     2.533
    66   1 H        0.926     0.030     2.580     2.512
    67   1 H        0.926     0.030     2.581     2.512
    68   1 H        0.926     0.027     2.625     2.533
    69   1 H        0.926     0.028     2.613     2.528
    70   1 H        0.926     0.025     2.652     2.547
    71   1 H        0.926     0.045     2.378     2.411
    72   1 H        0.926     0.045     2.378     2.412
    73   1 H        0.926     0.026     2.641     2.541
    74   1 H        0.926     0.028     2.608     2.525
    75   1 H        0.926     0.027     2.622     2.532
    76   1 H        0.926     0.030     2.581     2.512
    77   1 H        0.926     0.030     2.580     2.512
    78   1 H        0.926     0.027     2.627     2.535
    79   1 H        0.926     0.027     2.623     2.533
    80   1 H        0.926     0.025     2.663     2.552
    81   1 H        0.926     0.044     2.395     2.420
    82   1 H        0.926     0.036     2.497     2.471
    83   1 H        0.926     0.049     2.333     2.389
    84   1 H        0.926     0.062     2.178     2.308

molecular dipole:
                 x           y           z       tot (Debye)
 q only:        0.778       0.180       0.897
   full:        0.918       0.201       1.019       3.524

 projected vibrational frequencies (cm⁻¹)
eigval :       -0.00    -0.00    -0.00     0.00     0.00     0.00
eigval :       10.83    13.26    16.27    16.60    21.03    24.73
eigval :       35.36    38.53    42.38    51.69    69.80    85.36
eigval :       91.96   102.85   105.68   116.26   117.83   125.79
eigval :      132.18   145.03   146.40   158.10   173.73   188.94
eigval :      206.60   213.68   230.65   249.07   266.84   271.49
eigval :      271.98   275.32   279.83   297.58   338.27   344.45
eigval :      350.20   367.55   370.62   375.22   383.48   392.82
eigval :      395.94   403.03   406.85   422.44   423.30   428.40
eigval :      435.26   438.39   444.96   468.02   479.34   492.46
eigval :      517.87   518.31   528.48   530.28   538.90   541.25
eigval :      541.29   549.50   562.38   564.78   586.07   586.82
eigval :      589.99   593.99   602.54   616.79   623.15   636.89
eigval :      644.07   648.17   664.17   673.52   673.78   676.37
eigval :      682.60   703.38   705.52   707.69   709.13   712.63
eigval :      720.60   753.02   755.65   757.14   769.15   769.32
eigval :      775.45   780.54   780.65   815.42   822.34   827.30
eigval :      834.03   866.78   866.99   871.53   872.64   877.78
eigval :      881.12   886.16   886.54   890.53   897.47   898.26
eigval :      901.35   901.65   903.54   904.24   904.74   911.36
eigval :      914.75   916.30   922.78   922.87   923.44   924.10
eigval :      929.45   932.55   934.81   938.76   948.41   960.22
eigval :      994.47   997.71  1012.17  1012.79  1024.97  1033.24
eigval :     1070.13  1070.16  1073.58  1073.64  1080.71  1106.01
eigval :     1112.87  1119.59  1131.29  1133.77  1151.23  1152.30
eigval :     1154.96  1169.89  1174.60  1175.28  1178.28  1181.09
eigval :     1181.48  1181.51  1183.32  1184.76  1192.31  1204.83
eigval :     1220.66  1229.58  1235.64  1237.20  1240.08  1246.07
eigval :     1259.19  1262.36  1271.24  1277.47  1288.78  1300.83
eigval :     1301.86  1306.20  1307.03  1320.70  1323.13  1341.34
eigval :     1347.05  1347.53  1357.81  1358.70  1364.06  1364.64
eigval :     1375.64  1387.09  1404.69  1417.01  1426.73  1428.55
eigval :     1428.78  1429.58  1436.85  1446.09  1462.70  1474.28
eigval :     1475.84  1480.50  1486.90  1488.93  1488.99  1494.81
eigval :     1556.40  1565.66  1572.36  1574.87  1577.65  1580.33
eigval :     1586.75  1589.27  1589.70  1591.74  1598.05  1599.50
eigval :     1599.86  1614.32  1615.34  1616.15  1694.02  3074.58
eigval :     3075.09  3075.10  3075.43  3075.67  3080.07  3080.11
eigval :     3080.16  3081.23  3081.29  3084.09  3086.27  3086.77
eigval :     3086.92  3088.56  3088.65  3089.43  3090.34  3091.56
eigval :     3092.84  3094.43  3094.50  3096.16  3096.28  3096.91
eigval :     3098.06  3099.63  3100.93  3101.68  3101.93  3102.97

   temp. (K)  partition function   enthalpy   heat capacity  entropy
                                   cal/mol     cal/K/mol   cal/K/mol   J/K/mol
 298.15  VIB  0.432E+19            23731.443    151.797    146.505
         ROT  0.159E+09              888.752      2.981     40.515
         INT  0.689E+27            24620.196    154.777    187.020
         TR   0.171E+29             1481.254      4.968     45.402
         TOT                       26101.4495   159.7456   232.4212   972.4502

       T/K    H(0)-H(T)+PV         H(T)/Eh          T*S/Eh         G(T)/Eh
   ------------------------------------------------------------------------
    298.15    0.415953E-01    0.682130E+00    0.110431E+00    0.571699E+00
   ------------------------------------------------------------------------

         :::::::::::::::::::::::::::::::::::::::::::::::::::::
         ::                  THERMODYNAMIC                  ::
         :::::::::::::::::::::::::::::::::::::::::::::::::::::
         :: total free energy        -133.095302172857 Eh   ::
         ::.................................................::
         :: total energy             -133.667001441583 Eh   ::
         :: zero point energy           0.640534765560 Eh   ::
         :: G(RRHO) w/o ZPVE           -0.068835496833 Eh   ::
         :: G(RRHO) contrib.            0.571699268727 Eh   ::
         :::::::::::::::::::::::::::::::::::::::::::::::::::::

           -------------------------------------------------
          | TOTAL ENERGY             -133.667001441583 Eh   |
          | TOTAL ENTHALPY           -132.984871368616 Eh   |
          | TOTAL FREE ENERGY        -133.095302172857 Eh   |
          | GRADIENT NORM               0.000061065481 Eh/α |
          | HOMO-LUMO GAP               1.708458822883 eV   |
           -------------------------------------------------

 * finished run on 2025/09/14 at 05:33:58.149
