   * xtb version 6.7.1 (edcfbbe) compiled by 'albert@albert-system' on 2024-07-22

   ID    Z sym.   atoms
    1    8 O      1
    2    6 C      2-12, 14-17, 19-35, 37-53
    3    7 N      13, 18, 36
    4    1 H      54-84

          program call               : xtb data2507/gas/CCDC/CCDC_gas_T1_crest.xyz --gfn 2 --spinpol --tblite --uhf 2 --ohess vtight --parallel 40 --molden --ceasefiles --namespace data2507/gas/CCDC/CCDC_gas_T1_finalOpt
 * total energy  :  -133.5852426 Eh     change       -0.3774628E-07 Eh
 * total energy  :  -133.5854086 Eh     change       -0.1659837E-03 Eh
 * total energy  :  -133.5854782 Eh     change       -0.6958921E-04 Eh
 * total energy  :  -133.5854866 Eh     change       -0.8345879E-05 Eh
 * total energy  :  -133.5854939 Eh     change       -0.7307387E-05 Eh
 * total energy  :  -133.5855010 Eh     change       -0.7125008E-05 Eh
 * total energy  :  -133.5855103 Eh     change       -0.9274810E-05 Eh
 * total energy  :  -133.5855209 Eh     change       -0.1063004E-04 Eh
 * total energy  :  -133.5855308 Eh     change       -0.9857420E-05 Eh
 * total energy  :  -133.5855392 Eh     change       -0.8472867E-05 Eh
 * total energy  :  -133.5855622 Eh     change       -0.2212709E-06 Eh
 * total energy  :  -133.5855624 Eh     change       -0.2135918E-06 Eh
 * total energy  :  -133.5855627 Eh     change       -0.2344383E-06 Eh
 * total energy  :  -133.5855629 Eh     change       -0.2286225E-06 Eh
 * total energy  :  -133.5855629 Eh     change       -0.5279190E-08 Eh
 * total energy  :  -133.5855630 Eh     change       -0.1333263E-06 Eh
 * total energy  :  -133.5855632 Eh     change       -0.1140291E-06 Eh
 * total energy  :  -133.5855632 Eh     change       -0.2705508E-07 Eh
 * total energy  :  -133.5855632 Eh     change       -0.2853386E-07 Eh
   *** GEOMETRY OPTIMIZATION CONVERGED AFTER 38 ITERATIONS ***

 final structure:
================
84
 xtb: 6.7.1 (edcfbbe)
O            6.95361718829864        3.48688434584803        0.88914219271497
C            6.68941616802175        2.40443441069262        0.29026593158568
C            7.78481498068427        1.66523052613982       -0.35548772853763
C            7.81930044026687        0.26820603723873       -0.38436437496442
C            8.88290390966314       -0.38552936224603       -0.97391024046870
C            9.93166497248242        0.33247084889424       -1.52907660147142
C            9.92081668338744        1.71799867233773       -1.46895436576814
C            8.86613138551281        2.38234147988965       -0.87867752714116
C            5.34358293140549        1.91052557886190        0.21856020896614
C            4.37687146742185        2.48173828949829        1.08385059490362
C            3.07533941036368        2.06346294286807        1.06310770448355
C            2.66223453089367        1.07713501172046        0.15642227772383
N            1.32949593176950        0.64283462656672        0.13452193172591
C            0.90885002357669       -0.66553430196151        0.15039890657481
C            1.65344246725705       -1.83711779537256        0.21827415569288
C            0.97808350788872       -3.03829248337642        0.23312911809005
C           -0.42396334954437       -3.08913557989826        0.19397218560010
N           -1.07018629427891       -4.33048996230075        0.19984272117658
C           -0.81999891907084       -5.37309212672005        1.07020219608690
C            0.04906168285044       -5.43429488301833        2.15076919275277
C            0.08432508964660       -6.60517251352076        2.88439095809397
C           -0.72890527065923       -7.68929404429218        2.56375521360538
C           -1.61635622870739       -7.62414496979875        1.50640671431451
C           -1.66935392808293       -6.45905322232482        0.75509346261132
C           -2.46637613574303       -6.04196283931518       -0.36638575062144
C           -3.44866553956643       -6.66438471345898       -1.12296740128511
C           -4.01243857083934       -5.96908716080262       -2.17588527289971
C           -3.59523867556639       -4.67731454795806       -2.48671782338557
C           -2.61751715664285       -4.03747563865217       -1.74842980126148
C           -2.06639929402565       -4.72075836825501       -0.67327961685235
C           -1.17555941279359       -1.92048533463710        0.15371401037070
C           -0.50983240333706       -0.70654943237419        0.13382925108228
C           -0.95148730204318        0.65780154677172        0.10690934853107
C           -2.20196945294132        1.25189130741028        0.07858908901171
C           -2.27606335249048        2.63895004812099        0.02259751957876
N           -3.52513767831278        3.26840340288536       -0.01026497295544
C           -4.57340212350555        2.93794823897735       -0.84649041774481
C           -4.63517335868992        1.98450106975747       -1.85333856213042
C           -5.81300234322908        1.87686069823283       -2.56868616040048
C           -6.90338107893812        2.70104440845852       -2.30230777760067
C           -6.83828778175072        3.67096845931886       -1.31988310495821
C           -5.66671692744950        3.79682300928132       -0.58774114271869
C           -5.24849407113922        4.68425375612110        0.46337483967857
C           -5.87623964488668        5.71503456079524        1.14744897476113
C           -5.17855897868935        6.36648828437881        2.14693041492464
C           -3.87926526098011        5.98917383653733        2.47685325787254
C           -3.23373818769003        4.96498944978285        1.80992784329857
C           -3.91958562352457        4.32508154418921        0.78687536432203
C           -1.10896709529354        3.41836019182514       -0.01614461930713
C            0.14144360364800        2.84118122467498        0.02271725193490
C            0.22233475981270        1.45561248955358        0.10194516993227
C            3.59241510523280        0.54717894337489       -0.74716438494724
C            4.89907470450120        0.96051103416379       -0.72785669598199
H            7.03186219393455       -0.30200890934893        0.08597455884811
H            8.90028944629620       -1.46620645030397       -0.98956294108178
H           10.75919920074596       -0.18614489775554       -1.99001050966024
H           10.74285533044030        2.28352992695129       -1.88371278585325
H            8.85148942568085        3.46012742174506       -0.82349107206064
H            4.70918420611516        3.23453626264969        1.78197226467561
H            2.36110698665173        2.46627159780395        1.76678046736245
H            2.73098847555811       -1.81015623419141        0.25600389431709
H            1.53090100257828       -3.96471251344367        0.25488827533402
H            0.66869113949895       -4.59275909477085        2.42051282510708
H            0.75485271018341       -6.67888608788061        3.72754709152799
H           -0.66954897187662       -8.58791209270056        3.15917897991802
H           -2.26005024722005       -8.45764312240312        1.26978154400658
H           -3.75950911794443       -7.67224588541445       -0.89367435818809
H           -4.78048040130409       -6.43422343391676       -2.77536050080424
H           -4.04207622644733       -4.16547503399027       -3.32604402727927
H           -2.28592560396260       -3.04428579216965       -2.01084370185113
H           -2.25373076563117       -1.96306153991085        0.16592890133883
H           -3.10101603568658        0.65669822593988        0.12034881670048
H           -3.78812763605639        1.35620360312610       -2.08329274867532
H           -5.88716736272389        1.14027322007483       -3.35482108814537
H           -7.80698050983143        2.58464457157763       -2.88157522244270
H           -7.67698516678848        4.32228379345062       -1.12666063457022
H           -6.88973006207547        5.99575318377865        0.90442238822653
H           -5.64755542359011        7.17356592805501        2.68933228534096
H           -3.36548272519608        6.50538776466698        3.27396744566135
H           -2.23385118238452        4.66739278804283        2.08640219188294
H           -1.20356954118311        4.48946945124482       -0.10652633183684
H            1.03158994000603        3.44786380923830       -0.03300211990817
H            3.25865436904074       -0.16280090289714       -1.49066405815369
H            5.58367614889981        0.58399213956973       -1.47210134203903

 projected vibrational frequencies (cm⁻¹)
eigval :       -0.00    -0.00    -0.00     0.00     0.00     0.00
eigval :       11.59    15.01    16.59    17.07    21.42    24.49
eigval :       37.01    42.17    44.30    58.80    65.42    88.01
eigval :       95.76   104.11   110.26   114.79   117.27   128.21
eigval :      131.44   143.98   149.93   166.72   174.77   203.49
eigval :      208.04   222.66   225.41   256.41   265.66   270.17
eigval :      273.10   275.54   282.28   305.53   316.58   330.21
eigval :      347.73   366.34   373.41   379.86   388.47   394.12
eigval :      397.12   400.12   402.41   420.67   421.62   428.47
eigval :      433.05   436.77   439.34   455.41   461.80   491.63
eigval :      516.64   516.85   525.32   530.94   534.55   539.19
eigval :      539.31   539.85   552.75   555.88   563.24   581.09
eigval :      585.67   588.08   592.64   601.83   607.84   616.75
eigval :      627.97   643.62   649.42   657.30   661.20   674.17
eigval :      674.52   682.15   703.13   706.25   707.11   710.59
eigval :      714.15   743.25   752.27   754.97   756.43   769.45
eigval :      769.92   779.89   780.17   801.65   814.07   826.86
eigval :      829.16   843.10   863.53   865.38   865.91   873.18
eigval :      873.43   882.14   882.22   886.11   887.91   889.63
eigval :      897.53   897.68   901.45   902.74   905.28   905.69
eigval :      906.50   911.29   918.05   919.59   920.34   922.65
eigval :      922.93   925.54   925.95   930.69   938.32   957.74
eigval :      979.03   993.10  1001.19  1011.84  1012.85  1029.50
eigval :     1069.92  1069.97  1073.16  1073.24  1077.71  1103.88
eigval :     1112.03  1116.71  1127.61  1131.43  1144.46  1149.04
eigval :     1149.63  1163.82  1165.43  1168.85  1174.61  1177.71
eigval :     1180.08  1180.36  1181.83  1184.37  1185.63  1205.03
eigval :     1219.49  1226.81  1230.04  1233.82  1235.22  1242.91
eigval :     1243.26  1256.97  1258.56  1275.54  1281.68  1294.61
eigval :     1295.41  1297.01  1297.43  1323.37  1328.35  1331.00
eigval :     1344.52  1349.28  1354.82  1357.85  1358.68  1359.89
eigval :     1363.45  1380.39  1412.58  1413.65  1416.13  1420.95
eigval :     1421.45  1423.06  1428.67  1431.67  1436.30  1444.71
eigval :     1452.30  1463.33  1467.84  1468.91  1472.74  1485.28
eigval :     1485.60  1488.19  1547.14  1548.07  1552.61  1557.32
eigval :     1570.42  1572.21  1573.03  1576.70  1583.58  1585.90
eigval :     1588.76  1589.94  1590.48  1607.44  1609.12  3066.51
eigval :     3071.49  3072.07  3074.59  3079.90  3080.27  3081.08
eigval :     3081.60  3081.72  3084.94  3085.30  3086.37  3086.82
eigval :     3088.39  3091.61  3092.09  3093.47  3093.70  3093.90
eigval :     3095.99  3096.38  3097.03  3098.64  3098.93  3099.40
eigval :     3099.49  3099.73  3099.91  3100.21  3106.41  3107.20

   temp. (K)  partition function   enthalpy   heat capacity  entropy
                                   cal/mol     cal/K/mol   cal/K/mol   J/K/mol
 298.15  VIB  0.253E+19            23834.120    153.328    146.554
         ROT  0.160E+09              888.752      2.981     40.516
         INT  0.403E+27            24722.872    156.309    187.069
         TR   0.171E+29             1481.254      4.968     45.402
         TOT                       26204.1262   161.2770   232.4708   972.6579

       T/K    H(0)-H(T)+PV         H(T)/Eh          T*S/Eh         G(T)/Eh
   ------------------------------------------------------------------------
    298.15    0.417589E-01    0.679096E+00    0.110454E+00    0.568642E+00
   ------------------------------------------------------------------------

         :::::::::::::::::::::::::::::::::::::::::::::::::::::
         ::                  THERMODYNAMIC                  ::
         :::::::::::::::::::::::::::::::::::::::::::::::::::::
         :: total free energy        -133.016921394988 Eh   ::
         ::.................................................::
         :: total energy             -133.585563278830 Eh   ::
         :: zero point energy           0.637337335441 Eh   ::
         :: G(RRHO) w/o ZPVE           -0.068695451599 Eh   ::
         :: G(RRHO) contrib.            0.568641883842 Eh   ::
         :::::::::::::::::::::::::::::::::::::::::::::::::::::

           -------------------------------------------------
          | TOTAL ENERGY             -133.585563278830 Eh   |
          | TOTAL ENTHALPY           -132.906467010201 Eh   |
          | TOTAL FREE ENERGY        -133.016921394988 Eh   |
          | GRADIENT NORM               0.000083199044 Eh/α |
           -------------------------------------------------

 * finished run on 2025/09/14 at 05:47:19.911
