   * xtb version 6.7.1 (edcfbbe) compiled by 'albert@albert-system' on 2024-07-22

   ID    Z sym.   atoms
    1    8 O      1
    2    6 C      2-12, 14-17, 19-35, 37-53
    3    7 N      13, 18, 36
    4    1 H      54-84

          program call               : xtb data2507/gas/CCDC/CCDC_gas_S0_crest.xyz --gfn 2 --ohess vtight --parallel 40 --molden --ceasefiles --namespace data2507/gas/CCDC/CCDC_gas_S0_finalOpt
          :  Hamiltonian                  GFN2-xTB          :
 * total energy  :  -133.6673301 Eh     change       -0.1976218E-08 Eh
 * total energy  :  -133.6673311 Eh     change       -0.1002017E-05 Eh
 * total energy  :  -133.6673321 Eh     change       -0.9902777E-06 Eh
 * total energy  :  -133.6673335 Eh     change       -0.1458091E-05 Eh
 * total energy  :  -133.6673341 Eh     change       -0.5147862E-06 Eh
 * total energy  :  -133.6673341 Eh     change       -0.5080935E-07 Eh
 * total energy  :  -133.6673348 Eh     change       -0.6824444E-06 Eh
 * total energy  :  -133.6673356 Eh     change       -0.8393404E-06 Eh
 * total energy  :  -133.6673355 Eh     change        0.8838379E-07 Eh
 * total energy  :  -133.6673361 Eh     change       -0.5107592E-06 Eh
 * total energy  :  -133.6673373 Eh     change       -0.5739522E-06 Eh
 * total energy  :  -133.6673378 Eh     change       -0.4808842E-06 Eh
 * total energy  :  -133.6673382 Eh     change       -0.3777863E-06 Eh
 * total energy  :  -133.6673384 Eh     change       -0.2310468E-06 Eh
 * total energy  :  -133.6673386 Eh     change       -0.1815217E-06 Eh
 * total energy  :  -133.6673388 Eh     change       -0.2168057E-06 Eh
 * total energy  :  -133.6673391 Eh     change       -0.2363589E-06 Eh
 * total energy  :  -133.6673393 Eh     change       -0.2198405E-06 Eh
 * total energy  :  -133.6673393 Eh     change       -0.4824983E-08 Eh
   *** GEOMETRY OPTIMIZATION CONVERGED AFTER 22 ITERATIONS ***

 final structure:
================
84
 xtb: 6.7.1 (edcfbbe)
O            6.65288400035670       -4.08331551272186        1.04708184426638
C            6.50486713152037       -2.93373521320217        0.68258991407746
C            7.66350065304231       -2.06065098580621        0.36521084477646
C            8.81208364579729       -2.64231973255808       -0.16746311440803
C            9.91733209754653       -1.86564137269294       -0.45755631291087
C            9.89422390815960       -0.50470893336027       -0.19699932959764
C            8.76524669480761        0.07632415027998        0.35825988537208
C            7.65092636539218       -0.69390751555270        0.63599560617574
C            5.15334379206044       -2.33732150178532        0.53496659552680
C            4.12615603852699       -2.79872172200641        1.35721242785864
C            2.85162268427143       -2.28516957374459        1.24828326971096
C            2.57263492794145       -1.31552895462991        0.28596171211717
N            1.28217169725582       -0.79294325861335        0.16404078225953
C            0.11161821524064       -1.52594774326280        0.10761941522642
C           -0.07645742054721       -2.90102121042603        0.09640262444020
C           -1.36805032319030       -3.37923079975172        0.01374871838984
C           -2.46452359825317       -2.51319779289053       -0.08414413976048
N           -3.76066632870345       -3.04472760228262       -0.15597116725282
C           -4.82491944801776       -2.67561531483915        0.64203492086099
C           -4.87414261187198       -1.75741505419306        1.68122688208227
C           -6.07692306718503       -1.59354853569620        2.34088250738951
C           -7.20705891724919       -2.32732549676017        1.98668824708660
C           -7.15876298212106       -3.25756189574761        0.96799449957699
C           -5.96089592967472       -3.44009362490927        0.28952734152520
C           -5.55295058700409       -4.30689234289079       -0.78003507254569
C           -6.21459205332170       -5.26076639396577       -1.54206876097328
C           -5.51464395688476       -5.91616265003745       -2.53501838202078
C           -4.17588551516992       -5.62011303768779       -2.78243486555121
C           -3.49582008091530       -4.67585901642509       -2.03770255183280
C           -4.18733924794252       -4.03093945642589       -1.02207029614744
C           -2.27804979336499       -1.13870138028169       -0.11205627255136
C           -0.98672782220438       -0.64408771620345       -0.01187037144435
C           -0.44464628103271        0.68551288356501       -0.01937155891684
C           -1.02435669762441        1.94266413604742       -0.09753563981917
C           -0.19948242235006        3.05653053991401       -0.03892965839182
N           -0.75259615100020        4.34411554279311       -0.10408327066025
C           -0.34441633414661        5.35674295333078       -0.94801295982766
C            0.63227892603787        5.34630717249869       -1.93367736462969
C            0.82686908511947        6.50440041133673       -2.66142122725270
C            0.06654211817251        7.64798315727547       -2.42639242651169
C           -0.92189973658587        7.65746654705588       -1.46284870717572
C           -1.13642218209563        6.50535864490888       -0.71790924429807
C           -2.06385617650535        6.15909870903735        0.32210467443758
C           -3.06726344881376        6.85877678085730        0.97951951904304
C           -3.77901459199696        6.21744481426851        1.97319584642837
C           -3.49156965094707        4.90003197103020        2.32382070039104
C           -2.49831939713921        4.18333843183782        1.68473324559594
C           -1.79422974921426        4.81526354437730        0.66961977297139
C            1.18617664050756        2.91059991942386        0.10401770547454
C            1.77757039293366        1.66572565001609        0.16526654216813
C            0.95806802650374        0.54814625905395        0.08779986908412
C            3.58886651429942       -0.87375548724633       -0.56042749198524
C            4.86813227586412       -1.37414717520159       -0.43159566090612
H            8.81472472028238       -3.70591208577479       -0.35411904477509
H           10.80032141019917       -2.32046155588297       -0.88119645543912
H           10.75919062356188        0.10279606720710       -0.41869293665048
H            8.75462505749908        1.13410970170715        0.57657063500267
H            6.77956013275211       -0.24185479076856        1.08740603874775
H            4.35451526320827       -3.55441635333012        2.09375996492488
H            2.06914601501978       -2.61712872437669        1.91358547965080
H            0.75757741778398       -3.58355275419854        0.14813419992330
H           -1.54690304131945       -4.44339676656248        0.03367705364573
H           -3.99950468196725       -1.19600889432686        1.97411196011124
H           -6.14178883192508       -0.88252483986663        3.15142216030493
H           -8.12943275592036       -2.16807533302425        2.52521907487754
H           -8.03049334826418       -3.83660754536968        0.70279045289829
H           -7.25631640493562       -5.47853685221418       -1.36050109240540
H           -6.00971059087952       -6.66313751230858       -3.13757606122291
H           -3.65883241923237       -6.13787115982786       -3.57699478231782
H           -2.46336798296282       -4.44079103778631       -2.24900532953159
H           -3.12005629418020       -0.47353157928957       -0.22433900001817
H           -2.09165655550949        2.05541720501069       -0.20709983612546
H            1.21462504057627        4.45952806647337       -2.13483363480017
H            1.58297583427005        6.52251111387423       -3.43267228712596
H            0.25099949087225        8.53415023452667       -3.01531223869275
H           -1.52141153199171        8.53871008859837       -1.29098014782521
H           -3.27964272330144        7.88438706250639        0.71767076078640
H           -4.56510402185200        6.74261641473285        2.49508534876142
H           -4.05598868907422        4.42928622969269        3.11534494902279
H           -2.27141749785979        3.16866420004665        1.97592927486833
H            1.79552930718216        3.79796276075240        0.18393967325378
H            2.84494009501189        1.57228654437466        0.29362922342758
H            3.36165810310631       -0.15231401029276       -1.33080990970343
H            5.64321545556530       -1.04087870221336       -1.10579652361736

          :  Hamiltonian                  GFN2-xTB          :
         :: gradient norm              0.000045819995 Eh/a0 ::
         :: HOMO-LUMO gap              1.707989357220 eV    ::
         :: SCC energy              -136.148961710054 Eh    ::
         :: -> dispersion             -0.118464348005 Eh    ::
         :: repulsion energy           2.481622431735 Eh    ::

    * Orbital Energies and Occupations

         #    Occupation            Energy/Eh            Energy/eV
      -------------------------------------------------------------
         1        2.0000           -0.7084794             -19.2787
       ...           ...                  ...                  ...
       112        2.0000           -0.4168804             -11.3439
       113        2.0000           -0.4160926             -11.3225
       114        2.0000           -0.4157786             -11.3139
       115        2.0000           -0.4149554             -11.2915
       116        2.0000           -0.4034094             -10.9773
       117        2.0000           -0.4023438             -10.9483
       118        2.0000           -0.3959615             -10.7747
       119        2.0000           -0.3948139             -10.7434
       120        2.0000           -0.3838839             -10.4460
       121        2.0000           -0.3766928             -10.2503
       122        2.0000           -0.3756221             -10.2212
       123        2.0000           -0.3615182              -9.8374
       124        2.0000           -0.3564085              -9.6984 (HOMO)
       125                         -0.2936411              -7.9904 (LUMO)
       126                         -0.2621765              -7.1342
       127                         -0.2489312              -6.7738
       128                         -0.2477175              -6.7407
       129                         -0.2453180              -6.6754
       130                         -0.2423864              -6.5957
       131                         -0.2388321              -6.4990
       132                         -0.2378089              -6.4711
       133                         -0.2199772              -5.9859
       134                         -0.2189048              -5.9567
       135                         -0.2170732              -5.9069
       ...                                ...                  ...
       243                          0.7491500              20.3854
      -------------------------------------------------------------
                  HL-Gap            0.0627675 Eh            1.7080 eV

     #   Z          covCN         q      C6AA      α(0)
     1   8 O        0.858    -0.368    21.055     6.152
     2   6 C        2.828     0.225    23.265     7.904
     3   6 C        2.973    -0.011    28.296     8.725
     4   6 C        2.925    -0.017    28.442     8.746
     5   6 C        2.918    -0.026    28.654     8.778
     6   6 C        2.920    -0.023    28.575     8.766
     7   6 C        2.918    -0.027    28.683     8.783
     8   6 C        2.921    -0.027    28.669     8.780
     9   6 C        2.972    -0.015    28.375     8.738
    10   6 C        2.924    -0.017    28.440     8.745
    11   6 C        2.920    -0.042    29.050     8.839
    12   6 C        2.913     0.069    26.460     8.435
    13   7 N        2.802    -0.036    21.945     6.958
    14   6 C        3.074     0.043    26.949     8.511
    15   6 C        2.909    -0.049    29.218     8.863
    16   6 C        2.926    -0.045    29.119     8.849
    17   6 C        2.913     0.056    26.743     8.480
    18   7 N        2.803    -0.044    22.088     6.980
    19   6 C        3.077     0.046    26.884     8.501
    20   6 C        2.910    -0.051    29.272     8.872
    21   6 C        2.924    -0.034    28.837     8.806
    22   6 C        2.920    -0.041    29.024     8.835
    23   6 C        2.913    -0.033    28.819     8.803
    24   6 C        3.068    -0.017    28.369     8.734
    25   6 C        3.068    -0.017    28.370     8.734
    26   6 C        2.912    -0.033    28.819     8.803
    27   6 C        2.920    -0.041    29.024     8.835
    28   6 C        2.924    -0.034    28.839     8.807
    29   6 C        2.910    -0.051    29.276     8.872
    30   6 C        3.076     0.046    26.886     8.501
    31   6 C        2.915    -0.046    29.143     8.852
    32   6 C        3.068    -0.014    28.299     8.723
    33   6 C        3.068    -0.014    28.294     8.722
    34   6 C        2.915    -0.046    29.146     8.853
    35   6 C        2.913     0.056    26.750     8.481
    36   7 N        2.803    -0.044    22.089     6.980
    37   6 C        3.077     0.046    26.886     8.501
    38   6 C        2.910    -0.051    29.278     8.873
    39   6 C        2.924    -0.034    28.845     8.808
    40   6 C        2.920    -0.041    29.027     8.835
    41   6 C        2.912    -0.033    28.819     8.803
    42   6 C        3.068    -0.017    28.370     8.734
    43   6 C        3.068    -0.017    28.371     8.734
    44   6 C        2.912    -0.033    28.818     8.803
    45   6 C        2.920    -0.041    29.022     8.834
    46   6 C        2.924    -0.033    28.834     8.806
    47   6 C        2.910    -0.051    29.272     8.872
    48   6 C        3.077     0.046    26.885     8.501
    49   6 C        2.927    -0.045    29.125     8.850
    50   6 C        2.909    -0.049    29.226     8.865
    51   6 C        3.075     0.043    26.952     8.512
    52   6 C        2.921    -0.043    29.062     8.840
    53   6 C        2.920    -0.026    28.651     8.778
    54   1 H        0.926     0.055     2.262     2.352
    55   1 H        0.926     0.041     2.440     2.443
    56   1 H        0.926     0.039     2.461     2.453
    57   1 H        0.926     0.037     2.484     2.464
    58   1 H        0.926     0.035     2.521     2.483
    59   1 H        0.926     0.062     2.180     2.309
    60   1 H        0.926     0.049     2.333     2.389
    61   1 H        0.926     0.038     2.471     2.458
    62   1 H        0.926     0.045     2.382     2.414
    63   1 H        0.926     0.026     2.650     2.546
    64   1 H        0.926     0.028     2.612     2.527
    65   1 H        0.926     0.027     2.624     2.533
    66   1 H        0.926     0.030     2.581     2.512
    67   1 H        0.926     0.030     2.580     2.512
    68   1 H        0.926     0.027     2.625     2.534
    69   1 H        0.926     0.028     2.614     2.528
    70   1 H        0.926     0.026     2.648     2.544
    71   1 H        0.926     0.045     2.380     2.413
    72   1 H        0.926     0.046     2.376     2.410
    73   1 H        0.926     0.025     2.661     2.551
    74   1 H        0.926     0.027     2.622     2.532
    75   1 H        0.926     0.027     2.627     2.534
    76   1 H        0.926     0.030     2.579     2.511
    77   1 H        0.926     0.030     2.580     2.512
    78   1 H        0.926     0.028     2.621     2.532
    79   1 H        0.926     0.029     2.607     2.525
    80   1 H        0.926     0.026     2.645     2.543
    81   1 H        0.926     0.044     2.402     2.424
    82   1 H        0.926     0.035     2.519     2.482
    83   1 H        0.926     0.046     2.367     2.406
    84   1 H        0.926     0.043     2.403     2.424

molecular dipole:
                 x           y           z       tot (Debye)
 q only:        0.919       0.645      -0.263
   full:        1.085       0.733      -0.302       3.415

 projected vibrational frequencies (cm⁻¹)
eigval :       -0.00    -0.00     0.00     0.00     0.00     0.00
eigval :       10.95    15.35    15.99    16.39    20.72    21.75
eigval :       34.99    40.03    42.58    57.03    61.57    85.74
eigval :       91.32   103.50   107.14   114.42   117.15   128.42
eigval :      131.67   143.77   147.70   161.38   168.08   191.88
eigval :      207.81   216.47   224.14   253.18   260.31   271.26
eigval :      272.24   275.64   281.57   306.28   331.69   339.06
eigval :      355.85   367.61   368.65   382.33   386.67   393.27
eigval :      398.65   402.57   405.30   422.34   423.12   430.57
eigval :      435.87   436.67   440.72   468.21   478.91   492.45
eigval :      518.00   518.09   528.24   529.75   541.18   541.25
eigval :      545.37   549.98   554.58   563.31   586.05   586.79
eigval :      588.97   598.09   608.89   614.25   621.86   629.81
eigval :      645.82   649.90   664.97   673.55   673.83   677.26
eigval :      682.23   704.29   705.86   707.47   709.25   712.81
eigval :      720.19   752.87   755.71   757.17   768.99   769.43
eigval :      775.71   780.42   780.71   815.51   822.21   826.95
eigval :      834.28   866.34   867.07   871.51   872.98   877.28
eigval :      880.85   885.49   886.87   890.78   897.65   898.12
eigval :      901.39   901.72   903.48   903.78   904.48   911.56
eigval :      914.60   916.00   922.41   922.80   923.48   924.18
eigval :      929.28   932.19   934.67   938.33   948.92   960.40
eigval :      994.54   997.85  1012.15  1013.00  1024.92  1033.55
eigval :     1070.15  1070.21  1073.61  1073.66  1080.76  1106.34
eigval :     1113.02  1119.52  1131.28  1134.27  1151.05  1152.56
eigval :     1155.06  1170.07  1175.12  1175.33  1178.75  1181.12
eigval :     1181.31  1181.61  1183.66  1184.54  1192.27  1205.09
eigval :     1220.63  1229.64  1235.77  1237.01  1240.41  1246.24
eigval :     1259.39  1262.64  1271.26  1277.47  1288.42  1300.83
eigval :     1301.65  1305.87  1307.10  1320.54  1322.97  1341.22
eigval :     1347.12  1347.63  1357.88  1358.72  1364.08  1364.69
eigval :     1375.94  1387.06  1405.16  1416.91  1426.70  1428.48
eigval :     1428.74  1429.63  1436.61  1446.03  1462.71  1473.99
eigval :     1475.91  1480.58  1487.15  1488.87  1488.89  1494.99
eigval :     1555.76  1565.47  1572.38  1574.90  1577.66  1580.40
eigval :     1585.32  1589.25  1589.65  1591.77  1598.14  1599.57
eigval :     1599.83  1614.52  1615.30  1616.23  1693.62  3074.69
eigval :     3074.82  3075.08  3075.46  3075.66  3080.04  3080.12
eigval :     3080.19  3081.23  3081.36  3083.86  3086.17  3086.78
eigval :     3087.02  3088.56  3088.76  3089.29  3090.59  3092.49
eigval :     3092.79  3094.46  3094.60  3096.16  3096.32  3096.52
eigval :     3098.11  3099.47  3101.08  3101.14  3102.72  3103.51

   temp. (K)  partition function   enthalpy   heat capacity  entropy
                                   cal/mol     cal/K/mol   cal/K/mol   J/K/mol
 298.15  VIB  0.426E+19            23729.190    151.794    146.512
         ROT  0.158E+09              888.752      2.981     40.493
         INT  0.672E+27            24617.943    154.775    187.005
         TR   0.171E+29             1481.254      4.968     45.402
         TOT                       26099.1965   159.7434   232.4068   972.3902

       T/K    H(0)-H(T)+PV         H(T)/Eh          T*S/Eh         G(T)/Eh
   ------------------------------------------------------------------------
    298.15    0.415917E-01    0.682140E+00    0.110424E+00    0.571716E+00
   ------------------------------------------------------------------------

         :::::::::::::::::::::::::::::::::::::::::::::::::::::
         ::                  THERMODYNAMIC                  ::
         :::::::::::::::::::::::::::::::::::::::::::::::::::::
         :: total free energy        -133.095623397560 Eh   ::
         ::.................................................::
         :: total energy             -133.667339278319 Eh   ::
         :: zero point energy           0.640548147238 Eh   ::
         :: G(RRHO) w/o ZPVE           -0.068832266479 Eh   ::
         :: G(RRHO) contrib.            0.571715880759 Eh   ::
         :::::::::::::::::::::::::::::::::::::::::::::::::::::

           -------------------------------------------------
          | TOTAL ENERGY             -133.667339278319 Eh   |
          | TOTAL ENTHALPY           -132.985199413968 Eh   |
          | TOTAL FREE ENERGY        -133.095623397560 Eh   |
          | GRADIENT NORM               0.000045814641 Eh/α |
          | HOMO-LUMO GAP               1.707989759888 eV   |
           -------------------------------------------------

 * finished run on 2025/09/14 at 05:38:59.673
