   * xtb version 6.7.1 (edcfbbe) compiled by 'albert@albert-system' on 2024-07-22

   ID    Z sym.   atoms
    1    6 C      1-11, 13-38, 40, 42-68
    2    7 N      12, 39, 41
    3    1 H      69-115

          program call               : xtb data2507/toluene/2PCzBN-tPh/2PCzBN-tPh_toluene_S0_finalOpt.xtbopt.xyz --gfn 2 --uhf 2 --gbsa toluene --ohess vtight --parallel 40 --molden --ceasefiles --namespace data2507/toluene/2PCzBN-tPh/2PCzBN-tPh_toluene_T1_preOpt
      * Solvation model:               GBSA
        Solvent                        toluene
        Solvent mass                       9.2140E+01 g/mol
          :  Hamiltonian                  GFN2-xTB          :
 * total energy  :  -171.9546914 Eh     change        0.5846800E-08 Eh
 * total energy  :  -171.9579751 Eh     change       -0.3283665E-02 Eh
 * total energy  :  -171.9594038 Eh     change       -0.1428667E-02 Eh
 * total energy  :  -171.9596120 Eh     change       -0.2082305E-03 Eh
 * total energy  :  -171.9598776 Eh     change       -0.2655494E-03 Eh
 * total energy  :  -171.9600023 Eh     change       -0.1247596E-03 Eh
 * total energy  :  -171.9601623 Eh     change       -0.1600145E-03 Eh
 * total energy  :  -171.9602805 Eh     change       -0.1181920E-03 Eh
 * total energy  :  -171.9603493 Eh     change       -0.6881900E-04 Eh
 * total energy  :  -171.9604014 Eh     change       -0.5206936E-04 Eh
 * total energy  :  -171.9608889 Eh     change       -0.2923005E-06 Eh
 * total energy  :  -171.9608892 Eh     change       -0.3444603E-06 Eh
 * total energy  :  -171.9608896 Eh     change       -0.3917432E-06 Eh
 * total energy  :  -171.9608900 Eh     change       -0.3486996E-06 Eh
 * total energy  :  -171.9608903 Eh     change       -0.3063400E-06 Eh
 * total energy  :  -171.9608906 Eh     change       -0.2885369E-06 Eh
 * total energy  :  -171.9608909 Eh     change       -0.3014221E-06 Eh
 * total energy  :  -171.9608912 Eh     change       -0.3098258E-06 Eh
 * total energy  :  -171.9608912 Eh     change       -0.4261182E-08 Eh
   *** GEOMETRY OPTIMIZATION CONVERGED AFTER 68 ITERATIONS ***

 final structure:
================
115
 xtb: 6.7.1 (edcfbbe)
C           -1.11971954319751       -8.58504317048962       -3.58438285267113
C            0.18595171606993       -7.79583832218639       -3.72162598709149
C            0.48484451503483       -7.62333603666538       -5.21941133936508
C            1.31022301366544       -8.61051221591667       -3.06228717808705
C            0.11556242050171       -6.42845861282077       -3.06696366291210
C           -1.01432227325884       -5.94838466397796       -2.40341389087879
C           -1.04075916220406       -4.70116134622319       -1.82387575146115
C            0.07320563678562       -3.83532353650796       -1.85922790220655
C            0.05133198491097       -2.54247508071814       -1.23870821241251
C            1.24375667178299       -1.82763690649899       -0.93973942485239
C            1.23390892522211       -0.59541577176263       -0.35133586405140
N            2.44243976754418        0.04709592926352       -0.03935143382739
C            3.47035378241540       -0.49430064439458        0.69917491955189
C            3.56958884432511       -1.74308117300412        1.30078401985130
C            4.72648568169554       -2.03822417671423        1.99181618064903
C            5.77899174595091       -1.11818031381156        2.11139182696999
C            6.99681209739184       -1.48218503131377        2.84633022327010
C            7.54242525272758       -2.76115874068842        2.73189303501635
C            8.69296482561983       -3.10109499361299        3.41823591197698
C            9.31685090237038       -2.17340283892382        4.23695486290838
C            8.78321242472529       -0.90054030759961        4.36100563082938
C            7.63655860021312       -0.55589888894521        3.67045688675541
C            5.65847592344903        0.14486892744923        1.53069000684069
C            4.51041988817448        0.45859052813300        0.82789221297659
C            4.07044381439997        1.63492626635194        0.12070947764800
C            4.64215702765001        2.86957391623287       -0.12130706759561
C            3.94066558865312        3.80795795350369       -0.87875117672954
C            4.51590163424462        5.13428007098081       -1.13433209132122
C            5.87301906424362        5.28165965885538       -1.42151871769156
C            6.40931681685969        6.53198139127469       -1.66600282926678
C            5.60316361933489        7.65810226209415       -1.61916277743666
C            4.25466570315423        7.52482947802161       -1.32894925423262
C            3.71402210310474        6.27504247251270       -1.09174917092604
C            2.68435650815318        3.47428975736304       -1.40597930461799
C            2.10355101451071        2.24359547288413       -1.18687677918218
C            2.78773679372508        1.32946461503372       -0.39580470200578
C            0.00079454001088        0.05455921595346        0.00644151007229
C           -0.02295390302830        1.19096319731724        0.78323637470730
N           -0.04561072187096        2.14946339574303        1.44278829217012
C           -1.20610313043845       -0.64985291906202       -0.33930001520345
N           -2.43858089219239       -0.05125536631939       -0.03637306896141
C           -3.44129239054445       -0.62512388394223        0.71200440684711
C           -3.48366302631418       -1.86697127437207        1.33392844580931
C           -4.62569176650762       -2.20281958668687        2.03105687789114
C           -5.71773976476820       -1.32845283639815        2.13773775663077
C           -6.91758941512424       -1.73471107951174        2.88013548514609
C           -7.40943389596278       -3.03652341006512        2.78179537838770
C           -8.54323254355779       -3.41622103712731        3.47513584525334
C           -9.20294565519952       -2.50611321930030        4.28544790541046
C           -8.72223372209512       -1.21095225978183        4.39407136645148
C           -7.59268598318219       -0.82674177105402        3.69628266039719
C           -5.65370759056458       -0.07002606946737        1.53838424409060
C           -4.52212242990262        0.28261953263711        0.82736012955776
C           -4.13348875741183        1.46679736446568        0.10319156145473
C           -4.75744556986772        2.67247439625308       -0.15383014652482
C           -4.10811887653951        3.62050186088998       -0.94541620708431
C           -4.75338590270440        4.90817131310824       -1.23130687035022
C           -5.44963073289935        5.58868486568118       -0.23210365135100
C           -6.05806977165534        6.80101574019422       -0.49777487198470
C           -5.99131561771364        7.35141686761060       -1.76779379826279
C           -5.30584293331183        6.68298664283539       -2.76956061848811
C           -4.68836961192687        5.47507688744123       -2.50409590677391
C           -2.84287481794475        3.33081619873773       -1.47645076297208
C           -2.20050977085734        2.13709112547587       -1.22457580237030
C           -2.84021894002410        1.20883736142042       -0.41322484037707
C           -1.16836896784722       -1.88731243826517       -0.91521347481314
C            1.21160678120960       -4.33059228276943       -2.53233478694096
C            1.22456308648859       -5.57569168155571       -3.10943424187924
H           -1.36217224667121       -8.76204069805661       -2.53879452955949
H           -1.94585779882444       -8.05908810590986       -4.05803588185759
H           -1.01218153989167       -9.55177507484838       -4.07271088279282
H            1.43724116952423       -7.12492817987164       -5.37843508009021
H           -0.29426323366155       -7.02805077179701       -5.69216979656768
H            0.52269356185480       -8.59488418548024       -5.70816891215473
H            2.27423690382902       -8.12377264525573       -3.18335772352097
H            1.11693888364128       -8.72402560616091       -1.99709788852869
H            1.36869510716880       -9.60018693773634       -3.51094520505536
H           -1.90056872599239       -6.55850138834635       -2.32674940572181
H           -1.93744412028612       -4.40087234410686       -1.30270879836425
H            2.20086025527971       -2.26615361934447       -1.17449585810764
H            2.76335305593966       -2.45819689389557        1.23736809687307
H            4.81503735101807       -2.99809514406496        2.47777264545430
H            7.07324880476983       -3.48405977224907        2.08058616014289
H            9.10687813382071       -4.09365804197550        3.31283651462016
H           10.21415585353128       -2.44089117960338        4.77550942291157
H            9.26237029893005       -0.17409774767930        5.00154945085878
H            7.21553856007849        0.43182105039147        3.78914907466510
H            6.46103087607654        0.86162033642987        1.61098188811018
H            5.60975364310363        3.11367728769750        0.28949188498401
H            6.50350232522579        4.40631385487384       -1.47832641598683
H            7.46058472405928        6.62975091036461       -1.89588256717232
H            6.02376491898633        8.63493519990980       -1.80768755778080
H            3.62226664270045        8.39986345790379       -1.28439191366947
H            2.66662905070873        6.17897502227710       -0.84488177244555
H            2.17016310431310        4.19462864679084       -2.02414409785766
H            1.14729574040761        1.99870581754909       -1.62182183507286
H           -2.64413789552967       -2.54376107732886        1.28262483011505
H           -4.67164194408801       -3.15784930896042        2.53230552682015
H           -6.91203307986895       -3.74642811864602        2.13715228523299
H           -8.91597684661000       -4.42616807293476        3.38197234881176
H          -10.08721849332473       -2.80450729964911        4.82926904924895
H           -9.22937831735409       -0.49812036307834        5.02833436327650
H           -7.21236421835553        0.17872406936797        3.80271224332707
H           -6.48711026327828        0.61163941030198        1.60936742344445
H           -5.74756092787766        2.86805175021890        0.22844086222893
H           -5.48900601239893        5.17397826315056        0.76465918878850
H           -6.58552375222917        7.32051295631765        0.28930028902125
H           -6.47063867748657        8.29678061353731       -1.97575030954888
H           -5.25425207677490        7.10489876878023       -3.76302651733738
H           -4.17163622594028        4.95094023053419       -3.29478982863309
H           -2.34957945599488        4.07325286719354       -2.08533505045906
H           -1.22924779088429        1.93233695298483       -1.64693569749569
H           -2.10672264540421       -2.34724793765774       -1.18358844630021
H            2.09246301143482       -3.71317510239719       -2.62556670620626
H            2.12505007060574       -5.89301517602209       -3.61558910192369

          :  Hamiltonian                  GFN2-xTB          :
         :: gradient norm              0.000055476950 Eh/a0 ::
         :: HOMO-LUMO gap              0.472824818261 eV    ::
         :: SCC energy              -175.236088098774 Eh    ::
         :: -> dispersion             -0.159640022596 Eh    ::
         :: -> Gsolv                  -0.077582313257 Eh    ::
         :: repulsion energy           3.275196903814 Eh    ::

    * Orbital Energies and Occupations

         #    Occupation            Energy/Eh            Energy/eV
      -------------------------------------------------------------
         1        2.0000           -0.6892599             -18.7557
       ...           ...                  ...                  ...
       150        2.0000           -0.4047224             -11.0131
       151        2.0000           -0.4029840             -10.9658
       152        2.0000           -0.4020478             -10.9403
       153        2.0000           -0.4002037             -10.8901
       154        2.0000           -0.3992797             -10.8650
       155        2.0000           -0.3985610             -10.8454
       156        2.0000           -0.3951297             -10.7520
       157        2.0000           -0.3857979             -10.4981
       158        2.0000           -0.3855340             -10.4909
       159        1.9988           -0.3727041             -10.1418
       160        1.5190           -0.3663787              -9.9697
       161        1.4822           -0.3662391              -9.9659
       162        0.9999           -0.2733137              -7.4372 (HOMO)
       163        0.0001           -0.2559378              -6.9644 (LUMO)
       164        0.0000           -0.2552285              -6.9451
       165        0.0000           -0.2528008              -6.8791
       166        0.0000           -0.2526598              -6.8752
       167                         -0.2437534              -6.6329
       168                         -0.2401810              -6.5357
       169                         -0.2248045              -6.1172
       170                         -0.2246690              -6.1136
       171                         -0.2244752              -6.1083
       172                         -0.2241860              -6.1004
       173                         -0.2240114              -6.0957
       ...                                ...                  ...
       319                          1.1625443              31.6344
      -------------------------------------------------------------
                  HL-Gap            0.0173758 Eh            0.4728 eV

     #   Z          covCN         q      C6AA      α(0)
     1   6 C        3.761    -0.105    22.561     6.771
     2   6 C        3.902     0.025    20.097     6.372
     3   6 C        3.761    -0.103    22.517     6.764
     4   6 C        3.761    -0.103    22.517     6.764
     5   6 C        2.972    -0.002    28.073     8.691
     6   6 C        2.920    -0.042    29.050     8.839
     7   6 C        2.922    -0.046    29.147     8.854
     8   6 C        2.968     0.001    28.007     8.681
     9   6 C        2.966    -0.021    28.521     8.760
    10   6 C        2.919    -0.053    29.319     8.879
    11   6 C        2.906     0.044    27.006     8.521
    12   7 N        2.803    -0.024    21.712     6.920
    13   6 C        3.079     0.049    26.826     8.491
    14   6 C        2.907    -0.043    29.072     8.841
    15   6 C        2.927    -0.037    28.908     8.817
    16   6 C        2.976     0.009    27.818     8.652
    17   6 C        2.976     0.012    27.744     8.640
    18   6 C        2.924    -0.034    28.835     8.806
    19   6 C        2.918    -0.029    28.734     8.790
    20   6 C        2.919    -0.030    28.743     8.792
    21   6 C        2.918    -0.029    28.730     8.790
    22   6 C        2.924    -0.033    28.829     8.805
    23   6 C        2.917    -0.034    28.839     8.806
    24   6 C        3.063    -0.013    28.268     8.719
    25   6 C        3.063    -0.013    28.280     8.720
    26   6 C        2.917    -0.034    28.843     8.807
    27   6 C        2.977     0.010    27.798     8.648
    28   6 C        2.977     0.012    27.733     8.638
    29   6 C        2.924    -0.033    28.829     8.805
    30   6 C        2.918    -0.029    28.732     8.790
    31   6 C        2.920    -0.029    28.737     8.791
    32   6 C        2.918    -0.029    28.722     8.788
    33   6 C        2.924    -0.032    28.809     8.802
    34   6 C        2.927    -0.035    28.875     8.812
    35   6 C        2.908    -0.037    28.923     8.818
    36   6 C        3.080     0.053    26.732     8.476
    37   6 C        2.964    -0.044    29.090     8.847
    38   6 C        1.905     0.104    28.518     8.625
    39   7 N        0.911    -0.379    29.792     7.894
    40   6 C        2.907     0.044    27.004     8.521
    41   7 N        2.803    -0.024    21.702     6.919
    42   6 C        3.080     0.049    26.824     8.491
    43   6 C        2.907    -0.043    29.069     8.841
    44   6 C        2.927    -0.036    28.908     8.817
    45   6 C        2.976     0.009    27.817     8.651
    46   6 C        2.977     0.012    27.744     8.640
    47   6 C        2.924    -0.033    28.834     8.806
    48   6 C        2.918    -0.029    28.733     8.790
    49   6 C        2.920    -0.030    28.743     8.792
    50   6 C        2.918    -0.029    28.730     8.790
    51   6 C        2.924    -0.033    28.829     8.805
    52   6 C        2.917    -0.034    28.838     8.806
    53   6 C        3.062    -0.013    28.266     8.718
    54   6 C        3.063    -0.013    28.275     8.720
    55   6 C        2.917    -0.034    28.843     8.807
    56   6 C        2.976     0.010    27.796     8.648
    57   6 C        2.977     0.012    27.733     8.638
    58   6 C        2.925    -0.033    28.815     8.803
    59   6 C        2.918    -0.029    28.725     8.789
    60   6 C        2.920    -0.030    28.740     8.791
    61   6 C        2.918    -0.029    28.730     8.790
    62   6 C        2.924    -0.033    28.827     8.805
    63   6 C        2.927    -0.035    28.876     8.813
    64   6 C        2.908    -0.037    28.926     8.819
    65   6 C        3.079     0.053    26.734     8.477
    66   6 C        2.919    -0.054    29.333     8.882
    67   6 C        2.921    -0.046    29.139     8.852
    68   6 C        2.922    -0.038    28.940     8.822
    69   1 H        0.925     0.035     2.520     2.482
    70   1 H        0.925     0.035     2.522     2.483
    71   1 H        0.925     0.036     2.500     2.473
    72   1 H        0.925     0.035     2.511     2.478
    73   1 H        0.925     0.031     2.566     2.505
    74   1 H        0.925     0.038     2.479     2.462
    75   1 H        0.925     0.036     2.509     2.477
    76   1 H        0.925     0.032     2.562     2.503
    77   1 H        0.925     0.038     2.478     2.462
    78   1 H        0.926     0.030     2.591     2.517
    79   1 H        0.926     0.020     2.736     2.587
    80   1 H        0.926     0.036     2.499     2.472
    81   1 H        0.926     0.040     2.450     2.448
    82   1 H        0.926     0.045     2.389     2.417
    83   1 H        0.926     0.036     2.506     2.476
    84   1 H        0.926     0.034     2.526     2.485
    85   1 H        0.926     0.034     2.528     2.486
    86   1 H        0.926     0.034     2.524     2.484
    87   1 H        0.926     0.036     2.505     2.475
    88   1 H        0.926     0.047     2.356     2.400
    89   1 H        0.926     0.048     2.346     2.395
    90   1 H        0.926     0.037     2.491     2.468
    91   1 H        0.926     0.036     2.509     2.477
    92   1 H        0.926     0.035     2.516     2.480
    93   1 H        0.926     0.035     2.520     2.482
    94   1 H        0.926     0.035     2.516     2.480
    95   1 H        0.926     0.044     2.402     2.424
    96   1 H        0.926     0.029     2.595     2.519
    97   1 H        0.926     0.039     2.457     2.451
    98   1 H        0.926     0.045     2.389     2.417
    99   1 H        0.926     0.036     2.507     2.476
   100   1 H        0.926     0.034     2.526     2.485
   101   1 H        0.926     0.034     2.527     2.486
   102   1 H        0.926     0.035     2.523     2.484
   103   1 H        0.926     0.036     2.506     2.475
   104   1 H        0.926     0.047     2.356     2.400
   105   1 H        0.926     0.048     2.348     2.396
   106   1 H        0.926     0.036     2.505     2.475
   107   1 H        0.926     0.035     2.514     2.479
   108   1 H        0.926     0.035     2.517     2.481
   109   1 H        0.926     0.035     2.518     2.481
   110   1 H        0.926     0.035     2.511     2.478
   111   1 H        0.926     0.044     2.398     2.422
   112   1 H        0.926     0.029     2.594     2.519
   113   1 H        0.926     0.036     2.505     2.475
   114   1 H        0.926     0.019     2.744     2.590
   115   1 H        0.926     0.022     2.698     2.568

molecular dipole:
                 x           y           z       tot (Debye)
 q only:        0.016      -0.021      -0.311
   full:        0.026      -0.415      -0.530       1.713

 projected vibrational frequencies (cm⁻¹)
eigval :       -0.00    -0.00    -0.00    -0.00     0.00     0.00
eigval :        7.68     8.70    10.37    12.93    15.80    18.96
eigval :       33.71    35.47    37.80    38.22    40.30    41.95
eigval :       44.61    45.72    52.51    58.20    59.46    60.67
eigval :       63.46    67.75    84.48    87.51    91.70   109.61
eigval :      113.64   119.44   125.01   133.50   143.81   148.67
eigval :      151.81   156.43   175.86   177.39   182.03   202.22
eigval :      212.40   220.30   223.19   228.26   235.82   243.86
eigval :      248.17   251.04   268.63   278.24   284.56   290.98
eigval :      296.23   310.62   312.73   318.14   327.46   336.69
eigval :      344.88   352.73   367.16   369.83   370.20   371.63
eigval :      373.02   374.17   378.50   380.31   388.64   390.77
eigval :      394.89   398.95   412.06   424.17   426.07   433.62
eigval :      442.20   453.10   464.98   474.61   475.61   477.95
eigval :      488.52   493.26   498.59   502.53   506.30   525.52
eigval :      539.33   553.99   554.65   568.16   574.99   577.24
eigval :      583.06   586.10   586.26   590.65   592.51   602.11
eigval :      606.52   609.80   611.67   618.51   624.26   624.65
eigval :      630.92   641.74   665.91   667.32   669.42   671.59
eigval :      672.67   680.30   682.46   688.95   689.43   708.97
eigval :      710.28   717.43   725.37   736.69   738.73   751.27
eigval :      755.36   757.17   757.85   762.91   791.16   807.59
eigval :      810.27   819.56   820.53   824.20   826.88   832.62
eigval :      856.80   859.74   862.49   864.86   867.37   868.30
eigval :      869.09   875.00   876.99   877.18   877.54   880.75
eigval :      899.33   901.32   901.47   902.10   902.80   903.69
eigval :      905.45   906.42   908.58   914.50   915.78   916.59
eigval :      927.50   929.34   930.40   930.50   930.66   931.78
eigval :      931.96   932.04   933.55   957.90   960.98   963.09
eigval :      969.35   969.51   977.62   978.82   991.68  1022.98
eigval :     1023.48  1032.29  1033.42  1034.72  1052.14  1065.28
eigval :     1065.70  1066.63  1067.85  1083.48  1083.82  1084.43
eigval :     1084.55  1111.43  1119.71  1120.48  1120.72  1120.84
eigval :     1136.97  1138.96  1144.85  1145.41  1160.48  1179.32
eigval :     1179.68  1179.94  1180.56  1181.80  1186.25  1197.67
eigval :     1197.96  1200.16  1200.45  1207.78  1211.24  1216.29
eigval :     1217.88  1219.79  1223.17  1228.35  1230.62  1236.17
eigval :     1243.60  1249.65  1273.74  1275.00  1278.50  1279.38
eigval :     1279.58  1279.63  1283.01  1283.50  1284.16  1284.85
eigval :     1294.83  1303.16  1311.43  1317.20  1317.22  1317.44
eigval :     1318.64  1327.08  1329.85  1334.33  1335.03  1346.08
eigval :     1348.98  1362.93  1377.73  1382.59  1399.76  1401.28
eigval :     1404.91  1406.39  1413.80  1424.65  1425.89  1426.28
eigval :     1426.97  1427.09  1428.22  1431.90  1446.15  1446.35
eigval :     1462.74  1463.71  1468.71  1478.73  1482.82  1482.95
eigval :     1485.79  1487.18  1488.27  1492.53  1495.88  1499.62
eigval :     1502.61  1510.69  1518.10  1543.64  1549.84  1552.74
eigval :     1559.49  1559.87  1560.82  1561.06  1572.01  1574.40
eigval :     1574.42  1574.52  1575.49  1579.20  1587.87  1594.77
eigval :     1594.98  1599.45  1602.44  2223.98  3018.21  3018.76
eigval :     3022.06  3023.64  3025.73  3029.20  3034.18  3042.54
eigval :     3045.44  3065.56  3069.46  3069.47  3069.68  3070.14
eigval :     3070.74  3071.15  3071.25  3071.40  3074.81  3078.96
eigval :     3079.72  3079.81  3079.93  3081.01  3082.18  3082.88
eigval :     3082.91  3082.98  3084.07  3084.57  3086.18  3087.10
eigval :     3090.46  3090.69  3090.81  3091.01  3092.90  3093.41
eigval :     3094.66  3095.02  3096.18  3096.57  3096.78  3097.40
eigval :     3098.35  3100.15  3101.02

   temp. (K)  partition function   enthalpy   heat capacity  entropy
                                   cal/mol     cal/K/mol   cal/K/mol   J/K/mol
 298.15  VIB  0.119E+29            34209.930    210.115    215.970
         ROT  0.308E+09              888.752      2.981     41.824
         INT  0.365E+37            35098.682    213.096    257.794
         TR   0.248E+29             1481.254      4.968     46.146
         TOT                       36579.9360   218.0642   303.9400  1271.6849

       T/K    H(0)-H(T)+PV         H(T)/Eh          T*S/Eh         G(T)/Eh
   ------------------------------------------------------------------------
    298.15    0.582938E-01    0.954815E+00    0.144412E+00    0.810403E+00
   ------------------------------------------------------------------------

         :::::::::::::::::::::::::::::::::::::::::::::::::::::
         ::                  THERMODYNAMIC                  ::
         :::::::::::::::::::::::::::::::::::::::::::::::::::::
         :: total free energy        -171.150488149944 Eh   ::
         ::.................................................::
         :: total energy             -171.960891195329 Eh   ::
         :: zero point energy           0.896520897219 Eh   ::
         :: G(RRHO) w/o ZPVE           -0.086117851835 Eh   ::
         :: G(RRHO) contrib.            0.810403045384 Eh   ::
         :::::::::::::::::::::::::::::::::::::::::::::::::::::

           -------------------------------------------------
          | TOTAL ENERGY             -171.960891195329 Eh   |
          | TOTAL ENTHALPY           -171.006076459488 Eh   |
          | TOTAL FREE ENERGY        -171.150488149944 Eh   |
          | GRADIENT NORM               0.000054477286 Eh/α |
          | HOMO-LUMO GAP               0.472820001049 eV   |
           -------------------------------------------------

 * finished run on 2025/07/20 at 05:34:47.673
