   * xtb version 6.7.1 (edcfbbe) compiled by 'albert@albert-system' on 2024-07-22

   ID    Z sym.   atoms
    1    6 C      1-11, 13-38, 40, 42-68
    2    7 N      12, 39, 41
    3    1 H      69-115

          program call               : xtb data2507/toluene/2PCzBN-tPh/2PCzBN-tPh_toluene_T1_crest.xyz --gfn 2 --uhf 2 --gbsa toluene --ohess vtight --parallel 40 --molden --ceasefiles --namespace data2507/toluene/2PCzBN-tPh/2PCzBN-tPh_toluene_T1_finalOpt
      * Solvation model:               GBSA
        Solvent                        toluene
        Solvent mass                       9.2140E+01 g/mol
          :  Hamiltonian                  GFN2-xTB          :
 * total energy  :  -171.9608885 Eh     change       -0.1972549E-07 Eh
 * total energy  :  -171.9609675 Eh     change       -0.7908411E-04 Eh
 * total energy  :  -171.9610022 Eh     change       -0.3463917E-04 Eh
 * total energy  :  -171.9610136 Eh     change       -0.1139764E-04 Eh
 * total energy  :  -171.9610191 Eh     change       -0.5556920E-05 Eh
 * total energy  :  -171.9610221 Eh     change       -0.2919860E-05 Eh
 * total energy  :  -171.9610251 Eh     change       -0.3055253E-05 Eh
 * total energy  :  -171.9610276 Eh     change       -0.2512690E-05 Eh
 * total energy  :  -171.9610292 Eh     change       -0.1579410E-05 Eh
 * total energy  :  -171.9610306 Eh     change       -0.1391354E-05 Eh
 * total energy  :  -171.9610327 Eh     change       -0.6241800E-06 Eh
 * total energy  :  -171.9610332 Eh     change       -0.5585509E-06 Eh
 * total energy  :  -171.9610339 Eh     change       -0.6778838E-06 Eh
 * total energy  :  -171.9610347 Eh     change       -0.8271506E-06 Eh
 * total energy  :  -171.9610356 Eh     change       -0.8771854E-06 Eh
 * total energy  :  -171.9610364 Eh     change       -0.7595445E-06 Eh
 * total energy  :  -171.9610370 Eh     change       -0.6299990E-06 Eh
 * total energy  :  -171.9610376 Eh     change       -0.5807313E-06 Eh
 * total energy  :  -171.9610376 Eh     change       -0.8064063E-08 Eh
   *** GEOMETRY OPTIMIZATION CONVERGED AFTER 22 ITERATIONS ***

 final structure:
================
115
 xtb: 6.7.1 (edcfbbe)
C           -1.32560897454228       -8.06875512301237       -4.63606501422460
C           -0.01296603176734       -7.72471511708288       -3.92532815702496
C            1.11465703245538       -7.74191443559068       -4.96957490696236
C            0.25261389523880       -8.80229553504830       -2.86177002669443
C           -0.04954564308709       -6.36418863700127       -3.25384720875998
C           -1.16489057179099       -5.52531950174907       -3.27227833561138
C           -1.15964272240367       -4.29702488372887       -2.65347147211749
C           -0.02823035916563       -3.81086207663033       -1.96432995951626
C           -0.01995613377616       -2.53476089079804       -1.31026568439547
C            1.19233951390311       -1.87125095379994       -0.97598973879912
C            1.21540251316870       -0.64090489387936       -0.38477721658600
N            2.44000954670211       -0.03022458316457       -0.07279126407089
C            3.44289287479605       -0.58989647552497        0.68618780827996
C            3.49779935216404       -1.83264549738820        1.30491815778408
C            4.62767796979078       -2.14358043053361        2.03317084545164
C            5.70167713600047       -1.25023282887098        2.15844678489915
C            6.88871833568671       -1.62668902482805        2.93699497101677
C            8.16736388970947       -1.30005810302800        2.48499938137507
C            9.28537656492255       -1.65483556803927        3.21627285438189
C            9.14699238838946       -2.33372268927960        4.41632630955098
C            7.88177024581591       -2.65950717049835        4.87812889831835
C            6.76252252971354       -2.31351931604634        4.14443134822761
C            5.63185298096485        0.00240997094706        1.54787859394831
C            4.50487067221457        0.33743055547928        0.82115836749550
C            4.10490412793922        1.51757047735689        0.09647993225435
C            4.71167079861374        2.73415044724888       -0.15107325998968
C            4.04596640663938        3.68086087182649       -0.93036544201728
C            4.65988268118687        4.98839877976241       -1.19304725013425
C            6.02487538103749        5.09592024518434       -1.45995675811159
C            6.59875327237135        6.32809689666177       -1.71093424916439
C            5.82268823168955        7.47591088579011       -1.69145044775211
C            4.46651507409414        7.38240448010183       -1.42227741952313
C            3.88856912317177        6.15071417740502       -1.17847227528662
C            2.78911697999279        3.37344835065134       -1.47223604974349
C            2.17356315785839        2.16063570446259       -1.24804645266682
C            2.82329077134711        1.23859649759674       -0.43737468510725
C            0.00043313102751        0.04612351867701       -0.03144753047771
C            0.01102487204792        1.18027898942033        0.74877830775313
N            0.02079827945710        2.13803743687405        1.40984682303026
C           -1.22521226246896       -0.61822965996493       -0.38801522513701
N           -2.44073944873566        0.00281566766870       -0.05878505390493
C           -3.45015270719066       -0.55673009217972        0.69132014208169
C           -3.52330739539603       -1.81020767985837        1.28679329286198
C           -4.66570851581226       -2.12504593716373        1.99316181903411
C           -5.72798074988713       -1.21958985521201        2.13469534788674
C           -6.92843821004722       -1.60313964275077        2.88824023420410
C           -7.46280323790596       -2.88664763614829        2.77244155772076
C           -8.59678936773357       -3.24456914203843        3.47701270032361
C           -9.21429377699735       -2.33083183502209        4.31600824395863
C           -8.69136251432573       -1.05372199910364        4.44182543703794
C           -7.56168265604219       -0.69097493610125        3.73280176849797
C           -5.63419036303253        0.04768775128444        1.55842352634220
C           -4.50183532985109        0.38058483377912        0.83906129176200
C           -4.08969881695029        1.56544644816401        0.12926132245494
C           -4.68375112679145        2.79140994147940       -0.10306536497307
C           -4.00798915611188        3.74093228152960       -0.86997201812102
C           -4.60858743427509        5.05738181760256       -1.11826865095869
C           -5.97196663611505        5.18182602389293       -1.38594542129661
C           -6.53262650244365        6.42271174631011       -1.62374443213927
C           -5.74480242113984        7.56215759936661       -1.59007030170111
C           -4.39011904737269        7.45170897589747       -1.31982728484302
C           -3.82536964299970        6.21143270843245       -1.08911300983026
C           -2.75377346023760        3.42775452735909       -1.41454935083196
C           -2.15031470860763        2.20644570891448       -1.20449399085350
C           -2.80997332097512        1.28072873898821       -0.40609308534306
C           -1.22113083629196       -1.84235038425855       -0.99232232039402
C            1.09549652401737       -4.66663555494183       -1.95210923932276
C            1.07647305543395       -5.89198663534645       -2.56988818252021
H           -2.15475836156403       -8.10128540734439       -3.93269274038438
H           -1.54875238298587       -7.34510997448846       -5.41712307493730
H           -1.24031790070050       -9.04927818060482       -5.10073078089874
H            2.08299636518739       -7.56244085513628       -4.51030472848016
H            0.94501570691565       -6.97068697803870       -5.71880171754669
H            1.14775527348849       -8.70816793212774       -5.46901190051100
H            1.20777926955267       -8.64379747405795       -2.36836762971782
H           -0.52937436517844       -8.78394206829710       -2.10480688224187
H            0.26562337050697       -9.78816788074553       -3.32223928902516
H           -2.06363617326737       -5.82642770405006       -3.78713773004596
H           -2.04502205514257       -3.68381387846568       -2.73041900630124
H            2.13608972514780       -2.31778223569234       -1.24818427511370
H            2.67895285032407       -2.53140721744194        1.22387486216993
H            4.69692803341913       -3.11191354883058        2.50548979182373
H            8.28295977089565       -0.78645823344516        1.54166821986875
H           10.26972472007656       -1.40228719555909        2.84890377622582
H           10.02076716414973       -2.60737576013455        4.98934355087696
H            7.76755833511554       -3.18372694571739        5.81607244328239
H            5.77852933938639       -2.55347810023612        4.52027475070568
H            6.43574619861842        0.71232812151796        1.66712038823421
H            5.67812388840049        2.95900551770068        0.27314289276019
H            6.63231759910520        4.20337576962588       -1.49570530549961
H            7.65591688754024        6.39444980453352       -1.92439000875065
H            6.27249024790779        8.43870083500052       -1.88482793565986
H            3.85752216182945        8.27470275968942       -1.39955093172041
H            2.83509664738499        6.08596294434010       -0.94804063017874
H            2.30336868970461        4.09916023842648       -2.10690909530948
H            1.21835698259933        1.93355040416365       -1.69518758820755
H           -2.70861942314042       -2.51400400897266        1.20640091953975
H           -4.73462118824550       -3.08897658102609        2.47429166968909
H           -6.99840009932145       -3.59872733679096        2.10594098315299
H           -9.00264713915894       -4.24031247770358        3.37023344278511
H          -10.09850448415456       -2.61236802899390        4.86887803357819
H           -9.16545656225820       -0.33821707470653        5.09826202185172
H           -7.14840615396966        0.29993012776241        3.85234891950447
H           -6.44526726073878        0.75273853970262        1.65526670260691
H           -5.64914694560211        3.02013787867541        0.32151992810507
H           -6.58853996330573        4.29604508215150       -1.43262182638727
H           -7.58866976031786        6.50251740241945       -1.83814393134735
H           -6.18437283458554        8.53161889858136       -1.77328155856069
H           -3.77195578439776        8.33732576973937       -1.28596286521787
H           -2.77303943132557        6.13304947104408       -0.85765311885027
H           -2.26015470422995        4.15626783716299       -2.03985636796355
H           -1.19606881670956        1.97690274633429       -1.65221597183501
H           -2.17318039159812       -2.29316961554707       -1.22450112021248
H            1.98836133231411       -4.37411470399041       -1.41998955757425
H            1.96528859913783       -6.50410650613285       -2.51438087470957

          :  Hamiltonian                  GFN2-xTB          :
         :: gradient norm              0.000074352149 Eh/a0 ::
         :: HOMO-LUMO gap              0.472537315546 eV    ::
         :: SCC energy              -175.236333990701 Eh    ::
         :: -> dispersion             -0.159710521804 Eh    ::
         :: -> Gsolv                  -0.077575291832 Eh    ::
         :: repulsion energy           3.275296390325 Eh    ::

    * Orbital Energies and Occupations

         #    Occupation            Energy/Eh            Energy/eV
      -------------------------------------------------------------
         1        2.0000           -0.6892591             -18.7557
       ...           ...                  ...                  ...
       150        2.0000           -0.4050442             -11.0218
       151        2.0000           -0.4026885             -10.9577
       152        2.0000           -0.4020133             -10.9393
       153        2.0000           -0.4003524             -10.8941
       154        2.0000           -0.3992268             -10.8635
       155        2.0000           -0.3985811             -10.8459
       156        2.0000           -0.3951451             -10.7524
       157        2.0000           -0.3858744             -10.5002
       158        2.0000           -0.3855521             -10.4914
       159        1.9989           -0.3727740             -10.1437
       160        1.5311           -0.3664419              -9.9714
       161        1.4700           -0.3662094              -9.9651
       162        0.9999           -0.2732992              -7.4368 (HOMO)
       163        0.0001           -0.2559348              -6.9643 (LUMO)
       164        0.0000           -0.2552320              -6.9452
       165        0.0000           -0.2526585              -6.8752
       166        0.0000           -0.2526096              -6.8739
       167                         -0.2437395              -6.6325
       168                         -0.2401767              -6.5355
       169                         -0.2248231              -6.1177
       170                         -0.2246678              -6.1135
       171                         -0.2243961              -6.1061
       172                         -0.2242179              -6.1013
       173                         -0.2240963              -6.0980
       ...                                ...                  ...
       319                          1.1623610              31.6295
      -------------------------------------------------------------
                  HL-Gap            0.0173644 Eh            0.4725 eV

     #   Z          covCN         q      C6AA      α(0)
     1   6 C        3.761    -0.105    22.561     6.771
     2   6 C        3.902     0.025    20.096     6.372
     3   6 C        3.761    -0.103    22.519     6.765
     4   6 C        3.761    -0.103    22.516     6.764
     5   6 C        2.972    -0.002    28.069     8.690
     6   6 C        2.920    -0.042    29.045     8.838
     7   6 C        2.922    -0.046    29.147     8.853
     8   6 C        2.968     0.001    28.004     8.680
     9   6 C        2.966    -0.021    28.522     8.760
    10   6 C        2.919    -0.054    29.335     8.882
    11   6 C        2.907     0.044    27.008     8.521
    12   7 N        2.803    -0.024    21.707     6.920
    13   6 C        3.080     0.049    26.823     8.491
    14   6 C        2.907    -0.043    29.071     8.841
    15   6 C        2.927    -0.036    28.907     8.817
    16   6 C        2.976     0.009    27.819     8.652
    17   6 C        2.977     0.012    27.745     8.640
    18   6 C        2.925    -0.033    28.832     8.806
    19   6 C        2.918    -0.029    28.732     8.790
    20   6 C        2.920    -0.030    28.744     8.792
    21   6 C        2.918    -0.029    28.731     8.790
    22   6 C        2.924    -0.033    28.830     8.805
    23   6 C        2.917    -0.034    28.838     8.806
    24   6 C        3.063    -0.013    28.266     8.718
    25   6 C        3.063    -0.013    28.275     8.720
    26   6 C        2.917    -0.034    28.841     8.807
    27   6 C        2.977     0.010    27.795     8.648
    28   6 C        2.977     0.012    27.733     8.638
    29   6 C        2.924    -0.033    28.828     8.805
    30   6 C        2.918    -0.029    28.731     8.790
    31   6 C        2.920    -0.029    28.736     8.791
    32   6 C        2.918    -0.029    28.722     8.788
    33   6 C        2.924    -0.032    28.809     8.802
    34   6 C        2.927    -0.035    28.874     8.812
    35   6 C        2.908    -0.037    28.925     8.819
    36   6 C        3.080     0.053    26.728     8.476
    37   6 C        2.964    -0.044    29.085     8.846
    38   6 C        1.905     0.104    28.518     8.625
    39   7 N        0.911    -0.380    29.800     7.895
    40   6 C        2.906     0.044    27.004     8.521
    41   7 N        2.803    -0.025    21.720     6.922
    42   6 C        3.079     0.049    26.824     8.491
    43   6 C        2.907    -0.043    29.074     8.841
    44   6 C        2.927    -0.036    28.908     8.817
    45   6 C        2.976     0.009    27.820     8.652
    46   6 C        2.977     0.012    27.744     8.640
    47   6 C        2.924    -0.034    28.835     8.806
    48   6 C        2.918    -0.029    28.734     8.790
    49   6 C        2.919    -0.030    28.744     8.792
    50   6 C        2.918    -0.029    28.730     8.790
    51   6 C        2.924    -0.033    28.829     8.805
    52   6 C        2.917    -0.034    28.839     8.806
    53   6 C        3.063    -0.013    28.269     8.719
    54   6 C        3.063    -0.013    28.281     8.721
    55   6 C        2.917    -0.034    28.844     8.807
    56   6 C        2.977     0.010    27.800     8.649
    57   6 C        2.977     0.012    27.733     8.638
    58   6 C        2.924    -0.033    28.829     8.805
    59   6 C        2.918    -0.029    28.732     8.790
    60   6 C        2.920    -0.030    28.738     8.791
    61   6 C        2.918    -0.029    28.723     8.789
    62   6 C        2.924    -0.033    28.810     8.802
    63   6 C        2.928    -0.035    28.876     8.813
    64   6 C        2.908    -0.037    28.927     8.819
    65   6 C        3.080     0.053    26.728     8.476
    66   6 C        2.919    -0.053    29.317     8.879
    67   6 C        2.921    -0.046    29.137     8.852
    68   6 C        2.922    -0.038    28.943     8.822
    69   1 H        0.925     0.035     2.520     2.482
    70   1 H        0.925     0.035     2.523     2.484
    71   1 H        0.925     0.036     2.500     2.472
    72   1 H        0.925     0.036     2.509     2.477
    73   1 H        0.925     0.031     2.566     2.505
    74   1 H        0.925     0.038     2.479     2.462
    75   1 H        0.925     0.036     2.508     2.477
    76   1 H        0.925     0.032     2.562     2.503
    77   1 H        0.925     0.038     2.477     2.461
    78   1 H        0.926     0.030     2.592     2.518
    79   1 H        0.926     0.020     2.738     2.588
    80   1 H        0.926     0.036     2.509     2.477
    81   1 H        0.926     0.039     2.458     2.452
    82   1 H        0.926     0.044     2.390     2.418
    83   1 H        0.926     0.036     2.499     2.472
    84   1 H        0.926     0.035     2.519     2.482
    85   1 H        0.926     0.034     2.528     2.486
    86   1 H        0.926     0.034     2.529     2.487
    87   1 H        0.926     0.035     2.518     2.481
    88   1 H        0.926     0.047     2.359     2.402
    89   1 H        0.926     0.048     2.344     2.394
    90   1 H        0.926     0.037     2.491     2.468
    91   1 H        0.926     0.036     2.509     2.477
    92   1 H        0.926     0.035     2.515     2.480
    93   1 H        0.926     0.035     2.518     2.482
    94   1 H        0.926     0.035     2.516     2.480
    95   1 H        0.926     0.044     2.399     2.422
    96   1 H        0.926     0.029     2.593     2.518
    97   1 H        0.926     0.040     2.453     2.449
    98   1 H        0.926     0.044     2.391     2.418
    99   1 H        0.926     0.036     2.507     2.476
   100   1 H        0.926     0.034     2.527     2.486
   101   1 H        0.926     0.034     2.528     2.486
   102   1 H        0.926     0.034     2.524     2.484
   103   1 H        0.926     0.036     2.506     2.476
   104   1 H        0.926     0.047     2.358     2.401
   105   1 H        0.926     0.048     2.347     2.396
   106   1 H        0.926     0.037     2.493     2.469
   107   1 H        0.926     0.035     2.511     2.478
   108   1 H        0.926     0.035     2.516     2.481
   109   1 H        0.926     0.035     2.519     2.482
   110   1 H        0.926     0.035     2.516     2.481
   111   1 H        0.926     0.044     2.402     2.424
   112   1 H        0.926     0.029     2.595     2.519
   113   1 H        0.926     0.036     2.498     2.472
   114   1 H        0.926     0.020     2.739     2.588
   115   1 H        0.926     0.023     2.693     2.566

molecular dipole:
                 x           y           z       tot (Debye)
 q only:        0.016      -0.014      -0.297
   full:        0.018      -0.413      -0.506       1.662

 projected vibrational frequencies (cm⁻¹)
eigval :       -0.00    -0.00    -0.00    -0.00     0.00     0.00
eigval :        6.36     7.13     8.94    12.52    15.15    23.41
eigval :       33.73    35.09    36.50    37.35    39.89    42.65
eigval :       45.01    46.95    51.99    58.57    58.91    61.36
eigval :       62.83    66.35    83.03    88.10    92.15   109.96
eigval :      113.38   116.74   121.97   132.47   145.31   148.94
eigval :      151.47   154.50   170.50   177.19   182.30   198.32
eigval :      212.22   219.62   222.03   229.89   235.37   242.67
eigval :      249.15   250.61   267.27   274.58   286.90   290.97
eigval :      297.69   309.23   311.84   316.27   325.80   333.74
eigval :      344.83   352.67   369.29   370.66   371.03   371.48
eigval :      372.32   373.29   376.10   380.52   387.32   389.74
eigval :      392.71   396.86   411.51   420.95   425.68   431.81
eigval :      437.46   453.30   465.64   474.36   475.62   477.63
eigval :      488.48   495.83   498.20   502.71   505.28   524.77
eigval :      539.56   553.88   554.53   567.36   574.58   577.42
eigval :      582.88   586.00   586.32   590.72   592.21   602.26
eigval :      606.48   609.84   611.79   618.16   623.12   624.54
eigval :      630.72   641.53   666.48   666.90   669.09   671.45
eigval :      673.01   680.67   682.72   687.23   688.17   707.34
eigval :      707.91   717.13   725.16   736.41   738.43   750.81
eigval :      756.54   757.63   757.96   763.51   793.31   807.75
eigval :      809.21   818.28   821.22   824.88   829.15   833.65
eigval :      858.68   859.86   861.83   863.99   865.75   867.88
eigval :      869.44   875.69   876.41   877.34   877.68   880.52
eigval :      899.50   901.16   901.83   902.63   902.95   903.61
eigval :      905.77   906.79   908.99   913.46   915.89   917.44
eigval :      927.52   928.23   930.52   930.95   931.45   931.87
eigval :      932.38   932.46   933.32   958.18   960.64   962.95
eigval :      969.30   969.43   977.52   978.69   991.72  1023.07
eigval :     1023.58  1032.10  1033.24  1033.82  1051.96  1065.51
eigval :     1065.90  1066.90  1067.91  1082.16  1082.52  1084.11
eigval :     1084.81  1110.79  1119.61  1119.86  1120.85  1122.23
eigval :     1138.49  1139.05  1144.89  1145.88  1160.66  1177.57
eigval :     1178.00  1180.22  1181.49  1182.34  1186.42  1196.89
eigval :     1197.39  1200.05  1201.41  1208.14  1211.33  1216.94
eigval :     1218.34  1219.95  1223.08  1227.96  1230.66  1236.23
eigval :     1244.26  1249.90  1274.35  1275.47  1278.14  1278.37
eigval :     1279.49  1280.20  1283.55  1283.82  1284.25  1285.38
eigval :     1294.71  1303.42  1311.63  1317.09  1317.26  1317.43
eigval :     1318.52  1327.28  1330.03  1334.40  1335.04  1345.76
eigval :     1348.91  1362.98  1377.36  1382.98  1400.50  1401.07
eigval :     1405.18  1406.59  1414.07  1424.92  1426.38  1426.44
eigval :     1427.00  1427.25  1428.35  1432.07  1446.22  1446.35
eigval :     1462.83  1463.69  1469.30  1479.64  1482.90  1482.94
eigval :     1486.06  1487.30  1488.07  1492.38  1496.00  1499.49
eigval :     1502.30  1511.10  1518.16  1544.77  1550.02  1553.61
eigval :     1559.88  1560.55  1561.10  1561.59  1572.43  1574.45
eigval :     1574.53  1574.84  1575.82  1579.56  1588.13  1594.81
eigval :     1595.00  1599.54  1602.56  2223.76  3018.04  3018.51
eigval :     3022.01  3023.45  3025.52  3029.18  3034.41  3042.69
eigval :     3045.61  3065.73  3068.73  3069.02  3069.45  3069.66
eigval :     3071.11  3071.20  3071.26  3071.33  3076.33  3078.86
eigval :     3078.94  3079.63  3079.64  3080.18  3082.57  3082.85
eigval :     3082.96  3083.06  3084.05  3084.50  3085.42  3086.46
eigval :     3089.92  3090.05  3090.44  3090.64  3092.37  3092.98
eigval :     3094.09  3094.75  3095.31  3096.27  3096.54  3097.09
eigval :     3097.66  3099.05  3101.28

   temp. (K)  partition function   enthalpy   heat capacity  entropy
                                   cal/mol     cal/K/mol   cal/K/mol   J/K/mol
 298.15  VIB  0.207E+29            34253.130    210.177    216.772
         ROT  0.308E+09              888.752      2.981     41.821
         INT  0.637E+37            35141.882    213.158    258.594
         TR   0.248E+29             1481.254      4.968     46.146
         TOT                       36623.1364   218.1264   304.7394  1275.0295

       T/K    H(0)-H(T)+PV         H(T)/Eh          T*S/Eh         G(T)/Eh
   ------------------------------------------------------------------------
    298.15    0.583627E-01    0.954771E+00    0.144792E+00    0.809979E+00
   ------------------------------------------------------------------------

         :::::::::::::::::::::::::::::::::::::::::::::::::::::
         ::                  THERMODYNAMIC                  ::
         :::::::::::::::::::::::::::::::::::::::::::::::::::::
         :: total free energy        -171.151058473175 Eh   ::
         ::.................................................::
         :: total energy             -171.961037599876 Eh   ::
         :: zero point energy           0.896407953125 Eh   ::
         :: G(RRHO) w/o ZPVE           -0.086428826423 Eh   ::
         :: G(RRHO) contrib.            0.809979126701 Eh   ::
         :::::::::::::::::::::::::::::::::::::::::::::::::::::

           -------------------------------------------------
          | TOTAL ENERGY             -171.961037599876 Eh   |
          | TOTAL ENTHALPY           -171.006266963990 Eh   |
          | TOTAL FREE ENERGY        -171.151058473175 Eh   |
          | GRADIENT NORM               0.000072556670 Eh/α |
          | HOMO-LUMO GAP               0.472509917565 eV   |
           -------------------------------------------------

 * finished run on 2025/07/20 at 05:52:16.769
