   * xtb version 6.7.1 (edcfbbe) compiled by 'albert@albert-system' on 2024-07-22

   ID    Z sym.   atoms
    1    6 C      1-11, 13-38, 40, 42-68
    2    7 N      12, 39, 41
    3    1 H      69-115

          program call               : xtb data2507/toluene/2PCzBN-tPh/2PCzBN-tPh.xyz --gfn 2 --gbsa toluene --ohess vtight --parallel 40 --molden --ceasefiles --namespace data2507/toluene/2PCzBN-tPh/2PCzBN-tPh_toluene_S0_preOpt
      * Solvation model:               GBSA
        Solvent                        toluene
        Solvent mass                       9.2140E+01 g/mol
          :  Hamiltonian                  GFN2-xTB          :
 * total energy  :  -172.0196587 Eh     change       -0.1261554E-08 Eh
 * total energy  :  -172.0370690 Eh     change       -0.1741024E-01 Eh
 * total energy  :  -172.0414086 Eh     change       -0.4339585E-02 Eh
 * total energy  :  -172.0426298 Eh     change       -0.1221271E-02 Eh
 * total energy  :  -172.0429404 Eh     change       -0.3105984E-03 Eh
 * total energy  :  -172.0439292 Eh     change       -0.9887652E-03 Eh
 * total energy  :  -172.0442439 Eh     change       -0.3146671E-03 Eh
 * total energy  :  -172.0445869 Eh     change       -0.3430241E-03 Eh
 * total energy  :  -172.0449240 Eh     change       -0.3370773E-03 Eh
 * total energy  :  -172.0452276 Eh     change       -0.3036051E-03 Eh
 * total energy  :  -172.0478138 Eh     change       -0.7378005E-06 Eh
 * total energy  :  -172.0478144 Eh     change       -0.6448752E-06 Eh
 * total energy  :  -172.0478150 Eh     change       -0.6139465E-06 Eh
 * total energy  :  -172.0478158 Eh     change       -0.7645507E-06 Eh
 * total energy  :  -172.0478166 Eh     change       -0.8182537E-06 Eh
 * total energy  :  -172.0478176 Eh     change       -0.9562565E-06 Eh
 * total energy  :  -172.0478186 Eh     change       -0.9662618E-06 Eh
 * total energy  :  -172.0478194 Eh     change       -0.8885962E-06 Eh
 * total energy  :  -172.0478194 Eh     change       -0.2356785E-08 Eh
   *** GEOMETRY OPTIMIZATION CONVERGED AFTER 94 ITERATIONS ***

 final structure:
================
115
 xtb: 6.7.1 (edcfbbe)
C           -1.13666199815390       -8.71073690529028       -1.44296167917516
C           -0.13844902912281       -8.14960518308731       -0.42574881079633
C            1.26673312130980       -8.63277412652302       -0.81555254123614
C           -0.51025458928695       -8.69485989525055        0.96153172744708
C           -0.14241892232879       -6.63038109657719       -0.37637587669521
C           -0.96911678996023       -5.84688931503291       -1.17422273151516
C           -0.94781187841013       -4.46642410405757       -1.09595426124689
C           -0.08610657969051       -3.81213766234292       -0.22068297503272
C           -0.05758794608391       -2.34732802610552       -0.14004061036353
C            1.15014305564518       -1.66955903346738        0.01553906080541
C            1.18928889831143       -0.28666249843342        0.10275222359468
N            2.41371810201669        0.36443862515931        0.27829652195240
C            2.73772955362157        1.23309991124097        1.30509467048155
C            1.99310130080972        1.61626217318699        2.40996466051845
C            2.58104653981640        2.47022063214338        3.32108058305871
C            3.89063829374227        2.94233788674914        3.16205663544859
C            4.47357655928418        3.85280473945054        4.16085848228462
C            4.26761479313759        3.64426730715844        5.52314070267887
C            4.82216368598911        4.49759596616410        6.45929437685520
C            5.58903062284637        5.57653552130128        6.05129922051752
C            5.79970249337890        5.79472074117836        4.69970955408304
C            5.24893130073622        4.94000503778953        3.76257859616621
C            4.63851681426084        2.53426617586192        2.06432773850702
C            4.06942880269216        1.67352949324091        1.13904203714797
C            4.56717454268041        1.03679610131808       -0.05125885177617
C            5.77860424918593        1.08789004823217       -0.72321211796319
C            5.94148877284397        0.34682161129721       -1.88764480576053
C            7.21806702413848        0.38473040790808       -2.61943488607601
C            8.43017857762632        0.33745155599988       -1.93374871584716
C            9.63035518999370        0.37394928571127       -2.61950308902308
C            9.64087146069171        0.46275417627603       -4.00187793077696
C            8.44207653867285        0.51287412531613       -4.69407945852344
C            7.24107242891527        0.47181599452231       -4.00992699335588
C            4.88061821030180       -0.43310876736511       -2.36702946646195
C            3.66728601655842       -0.50250891128941       -1.71194813483737
C            3.51778018244366        0.23047490349601       -0.54439110558323
C           -0.00266844237062        0.45581451769593        0.01382225188331
C            0.02761183991126        1.86245886134903        0.08963741060175
N            0.05570345380273        3.00894073567896        0.15104046384607
C           -1.22278525759733       -0.22515341140659       -0.15247402019757
N           -2.42052087693560        0.48821877036060       -0.25248775173182
C           -3.53137698656543        0.30808481053998        0.55219692994012
C           -3.71547223174732       -0.54740500947631        1.62786589419105
C           -4.92705468556187       -0.50282398988271        2.28829762046634
C           -5.95181556930915        0.37272001422791        1.90496567198952
C           -7.22827475473328        0.37821525751151        2.63778833708413
C           -8.43896208052437        0.46395455750392        1.95319734809024
C           -9.63912099754661        0.46614386685266        2.63989745543576
C           -9.65110129161728        0.38670779505362        4.02279420199471
C           -8.45368726631131        0.30502142624057        4.71440092274541
C           -7.25289478398943        0.29858173690294        4.02872728660395
C           -5.75370175367481        1.23591919839126        0.83388843068148
C           -4.54332396472951        1.21132145666789        0.15852735953393
C           -4.01650873511983        1.95737838302375       -0.95323173498484
C           -4.54512425350612        2.94281831126844       -1.77233232905556
C           -3.77174882367546        3.45037238567060       -2.80890613867147
C           -4.30393490779602        4.50191949911687       -3.69065323683035
C           -5.61715197098172        4.44593433316020       -4.15297572542546
C           -6.11447973616260        5.43181514321827       -4.98532220600699
C           -5.31030369920657        6.49342226565636       -5.36610257282919
C           -4.00416983895831        6.56149344191529       -4.90967372431702
C           -3.50387477070927        5.57386127447599       -4.08109358053940
C           -2.48298942955716        2.94419426295734       -3.02387978755618
C           -1.94028204993836        1.95765802238975       -2.22599480330329
C           -2.70471788490674        1.48198918981742       -1.17189204763234
C           -1.23749804726863       -1.60985319921500       -0.21742829004475
C            0.74957281965468       -4.59065526426186        0.57804327519196
C            0.71394096888811       -5.96761582297288        0.50177974833020
H           -2.15489537221029       -8.41838411106074       -1.19612435131601
H           -0.90160202129096       -8.37441866702820       -2.45036058905418
H           -1.08910587864837       -9.79782216391762       -1.43352628282010
H            2.01068855539979       -8.32224455943434       -0.08708182297370
H            1.54921825484302       -8.22804065072765       -1.78563897306139
H            1.28382491014144       -9.71882897637835       -0.87701070949087
H            0.20814912812217       -8.38627597372723        1.71599300446480
H           -1.49316905794907       -8.33329243275600        1.25784952066344
H           -0.53500354508220       -9.78228747238913        0.94037809112788
H           -1.64792342443381       -6.30386680389356       -1.87537504437777
H           -1.59118734981650       -3.89039389236952       -1.74524171351888
H            2.07691066273261       -2.21925494908545        0.07174695160161
H            0.98313148860443        1.26454249247743        2.56237205502617
H            2.00744662187386        2.79816738038923        4.17519094152673
H            3.68457945516188        2.79498612197219        5.84943410905099
H            4.65725251309796        4.31919884599656        7.51246367039320
H            6.02034735962997        6.24398601700980        6.78314258983486
H            6.39379080101191        6.63690572329079        4.37436569448512
H            5.40195199618198        5.12600706818415        2.70916693343821
H            5.66050486437994        2.86111433486758        1.94636530180214
H            6.57700097415477        1.71604515855093       -0.35834557840083
H            8.42849361692667        0.25263839892237       -0.85639453913074
H           10.56222743524035        0.33110801340735       -2.07369449203795
H           10.57877005419174        0.49307638769064       -4.53719207033697
H            8.44332664080020        0.58691308767238       -5.77240703760338
H            6.30992546252862        0.52881140545760       -4.55533832670417
H            5.02399654834433       -1.01151478098627       -3.26766038059724
H            2.86275718510672       -1.10718724580007       -2.10354155095951
H           -2.93874648425629       -1.22713469666357        1.94550988978088
H           -5.09821661857219       -1.17544317185637        3.11564834824174
H           -8.43720494400281        0.50982183107169        0.87351621447124
H          -10.57001779625346        0.52730450955608        2.09417309032015
H          -10.58893070302830        0.38956155819659        4.55906762451730
H           -8.45576146299823        0.24846878244171        5.79377743892127
H           -6.32220676336539        0.25270752576179        4.57597677845764
H           -6.52270260261876        1.93674708826802        0.54651900778868
H           -5.53998803056765        3.32220156861675       -1.59477824905311
H           -6.24484280240749        3.61230647459841       -3.87239549236181
H           -7.13336438096450        5.37094166422297       -5.34072770583990
H           -5.69984264494224        7.26435564112653       -6.01502606070816
H           -3.37257958263525        7.38928664560172       -5.19928058414855
H           -2.48963360857902        5.64116026147070       -3.71410102691301
H           -1.90566537399134        3.32186446083597       -3.85467952819855
H           -0.95152099634462        1.57230383068189       -2.42770586027698
H           -2.18465217446575       -2.11381060513456       -0.33192035984798
H            1.41355748063842       -4.11371671764267        1.28432441967994
H            1.37109822040163       -6.53273112371997        1.14516924523125

          :  Hamiltonian                  GFN2-xTB          :
         :: gradient norm              0.000064019311 Eh/a0 ::
         :: HOMO-LUMO gap              2.097351054862 eV    ::
         :: SCC energy              -175.343870888195 Eh    ::
         :: -> dispersion             -0.158107337727 Eh    ::
         :: -> Gsolv                  -0.075054600925 Eh    ::
         :: repulsion energy           3.296051442146 Eh    ::

    * Orbital Energies and Occupations

         #    Occupation            Energy/Eh            Energy/eV
      -------------------------------------------------------------
         1        2.0000           -0.6927319             -18.8502
       ...           ...                  ...                  ...
       149        2.0000           -0.4031842             -10.9712
       150        2.0000           -0.4031776             -10.9710
       151        2.0000           -0.4021594             -10.9433
       152        2.0000           -0.4020477             -10.9403
       153        2.0000           -0.4018391             -10.9346
       154        2.0000           -0.4006651             -10.9027
       155        2.0000           -0.3944519             -10.7336
       156        2.0000           -0.3931974             -10.6994
       157        2.0000           -0.3931207             -10.6974
       158        2.0000           -0.3806044             -10.3568
       159        2.0000           -0.3805137             -10.3543
       160        2.0000           -0.3654606              -9.9447
       161        2.0000           -0.3653587              -9.9419 (HOMO)
       162                         -0.2882824              -7.8446 (LUMO)
       163                         -0.2582645              -7.0277
       164                         -0.2499526              -6.8016
       165                         -0.2481245              -6.7518
       166                         -0.2456579              -6.6847
       167                         -0.2455546              -6.6819
       168                         -0.2349835              -6.3942
       169                         -0.2314338              -6.2976
       170                         -0.2288516              -6.2274
       171                         -0.2265741              -6.1654
       172                         -0.2212974              -6.0218
       ...                                ...                  ...
       319                          1.1558130              31.4513
      -------------------------------------------------------------
                  HL-Gap            0.0770763 Eh            2.0974 eV

     #   Z          covCN         q      C6AA      α(0)
     1   6 C        3.761    -0.109    22.621     6.780
     2   6 C        3.902     0.026    20.084     6.370
     3   6 C        3.761    -0.106    22.569     6.772
     4   6 C        3.761    -0.106    22.568     6.772
     5   6 C        2.973     0.014    27.699     8.633
     6   6 C        2.924    -0.038    28.951     8.824
     7   6 C        2.923    -0.034    28.858     8.810
     8   6 C        2.977     0.004    27.925     8.668
     9   6 C        2.973     0.025    27.437     8.592
    10   6 C        2.926    -0.052    29.294     8.876
    11   6 C        2.914     0.072    26.387     8.423
    12   7 N        2.803    -0.053    22.261     7.008
    13   6 C        3.071     0.048    26.857     8.497
    14   6 C        2.908    -0.048    29.198     8.860
    15   6 C        2.929    -0.037    28.909     8.818
    16   6 C        2.976     0.001    28.008     8.681
    17   6 C        2.977     0.010    27.791     8.647
    18   6 C        2.925    -0.036    28.884     8.814
    19   6 C        2.918    -0.031    28.774     8.796
    20   6 C        2.920    -0.033    28.820     8.804
    21   6 C        2.918    -0.031    28.767     8.795
    22   6 C        2.925    -0.035    28.871     8.812
    23   6 C        2.918    -0.038    28.949     8.823
    24   6 C        3.065    -0.017    28.366     8.734
    25   6 C        3.063    -0.016    28.353     8.732
    26   6 C        2.918    -0.038    28.937     8.821
    27   6 C        2.976     0.000    28.020     8.683
    28   6 C        2.977     0.010    27.796     8.648
    29   6 C        2.925    -0.035    28.880     8.813
    30   6 C        2.918    -0.031    28.771     8.796
    31   6 C        2.920    -0.033    28.820     8.803
    32   6 C        2.918    -0.031    28.773     8.796
    33   6 C        2.925    -0.036    28.885     8.814
    34   6 C        2.929    -0.038    28.939     8.822
    35   6 C        2.908    -0.052    29.302     8.876
    36   6 C        3.072     0.046    26.895     8.503
    37   6 C        2.974    -0.018    28.443     8.748
    38   6 C        1.909     0.132    27.868     8.526
    39   7 N        0.911    -0.282    27.278     7.554
    40   6 C        2.914     0.072    26.387     8.423
    41   7 N        2.803    -0.053    22.258     7.007
    42   6 C        3.072     0.046    26.896     8.503
    43   6 C        2.908    -0.052    29.303     8.876
    44   6 C        2.929    -0.038    28.940     8.822
    45   6 C        2.976     0.000    28.020     8.683
    46   6 C        2.977     0.010    27.797     8.648
    47   6 C        2.925    -0.035    28.881     8.813
    48   6 C        2.918    -0.031    28.771     8.796
    49   6 C        2.920    -0.033    28.820     8.803
    50   6 C        2.918    -0.031    28.772     8.796
    51   6 C        2.925    -0.036    28.885     8.814
    52   6 C        2.918    -0.038    28.937     8.821
    53   6 C        3.064    -0.016    28.351     8.731
    54   6 C        3.064    -0.017    28.367     8.734
    55   6 C        2.918    -0.038    28.948     8.823
    56   6 C        2.976     0.001    28.007     8.681
    57   6 C        2.977     0.010    27.793     8.648
    58   6 C        2.925    -0.035    28.883     8.813
    59   6 C        2.918    -0.031    28.775     8.797
    60   6 C        2.920    -0.033    28.820     8.804
    61   6 C        2.918    -0.031    28.766     8.795
    62   6 C        2.925    -0.035    28.871     8.812
    63   6 C        2.929    -0.036    28.908     8.817
    64   6 C        2.908    -0.048    29.196     8.860
    65   6 C        3.071     0.048    26.858     8.497
    66   6 C        2.926    -0.052    29.296     8.876
    67   6 C        2.923    -0.035    28.860     8.810
    68   6 C        2.926    -0.034    28.845     8.808
    69   1 H        0.925     0.037     2.484     2.465
    70   1 H        0.925     0.037     2.485     2.465
    71   1 H        0.925     0.039     2.460     2.453
    72   1 H        0.925     0.038     2.473     2.459
    73   1 H        0.925     0.034     2.530     2.487
    74   1 H        0.925     0.041     2.438     2.442
    75   1 H        0.925     0.038     2.473     2.459
    76   1 H        0.925     0.034     2.529     2.487
    77   1 H        0.925     0.041     2.438     2.442
    78   1 H        0.926     0.045     2.383     2.414
    79   1 H        0.926     0.035     2.517     2.481
    80   1 H        0.926     0.059     2.208     2.324
    81   1 H        0.926     0.019     2.748     2.592
    82   1 H        0.926     0.036     2.502     2.474
    83   1 H        0.926     0.031     2.573     2.509
    84   1 H        0.926     0.031     2.576     2.510
    85   1 H        0.926     0.031     2.578     2.511
    86   1 H        0.926     0.031     2.573     2.508
    87   1 H        0.926     0.032     2.564     2.504
    88   1 H        0.926     0.039     2.465     2.455
    89   1 H        0.926     0.037     2.484     2.464
    90   1 H        0.926     0.032     2.562     2.503
    91   1 H        0.926     0.031     2.579     2.511
    92   1 H        0.926     0.030     2.586     2.515
    93   1 H        0.926     0.030     2.583     2.513
    94   1 H        0.926     0.031     2.573     2.509
    95   1 H        0.926     0.038     2.482     2.464
    96   1 H        0.926     0.031     2.576     2.510
    97   1 H        0.926     0.031     2.574     2.509
    98   1 H        0.926     0.038     2.481     2.463
    99   1 H        0.926     0.032     2.561     2.503
   100   1 H        0.926     0.031     2.578     2.511
   101   1 H        0.926     0.030     2.586     2.515
   102   1 H        0.926     0.030     2.584     2.514
   103   1 H        0.926     0.031     2.574     2.509
   104   1 H        0.926     0.037     2.483     2.464
   105   1 H        0.926     0.039     2.463     2.454
   106   1 H        0.926     0.032     2.557     2.500
   107   1 H        0.926     0.031     2.569     2.507
   108   1 H        0.926     0.031     2.578     2.511
   109   1 H        0.926     0.030     2.579     2.511
   110   1 H        0.926     0.031     2.577     2.510
   111   1 H        0.926     0.036     2.506     2.475
   112   1 H        0.926     0.019     2.747     2.592
   113   1 H        0.926     0.059     2.207     2.323
   114   1 H        0.926     0.035     2.521     2.483
   115   1 H        0.926     0.038     2.475     2.460

molecular dipole:
                 x           y           z       tot (Debye)
 q only:       -0.063      -2.747      -0.152
   full:       -0.060      -3.082      -0.162       7.845

 projected vibrational frequencies (cm⁻¹)
eigval :       -0.00    -0.00     0.00     0.00     0.00     0.00
eigval :        6.66     8.03     9.38    11.55    13.99    28.11
eigval :       34.15    34.70    35.77    38.15    41.71    43.48
eigval :       45.19    48.66    54.09    59.82    61.32    63.57
eigval :       69.88    72.48    83.83    89.15    92.49   108.81
eigval :      111.03   117.11   125.23   133.36   149.44   153.76
eigval :      157.76   163.00   175.30   180.42   186.88   208.36
eigval :      213.39   217.46   220.15   230.61   231.80   246.02
eigval :      252.14   260.05   269.50   274.99   288.90   296.18
eigval :      302.58   312.20   313.69   317.38   321.49   335.55
eigval :      341.61   348.72   370.88   371.15   373.40   373.75
eigval :      374.34   376.25   379.53   380.51   389.14   395.45
eigval :      395.87   397.71   429.81   432.59   435.48   438.80
eigval :      456.01   470.09   475.75   476.40   479.39   482.31
eigval :      500.99   502.95   504.87   522.15   537.52   541.16
eigval :      553.39   558.09   563.95   568.67   571.19   586.04
eigval :      586.63   591.16   591.84   600.60   602.90   607.02
eigval :      612.74   617.88   624.16   624.59   633.46   634.69
eigval :      635.58   662.14   667.70   668.23   673.10   674.38
eigval :      683.26   684.49   684.82   693.41   705.87   706.20
eigval :      707.29   717.31   734.45   741.99   742.16   752.69
eigval :      756.10   758.79   759.32   767.04   816.80   818.57
eigval :      819.40   823.59   824.40   827.36   861.82   862.59
eigval :      864.01   870.75   871.42   872.80   873.22   874.08
eigval :      878.29   878.84   879.93   881.46   884.78   894.39
eigval :      899.58   900.02   902.19   902.60   905.19   905.69
eigval :      907.28   907.98   911.92   913.67   921.63   925.73
eigval :      928.71   929.05   930.32   930.68   932.35   932.56
eigval :      933.29   934.59   938.18   959.55   962.35   964.77
eigval :      971.20   971.25   980.52   981.04  1010.20  1026.41
eigval :     1027.21  1034.53  1035.52  1044.87  1070.20  1071.16
eigval :     1071.66  1074.51  1084.95  1085.61  1085.84  1086.03
eigval :     1092.63  1119.99  1120.24  1120.38  1120.66  1124.39
eigval :     1143.65  1153.79  1156.99  1158.45  1166.79  1179.53
eigval :     1180.70  1180.79  1180.93  1186.23  1194.01  1199.31
eigval :     1199.57  1200.75  1201.93  1213.65  1218.04  1219.69
eigval :     1219.84  1220.74  1223.26  1224.63  1232.19  1237.01
eigval :     1238.88  1275.18  1278.28  1278.81  1280.06  1280.36
eigval :     1280.89  1281.09  1281.27  1288.47  1293.82  1304.56
eigval :     1305.27  1307.62  1312.44  1316.53  1316.84  1317.05
eigval :     1318.64  1320.34  1336.12  1344.76  1345.48  1357.33
eigval :     1358.78  1392.06  1400.53  1402.67  1404.96  1407.27
eigval :     1407.65  1420.91  1426.92  1428.84  1428.93  1431.41
eigval :     1431.80  1437.14  1438.42  1448.49  1459.52  1460.21
eigval :     1466.14  1466.39  1488.21  1490.91  1491.37  1492.46
eigval :     1492.69  1495.01  1495.25  1500.24  1505.02  1511.05
eigval :     1515.88  1520.53  1559.28  1563.85  1565.21  1567.08
eigval :     1574.82  1575.19  1581.21  1581.29  1583.18  1583.36
eigval :     1593.07  1593.23  1596.58  1596.77  1601.14  1601.99
eigval :     1602.11  1612.74  1613.32  2351.38  3021.88  3022.62
eigval :     3025.56  3026.84  3029.73  3031.71  3037.06  3045.15
eigval :     3048.52  3064.82  3064.87  3065.47  3065.49  3066.14
eigval :     3066.20  3066.90  3067.18  3071.61  3071.87  3074.14
eigval :     3074.62  3074.74  3075.17  3075.52  3076.37  3076.95
eigval :     3077.00  3078.23  3078.30  3078.53  3078.76  3087.01
eigval :     3087.07  3087.20  3087.35  3087.43  3087.80  3088.79
eigval :     3088.90  3090.00  3090.16  3090.37  3092.49  3092.81
eigval :     3104.51  3105.29  3115.01

   temp. (K)  partition function   enthalpy   heat capacity  entropy
                                   cal/mol     cal/K/mol   cal/K/mol   J/K/mol
 298.15  VIB  0.721E+28            33896.800    208.750    214.358
         ROT  0.311E+09              888.752      2.981     41.843
         INT  0.224E+37            34785.552    211.731    256.200
         TR   0.248E+29             1481.254      4.968     46.146
         TOT                       36266.8060   216.6988   302.3462  1265.0167

       T/K    H(0)-H(T)+PV         H(T)/Eh          T*S/Eh         G(T)/Eh
   ------------------------------------------------------------------------
    298.15    0.577948E-01    0.958302E+00    0.143654E+00    0.814648E+00
   ------------------------------------------------------------------------

         :::::::::::::::::::::::::::::::::::::::::::::::::::::
         ::                  THERMODYNAMIC                  ::
         :::::::::::::::::::::::::::::::::::::::::::::::::::::
         :: total free energy        -171.233171548580 Eh   ::
         ::.................................................::
         :: total energy             -172.047819440855 Eh   ::
         :: zero point energy           0.900507510924 Eh   ::
         :: G(RRHO) w/o ZPVE           -0.085859618649 Eh   ::
         :: G(RRHO) contrib.            0.814647892274 Eh   ::
         :::::::::::::::::::::::::::::::::::::::::::::::::::::

           -------------------------------------------------
          | TOTAL ENERGY             -172.047819440855 Eh   |
          | TOTAL ENTHALPY           -171.089517095731 Eh   |
          | TOTAL FREE ENERGY        -171.233171548580 Eh   |
          | GRADIENT NORM               0.000064080997 Eh/α |
          | HOMO-LUMO GAP               2.097351817791 eV   |
           -------------------------------------------------

 * finished run on 2025/07/20 at 05:22:01.545
