   * xtb version 6.7.1 (edcfbbe) compiled by 'albert@albert-system' on 2024-07-22

   ID    Z sym.   atoms
    1    6 C      1-11, 13-38, 40, 42-68
    2    7 N      12, 39, 41
    3    1 H      69-115

          program call               : xtb data2507/toluene/2PCzBN-tPh/2PCzBN-tPh_toluene_S0_crest.xyz --gfn 2 --gbsa toluene --ohess vtight --parallel 40 --molden --ceasefiles --namespace data2507/toluene/2PCzBN-tPh/2PCzBN-tPh_toluene_S0_finalOpt
      * Solvation model:               GBSA
        Solvent                        toluene
        Solvent mass                       9.2140E+01 g/mol
          :  Hamiltonian                  GFN2-xTB          :
 * total energy  :  -172.0486998 Eh     change       -0.2469960E-08 Eh
 * total energy  :  -172.0487561 Eh     change       -0.5626070E-04 Eh
 * total energy  :  -172.0487886 Eh     change       -0.3249926E-04 Eh
 * total energy  :  -172.0487993 Eh     change       -0.1076117E-04 Eh
 * total energy  :  -172.0488075 Eh     change       -0.8175269E-05 Eh
 * total energy  :  -172.0488143 Eh     change       -0.6750310E-05 Eh
 * total energy  :  -172.0488205 Eh     change       -0.6286451E-05 Eh
 * total energy  :  -172.0488274 Eh     change       -0.6873957E-05 Eh
 * total energy  :  -172.0488361 Eh     change       -0.8653057E-05 Eh
 * total energy  :  -172.0488441 Eh     change       -0.8067430E-05 Eh
 * total energy  :  -172.0489878 Eh     change       -0.5389426E-06 Eh
 * total energy  :  -172.0489884 Eh     change       -0.5645468E-06 Eh
 * total energy  :  -172.0489890 Eh     change       -0.5854835E-06 Eh
 * total energy  :  -172.0489896 Eh     change       -0.6024907E-06 Eh
 * total energy  :  -172.0489901 Eh     change       -0.5822725E-06 Eh
 * total energy  :  -172.0489908 Eh     change       -0.6083498E-06 Eh
 * total energy  :  -172.0489914 Eh     change       -0.6350905E-06 Eh
 * total energy  :  -172.0489921 Eh     change       -0.6854346E-06 Eh
 * total energy  :  -172.0489921 Eh     change       -0.1957204E-08 Eh
   *** GEOMETRY OPTIMIZATION CONVERGED AFTER 68 ITERATIONS ***

 final structure:
================
115
 xtb: 6.7.1 (edcfbbe)
C           -0.85463123380369       -8.76623009499666       -3.06325326884438
C            0.21917296549760       -7.81116872040627       -3.59331279584619
C            0.03863206153249       -7.68277533792343       -5.11338352924985
C            1.59608878977880       -8.41743515315736       -3.28234574872343
C            0.13667734691546       -6.42925037963471       -2.96566945345870
C           -0.81627163876234       -6.08330999699935       -2.01393607120191
C           -0.85572161251788       -4.81601518875880       -1.46237273693780
C            0.06692339078295       -3.84242548422175       -1.83407057140765
C            0.03971539079116       -2.50793474905610       -1.22454905542975
C            1.22775560833400       -1.84096730805985       -0.93080501494372
C            1.21868446871850       -0.59019878645685       -0.33219352722166
N            2.42286949333625        0.04793020255818       -0.03036664775647
C            3.47713776554170       -0.51134508981349        0.67232217984892
C            3.59191781323175       -1.76624044035080        1.25143777843304
C            4.76418675914360       -2.06742716652169        1.91562075206942
C            5.81351936281774       -1.14590724473687        2.03008001383555
C            7.04866335861318       -1.52059758043770        2.73736869610486
C            7.62201042776841       -2.77661511854448        2.54877968502772
C            8.78682143232933       -3.12636097476682        3.20671377168804
C            9.39726115829279       -2.22916124214699        4.06756177860597
C            8.83526246593443       -0.97847758011291        4.26465037171010
C            7.67299089581614       -0.62555641426008        3.60374681182042
C            5.67704601803792        0.12107788129065        1.47588257749843
C            4.51133518518219        0.44217807991682        0.79790737424888
C            4.05793680308504        1.63088687033035        0.12612440948348
C            4.63470672889744        2.86998174401709       -0.10459755982696
C            3.93037211434352        3.82275649377502       -0.83029978796741
C            4.50996888076354        5.15243963650504       -1.07821030195899
C            5.85560288528846        5.29343761237844       -1.41128882184455
C            6.39628972730652        6.54414248952820       -1.64704668389303
C            5.60353588489024        7.67593124657918       -1.55001295541071
C            4.26534194891432        7.54820790982500       -1.21567371655627
C            3.72223981011784        6.29803333054186       -0.98291222252237
C            2.66453160212387        3.50622922210408       -1.34062951206972
C            2.07706697460471        2.27597090980616       -1.12902205375156
C            2.76588445936194        1.34583184826670       -0.36678595773092
C           -0.00779164713193        0.01929900503977       -0.00683560703408
C           -0.03196185886103        1.20299406181055        0.75580410226606
N           -0.05253855896378        2.12794122840703        1.43655596218186
C           -1.20999289011130       -0.63171071855629       -0.34156781782352
N           -2.43788095013819       -0.03444383730502       -0.05143677673389
C           -3.47261096774815       -0.63219145546922        0.64791194731947
C           -3.53810755167779       -1.88713570974283        1.23416774487552
C           -4.70022711548364       -2.23395445850227        1.89365207452386
C           -5.78753482840157       -1.35610886194898        1.99706403442837
C           -7.00935421300915       -1.77779618021434        2.70098661410307
C           -7.53061041550396       -3.05666038096030        2.51524088936537
C           -8.68263332406515       -3.45091777453451        3.17049388599599
C           -9.33190435047554       -2.57606889680594        4.02588775992813
C           -8.82170883060422       -1.30296160090426        4.22024596192264
C           -7.67229500670949       -0.90573263217686        3.56205396291096
C           -5.70034025654345       -0.08710774999137        1.43756905891653
C           -4.54564890279189        0.27833943055981        0.76312169232673
C           -4.13483364972083        1.48289442940349        0.09234712495491
C           -4.75725713822582        2.69903577085931       -0.14060420174141
C           -4.09098290561515        3.67424776437387       -0.87249475094458
C           -4.72777952041843        4.97722845392660       -1.12426183149009
C           -5.41313339861159        5.63662800211400       -0.10586651889419
C           -6.01364825664390        6.86045869885181       -0.33749056935534
C           -5.94513240251029        7.44392673236348       -1.59199787927972
C           -5.26848617582334        6.79646255340550       -2.61259179390320
C           -4.66256622615599        5.57511761983328       -2.38095695271978
C           -2.81306866021373        3.40587113883398       -1.37923968276535
C           -2.17429686574647        2.20355949603865       -1.15364876059421
C           -2.82972452772546        1.24814312401099       -0.39334610640086
C           -1.17265497911563       -1.88284829632325       -0.93881284316875
C            1.02357985014496       -4.18188924536715       -2.78913378900112
C            1.04982215623187       -5.44531559831816       -3.34234986952971
H           -0.75308269760371       -8.91448626445892       -1.99042388541061
H           -1.85320584592377       -8.39367736590688       -3.28055769899081
H           -0.74644562406700       -9.73514161282467       -3.54661298210124
H            0.81624454578195       -7.06632103930302       -5.55592319925837
H           -0.92564569673143       -7.23268393310373       -5.34204323586977
H            0.07889806815860       -8.66578929239935       -5.57782055151772
H            2.39905435480277       -7.81508961606821       -3.69823565651018
H            1.74336852003773       -8.48666176902763       -2.20613016862755
H            1.66729807837130       -9.41742663798048       -3.70487263625051
H           -1.54693243501629       -6.80275760291096       -1.68262510689225
H           -1.59941281563972       -4.59189706768687       -0.71167186217288
H            2.17655727929473       -2.29835450601826       -1.16315686112681
H            2.79034424824207       -2.48751642987978        1.19769163168389
H            4.86785746670493       -3.03589532443025        2.38206809207818
H            7.16029237428953       -3.47537189438245        1.86598848715307
H            9.22219552930318       -4.10235624125673        3.04545982345266
H           10.30629407327333       -2.50338526578374        4.58292540368804
H            9.30435870815879       -0.27534424535782        4.93819648851394
H            7.23114611952776        0.34570939518410        3.77454586253144
H            6.47579794049631        0.84263617122066        1.55540958302205
H            5.61301711418921        3.09640925621372        0.29126819709206
H            6.47564479990615        4.41348509644461       -1.50542473608287
H            7.44037785256603        6.63694499779051       -1.91041539729102
H            6.02659128227743        8.65283285424318       -1.73368445353395
H            3.64223434233102        8.42740869317311       -1.13283293243486
H            2.68238565170276        6.20627533092261       -0.70326248431868
H            2.14320315864497        4.23989246258192       -1.93741089624312
H            1.11143153733831        2.05214951188900       -1.55645589664681
H           -2.70352496665448       -2.57067182669626        1.19261520087970
H           -4.76641186972075       -3.20288449239158        2.36603396007976
H           -7.03870427264129       -3.73842368315395        1.83636737799994
H           -9.07772329868301       -4.44424792198085        3.01148950582126
H          -10.23105087358660       -2.88503978497434        4.53889611031629
H           -9.32130878690736       -0.61701275363865        4.88957328874878
H           -7.27063400245596        0.08317796364188        3.73066695528979
H           -6.52841869370275        0.60141127227585        1.50962050412301
H           -5.75837331612224        2.87664334580676        0.22202891385535
H           -5.45549675089709        5.19323322304168        0.87875172595950
H           -6.53564511183415        7.36279272146261        0.46451625141865
H           -6.41611837003483        8.39915230861758       -1.77316195604150
H           -5.21451587896361        7.24481326695710       -3.59455042064297
H           -4.14996549389368        5.06823309293312       -3.18595502516252
H           -2.30488616472367        4.17003870088304       -1.94836621239784
H           -1.19287136958271        2.02226420813414       -1.56489916040350
H           -2.10282507301982       -2.35633630019569       -1.21159841101877
H            1.73713279694666       -3.44188347700695       -3.12108440937596
H            1.80308081622350       -5.66317068792970       -4.08415100549731

          :  Hamiltonian                  GFN2-xTB          :
         :: gradient norm              0.000042743859 Eh/a0 ::
         :: HOMO-LUMO gap              2.099121283276 eV    ::
         :: SCC energy              -175.345930420403 Eh    ::
         :: -> dispersion             -0.159830294231 Eh    ::
         :: -> Gsolv                  -0.074749942050 Eh    ::
         :: repulsion energy           3.296938347397 Eh    ::

    * Orbital Energies and Occupations

         #    Occupation            Energy/Eh            Energy/eV
      -------------------------------------------------------------
         1        2.0000           -0.6918303             -18.8257
       ...           ...                  ...                  ...
       149        2.0000           -0.4032829             -10.9739
       150        2.0000           -0.4030992             -10.9689
       151        2.0000           -0.4026088             -10.9555
       152        2.0000           -0.4023621             -10.9488
       153        2.0000           -0.4022568             -10.9460
       154        2.0000           -0.4009910             -10.9115
       155        2.0000           -0.3938150             -10.7163
       156        2.0000           -0.3936509             -10.7118
       157        2.0000           -0.3929358             -10.6923
       158        2.0000           -0.3811597             -10.3719
       159        2.0000           -0.3809196             -10.3653
       160        2.0000           -0.3671262              -9.9900
       161        2.0000           -0.3644925              -9.9183 (HOMO)
       162                         -0.2873512              -7.8192 (LUMO)
       163                         -0.2579690              -7.0197
       164                         -0.2503626              -6.8127
       165                         -0.2482707              -6.7558
       166                         -0.2459848              -6.6936
       167                         -0.2459280              -6.6920
       168                         -0.2357681              -6.4156
       169                         -0.2311240              -6.2892
       170                         -0.2278718              -6.2007
       171                         -0.2263366              -6.1589
       172                         -0.2213966              -6.0245
       ...                                ...                  ...
       319                          1.1550320              31.4300
      -------------------------------------------------------------
                  HL-Gap            0.0771413 Eh            2.0991 eV

     #   Z          covCN         q      C6AA      α(0)
     1   6 C        3.761    -0.108    22.620     6.780
     2   6 C        3.902     0.026    20.084     6.370
     3   6 C        3.761    -0.106    22.566     6.772
     4   6 C        3.761    -0.106    22.567     6.772
     5   6 C        2.973     0.014    27.702     8.633
     6   6 C        2.924    -0.038    28.957     8.825
     7   6 C        2.924    -0.034    28.855     8.809
     8   6 C        2.977     0.004    27.927     8.668
     9   6 C        2.973     0.025    27.453     8.595
    10   6 C        2.926    -0.054    29.345     8.884
    11   6 C        2.914     0.072    26.399     8.425
    12   7 N        2.802    -0.051    22.221     7.001
    13   6 C        3.071     0.046    26.902     8.504
    14   6 C        2.908    -0.052    29.296     8.875
    15   6 C        2.929    -0.038    28.937     8.822
    16   6 C        2.976     0.001    28.010     8.681
    17   6 C        2.977     0.010    27.796     8.648
    18   6 C        2.925    -0.036    28.888     8.814
    19   6 C        2.918    -0.031    28.775     8.797
    20   6 C        2.920    -0.033    28.819     8.803
    21   6 C        2.918    -0.031    28.768     8.795
    22   6 C        2.925    -0.035    28.877     8.813
    23   6 C        2.918    -0.038    28.937     8.821
    24   6 C        3.064    -0.016    28.343     8.730
    25   6 C        3.064    -0.017    28.362     8.733
    26   6 C        2.918    -0.038    28.945     8.823
    27   6 C        2.976     0.001    28.004     8.680
    28   6 C        2.977     0.010    27.794     8.648
    29   6 C        2.925    -0.035    28.883     8.813
    30   6 C        2.918    -0.031    28.773     8.796
    31   6 C        2.920    -0.033    28.818     8.803
    32   6 C        2.918    -0.031    28.765     8.795
    33   6 C        2.925    -0.035    28.869     8.811
    34   6 C        2.929    -0.037    28.914     8.818
    35   6 C        2.909    -0.047    29.176     8.857
    36   6 C        3.071     0.048    26.858     8.497
    37   6 C        2.975    -0.019    28.468     8.752
    38   6 C        1.909     0.132    27.871     8.526
    39   7 N        0.911    -0.286    27.374     7.567
    40   6 C        2.914     0.072    26.400     8.425
    41   7 N        2.802    -0.051    22.223     7.002
    42   6 C        3.072     0.046    26.899     8.504
    43   6 C        2.908    -0.052    29.291     8.874
    44   6 C        2.929    -0.038    28.939     8.822
    45   6 C        2.976     0.001    28.012     8.682
    46   6 C        2.977     0.010    27.797     8.648
    47   6 C        2.925    -0.036    28.887     8.814
    48   6 C        2.918    -0.031    28.775     8.796
    49   6 C        2.920    -0.033    28.819     8.803
    50   6 C        2.918    -0.031    28.768     8.795
    51   6 C        2.925    -0.035    28.877     8.813
    52   6 C        2.918    -0.038    28.935     8.821
    53   6 C        3.064    -0.016    28.344     8.730
    54   6 C        3.064    -0.017    28.360     8.733
    55   6 C        2.918    -0.038    28.945     8.823
    56   6 C        2.976     0.001    28.004     8.680
    57   6 C        2.977     0.010    27.790     8.647
    58   6 C        2.925    -0.035    28.868     8.811
    59   6 C        2.918    -0.031    28.765     8.795
    60   6 C        2.920    -0.033    28.817     8.803
    61   6 C        2.918    -0.031    28.772     8.796
    62   6 C        2.925    -0.035    28.880     8.813
    63   6 C        2.929    -0.037    28.912     8.818
    64   6 C        2.909    -0.047    29.176     8.857
    65   6 C        3.071     0.048    26.858     8.497
    66   6 C        2.926    -0.054    29.339     8.883
    67   6 C        2.923    -0.035    28.862     8.810
    68   6 C        2.926    -0.034    28.846     8.808
    69   1 H        0.925     0.037     2.485     2.465
    70   1 H        0.925     0.037     2.485     2.465
    71   1 H        0.925     0.039     2.461     2.453
    72   1 H        0.925     0.038     2.475     2.460
    73   1 H        0.925     0.034     2.530     2.487
    74   1 H        0.925     0.041     2.439     2.442
    75   1 H        0.925     0.038     2.473     2.459
    76   1 H        0.925     0.034     2.530     2.487
    77   1 H        0.925     0.041     2.439     2.442
    78   1 H        0.926     0.045     2.384     2.414
    79   1 H        0.926     0.034     2.526     2.485
    80   1 H        0.926     0.059     2.210     2.324
    81   1 H        0.926     0.032     2.552     2.498
    82   1 H        0.926     0.038     2.475     2.460
    83   1 H        0.926     0.032     2.556     2.500
    84   1 H        0.926     0.031     2.576     2.510
    85   1 H        0.926     0.030     2.585     2.514
    86   1 H        0.926     0.030     2.583     2.513
    87   1 H        0.926     0.031     2.571     2.508
    88   1 H        0.926     0.038     2.478     2.461
    89   1 H        0.926     0.039     2.460     2.453
    90   1 H        0.926     0.032     2.555     2.499
    91   1 H        0.926     0.031     2.568     2.506
    92   1 H        0.926     0.031     2.576     2.510
    93   1 H        0.926     0.031     2.578     2.511
    94   1 H        0.926     0.031     2.577     2.510
    95   1 H        0.926     0.036     2.505     2.475
    96   1 H        0.926     0.017     2.772     2.604
    97   1 H        0.926     0.031     2.567     2.506
    98   1 H        0.926     0.038     2.473     2.459
    99   1 H        0.926     0.032     2.555     2.500
   100   1 H        0.926     0.031     2.575     2.510
   101   1 H        0.926     0.030     2.586     2.515
   102   1 H        0.926     0.030     2.583     2.513
   103   1 H        0.926     0.031     2.573     2.508
   104   1 H        0.926     0.038     2.479     2.462
   105   1 H        0.926     0.039     2.465     2.455
   106   1 H        0.926     0.032     2.565     2.504
   107   1 H        0.926     0.031     2.570     2.507
   108   1 H        0.926     0.031     2.575     2.509
   109   1 H        0.926     0.031     2.574     2.509
   110   1 H        0.926     0.031     2.574     2.509
   111   1 H        0.926     0.036     2.504     2.474
   112   1 H        0.926     0.018     2.771     2.603
   113   1 H        0.926     0.059     2.214     2.327
   114   1 H        0.926     0.035     2.520     2.482
   115   1 H        0.926     0.038     2.479     2.462

molecular dipole:
                 x           y           z       tot (Debye)
 q only:        0.072      -2.408      -1.257
   full:        0.075      -2.656      -1.460       7.706

 projected vibrational frequencies (cm⁻¹)
eigval :       -0.00    -0.00    -0.00     0.00     0.00     0.00
eigval :        7.40     9.83    10.75    14.78    15.14    26.98
eigval :       32.26    35.79    37.23    37.75    38.99    41.14
eigval :       42.81    44.71    52.23    58.16    59.93    63.09
eigval :       67.68    75.75    83.07    88.24    90.19   106.89
eigval :      113.93   119.60   121.96   134.25   148.33   151.48
eigval :      153.70   161.22   175.31   177.76   184.82   206.97
eigval :      213.43   220.98   227.88   231.05   236.62   246.02
eigval :      250.84   259.40   269.89   279.26   285.32   293.26
eigval :      300.14   311.43   314.40   317.39   329.66   337.03
eigval :      346.71   354.28   368.77   370.29   372.18   374.01
eigval :      374.33   378.30   382.32   384.33   391.65   395.64
eigval :      398.30   400.38   425.76   428.57   435.30   445.00
eigval :      452.49   467.01   474.85   476.31   480.74   488.53
eigval :      499.51   501.65   502.80   527.14   530.61   540.14
eigval :      554.86   557.37   568.25   569.12   573.78   586.10
eigval :      586.67   590.54   591.51   600.90   601.57   607.73
eigval :      614.34   616.19   618.88   624.20   625.89   633.11
eigval :      648.41   658.49   667.15   669.55   672.23   673.40
eigval :      682.83   685.18   686.23   688.61   706.60   707.71
eigval :      708.11   719.17   734.44   741.17   745.32   751.89
eigval :      755.14   757.47   758.05   766.95   810.11   814.18
eigval :      819.71   823.67   824.76   828.00   862.27   863.65
eigval :      864.23   866.81   868.85   871.57   872.60   874.20
eigval :      875.86   877.59   879.28   881.11   885.20   897.24
eigval :      897.99   899.92   901.22   901.54   902.91   904.51
eigval :      907.23   908.35   914.12   915.28   918.46   925.78
eigval :      928.58   929.06   930.04   930.50   930.63   930.83
eigval :      931.98   931.99   938.11   959.86   963.13   964.70
eigval :      971.28   971.38   980.40   981.07  1009.60  1026.03
eigval :     1027.28  1034.70  1035.71  1045.23  1070.67  1070.88
eigval :     1071.91  1074.09  1085.05  1085.47  1085.83  1086.13
eigval :     1093.87  1119.85  1119.93  1120.41  1120.82  1124.59
eigval :     1143.81  1151.69  1155.05  1159.15  1166.52  1179.90
eigval :     1180.41  1180.48  1180.53  1187.81  1193.43  1199.29
eigval :     1199.71  1201.23  1201.95  1212.84  1217.86  1218.27
eigval :     1220.37  1221.79  1224.17  1224.73  1232.18  1236.89
eigval :     1239.52  1274.78  1277.24  1278.48  1280.09  1280.16
eigval :     1280.36  1280.90  1281.24  1287.99  1294.08  1303.68
eigval :     1305.13  1308.59  1312.54  1316.49  1316.67  1316.76
eigval :     1318.90  1320.31  1336.13  1345.41  1345.63  1357.08
eigval :     1358.45  1392.03  1400.92  1403.92  1405.50  1407.07
eigval :     1407.45  1421.20  1428.11  1428.53  1428.55  1431.00
eigval :     1431.30  1436.99  1437.26  1448.92  1459.67  1460.32
eigval :     1466.11  1466.66  1488.57  1490.09  1491.32  1492.61
eigval :     1492.87  1495.28  1495.37  1500.18  1505.05  1511.50
eigval :     1516.22  1520.22  1558.48  1564.05  1565.22  1567.01
eigval :     1574.90  1575.47  1581.11  1581.17  1583.10  1583.40
eigval :     1593.20  1593.56  1596.48  1596.73  1601.20  1602.06
eigval :     1602.33  1612.92  1613.77  2350.39  3021.46  3021.57
eigval :     3025.48  3025.73  3029.61  3031.61  3036.82  3045.15
eigval :     3048.22  3065.29  3065.51  3065.69  3066.09  3066.70
eigval :     3066.84  3067.28  3067.36  3074.89  3075.17  3075.30
eigval :     3075.42  3075.86  3076.37  3077.35  3077.72  3077.91
eigval :     3078.49  3078.76  3078.98  3079.30  3079.80  3087.42
eigval :     3087.48  3087.58  3087.72  3087.95  3088.60  3089.50
eigval :     3089.52  3090.17  3090.53  3091.00  3093.04  3093.29
eigval :     3106.88  3108.42  3115.62

   temp. (K)  partition function   enthalpy   heat capacity  entropy
                                   cal/mol     cal/K/mol   cal/K/mol   J/K/mol
 298.15  VIB  0.494E+28            33903.163    208.429    213.720
         ROT  0.307E+09              888.752      2.981     41.819
         INT  0.152E+37            34791.915    211.410    255.539
         TR   0.248E+29             1481.254      4.968     46.146
         TOT                       36273.1691   216.3782   301.6848  1262.2491

       T/K    H(0)-H(T)+PV         H(T)/Eh          T*S/Eh         G(T)/Eh
   ------------------------------------------------------------------------
    298.15    0.578050E-01    0.958327E+00    0.143340E+00    0.814987E+00
   ------------------------------------------------------------------------

         :::::::::::::::::::::::::::::::::::::::::::::::::::::
         ::                  THERMODYNAMIC                  ::
         :::::::::::::::::::::::::::::::::::::::::::::::::::::
         :: total free energy        -171.234005471283 Eh   ::
         ::.................................................::
         :: total energy             -172.048992072351 Eh   ::
         :: zero point energy           0.900521803401 Eh   ::
         :: G(RRHO) w/o ZPVE           -0.085535202333 Eh   ::
         :: G(RRHO) contrib.            0.814986601069 Eh   ::
         :::::::::::::::::::::::::::::::::::::::::::::::::::::

           -------------------------------------------------
          | TOTAL ENERGY             -172.048992072351 Eh   |
          | TOTAL ENTHALPY           -171.090665294522 Eh   |
          | TOTAL FREE ENERGY        -171.234005471283 Eh   |
          | GRADIENT NORM               0.000042712020 Eh/α |
          | HOMO-LUMO GAP               2.099121002255 eV   |
           -------------------------------------------------

 * finished run on 2025/07/20 at 05:34:27.376
