   * xtb version 6.7.1 (edcfbbe) compiled by 'albert@albert-system' on 2024-07-22

   ID    Z sym.   atoms
    1    8 O      1
    2    6 C      2-12, 14-53
    3    7 N      13
    4    1 H      54-86

          program call               : xtb data2507/toluene/SPBP-DPAC/SPBP-DPAC.xyz --gfn 2 --gbsa toluene --ohess vtight --parallel 40 --molden --ceasefiles --namespace data2507/toluene/SPBP-DPAC/SPBP-DPAC_toluene_S0_preOpt
      * Solvation model:               GBSA
        Solvent                        toluene
        Solvent mass                       9.2140E+01 g/mol
          :  Hamiltonian                  GFN2-xTB          :
 * total energy  :  -133.0831644 Eh     change       -0.2549285E-08 Eh
 * total energy  :  -133.1020187 Eh     change       -0.1885436E-01 Eh
 * total energy  :  -133.1095479 Eh     change       -0.7529194E-02 Eh
 * total energy  :  -133.1113354 Eh     change       -0.1787514E-02 Eh
 * total energy  :  -133.1119914 Eh     change       -0.6559522E-03 Eh
 * total energy  :  -133.1122069 Eh     change       -0.2155751E-03 Eh
 * total energy  :  -133.1122804 Eh     change       -0.7349849E-04 Eh
 * total energy  :  -133.1123255 Eh     change       -0.4502503E-04 Eh
 * total energy  :  -133.1123462 Eh     change       -0.2069417E-04 Eh
 * total energy  :  -133.1123648 Eh     change       -0.1864756E-04 Eh
 * total energy  :  -133.1148276 Eh     change       -0.1974549E-06 Eh
 * total energy  :  -133.1148278 Eh     change       -0.2603857E-06 Eh
 * total energy  :  -133.1148285 Eh     change       -0.6322669E-06 Eh
 * total energy  :  -133.1148289 Eh     change       -0.4155645E-06 Eh
 * total energy  :  -133.1148291 Eh     change       -0.2190328E-06 Eh
 * total energy  :  -133.1148294 Eh     change       -0.2620883E-06 Eh
 * total energy  :  -133.1148297 Eh     change       -0.3218208E-06 Eh
 * total energy  :  -133.1148299 Eh     change       -0.2271867E-06 Eh
 * total energy  :  -133.1148300 Eh     change       -0.4361269E-07 Eh
   *** GEOMETRY OPTIMIZATION CONVERGED AFTER 229 ITERATIONS ***

 final structure:
================
86
 xtb: 6.7.1 (edcfbbe)
O            3.71042758608113        4.58591177543238       -0.69960522425128
C            3.75858698748055        3.38024865182908       -0.47879134573146
C            5.03726393070985        2.68162870584743       -0.26449412825035
C            6.21926597205448        3.42612307573806       -0.33574830583516
C            7.44471814092058        2.82673994091326       -0.14687087304159
C            7.50546957620134        1.46403571414140        0.11580577936497
C            6.34495011179906        0.71842086734868        0.18853732067564
C            5.10048594328592        1.31230149014906        0.00089841099049
C            3.87008860057572        0.45608760516726        0.10490906359047
C            2.58271338600314        1.18815566520519       -0.15271755384302
C            1.39550957366119        0.46713186082861       -0.11204581337050
C            0.17414377808065        1.09026870071496       -0.32264776602691
N           -1.04039506587967        0.36787441246509       -0.27372875297850
C           -1.48389919114107       -0.22494442935106        0.90466684723298
C           -0.66528799602591       -0.32480331069218        2.03019966663280
C           -1.10720766413250       -0.97376950262933        3.16640383481588
C           -2.37228714724065       -1.53332773746488        3.20232474080061
C           -3.20975234125947       -1.38726082269349        2.10986172208623
C           -2.79188061021175       -0.72435261482108        0.96561748160184
C           -3.75638166453983       -0.40730876595878       -0.16327991220554
C           -4.87606395321498       -1.43430250763839       -0.20291684240253
C           -6.21427908664483       -1.09983136688311       -0.05489645034961
C           -7.19326687301481       -2.07989846992854       -0.10388305168447
C           -6.84802995831923       -3.40480603815244       -0.30058464440801
C           -5.51310124843369       -3.74846151382672       -0.44604934129751
C           -4.53740650676938       -2.77152386604157       -0.39710186912021
C           -4.30316660255551        1.00950557893014        0.04762481253430
C           -4.70451539113303        1.78085159939073       -1.03797656922154
C           -5.20511824610008        3.05799446025034       -0.85531744265941
C           -5.31588751046841        3.58928121531775        0.41824418643885
C           -4.92906875073674        2.82645069865751        1.50624720485763
C           -4.42872868881001        1.54878882166111        1.32272703144424
C           -2.98405294138852       -0.42508291511696       -1.46834720128388
C           -3.56645991527257       -0.81177995258001       -2.66630381370064
C           -2.87733562657514       -0.71244027342988       -3.86270941342774
C           -1.58502770164554       -0.21588221976289       -3.86709305535446
C           -0.98018947171267        0.15377130112631       -2.68230375512309
C           -1.67058418363851        0.05366546438752       -1.47357011208488
C            0.13235923668823        2.45625562597787       -0.60628954310815
C            1.30440847552449        3.17373276620965       -0.65235268874520
C            2.53911008157164        2.55716323734436       -0.42084961974236
C            3.80195907674339       -0.20990390592034        1.47169320316470
C            3.70616130307015        0.39452746370226        2.70542057470146
C            3.64306398890453       -0.41412754980667        3.83350082823248
C            3.67322569910027       -1.79584651021044        3.71844626974708
C            3.76987249168707       -2.40590166174748        2.47743894990754
C            3.83623941120998       -1.60580977785098        1.34823214027477
C            3.94444520093429       -1.94415277014105       -0.06374880221222
C            4.01813888720455       -3.16950034214252       -0.70636044077491
C            4.11944842851279       -3.18872057455626       -2.08885436306628
C            4.14706072148769       -2.00939002976871       -2.81816556020964
C            4.07277728660724       -0.77717652202081       -2.18062340563585
C            3.97300976553600       -0.75564541150400       -0.80708266505331
H            6.13629689200841        4.48354483903637       -0.54253382680986
H            8.35032433118288        3.41172688157019       -0.20266107721910
H            8.46148770001455        0.98444514784759        0.26475121152259
H            6.39703870054221       -0.34068462116356        0.39464113945426
H            1.42390951554184       -0.59744791768823        0.06952027970919
H            0.31948313737886        0.11467080475836        2.02432882939253
H           -0.45516153816158       -1.04224583701765        4.02464455929918
H           -2.71905512427038       -2.05176143956566        4.08345583589775
H           -4.21657682214276       -1.77602250990407        2.15529813300177
H           -6.50068895324886       -0.07006456469874        0.09956385767669
H           -8.23113306113626       -1.80206259190613        0.01254012891845
H           -7.61290505142145       -4.16678370941988       -0.33911276208143
H           -5.23257031883591       -4.78083230034311       -0.59826273064788
H           -3.49667814742305       -3.04170630628829       -0.50991027510294
H           -4.62780815751627        1.38278599083836       -2.03878261261680
H           -5.50953293727195        3.63940656928725       -1.71397026455947
H           -5.70413261620302        4.58723074110273        0.56123042929828
H           -5.01663311421818        3.22530035122633        2.50683933662100
H           -4.13663607757929        0.96861052307097        2.18509139900938
H           -4.58131318321955       -1.18233202224763       -2.66452614785387
H           -3.35232679780804       -1.01019657760153       -4.78528932451422
H           -1.03888124596766       -0.12591900281333       -4.79450389689089
H            0.03630072623340        0.51779367613240       -2.68869624075819
H           -0.81957485574828        2.93392064075810       -0.78298606451662
H            1.30166324699368        4.23358761496836       -0.86155357058773
H            3.68046620031417        1.47124459821033        2.79480843809780
H            3.56780242575312        0.04074282947480        4.81019671652251
H            3.62100606410195       -2.40456524913863        4.60936525030178
H            3.79362918418593       -3.48197648751350        2.39395064009543
H            3.99708565312673       -4.09043077903478       -0.14326533782556
H            4.17802967076987       -4.13521699303317       -2.60630423596209
H            4.22714948803828       -2.04749526953905       -3.89455149298875
H            4.09440576159805        0.14177163449086       -2.74880706671143

          :  Hamiltonian                  GFN2-xTB          :
         :: gradient norm              0.000120340015 Eh/a0 ::
         :: HOMO-LUMO gap              1.497377124981 eV    ::
         :: SCC energy              -135.606898857639 Eh    ::
         :: -> dispersion             -0.136483236743 Eh    ::
         :: -> Gsolv                  -0.053909376604 Eh    ::
         :: repulsion energy           2.492068906639 Eh    ::

    * Orbital Energies and Occupations

         #    Occupation            Energy/Eh            Energy/eV
      -------------------------------------------------------------
         1        2.0000           -0.7057212             -19.2036
       ...           ...                  ...                  ...
       112        2.0000           -0.4087486             -11.1226
       113        2.0000           -0.4077360             -11.0951
       114        2.0000           -0.4061301             -11.0514
       115        2.0000           -0.4053327             -11.0297
       116        2.0000           -0.4046160             -11.0102
       117        2.0000           -0.4031633             -10.9706
       118        2.0000           -0.4011918             -10.9170
       119        2.0000           -0.3987252             -10.8499
       120        2.0000           -0.3937314             -10.7140
       121        2.0000           -0.3922495             -10.6737
       122        2.0000           -0.3891643             -10.5897
       123        2.0000           -0.3876131             -10.5475
       124        2.0000           -0.3529339              -9.6038 (HOMO)
       125                         -0.2979064              -8.1064 (LUMO)
       126                         -0.2595418              -7.0625
       127                         -0.2454182              -6.6782
       128                         -0.2421956              -6.5905
       129                         -0.2364034              -6.4329
       130                         -0.2327796              -6.3343
       131                         -0.2280047              -6.2043
       132                         -0.2276878              -6.1957
       133                         -0.2251387              -6.1263
       134                         -0.2250587              -6.1242
       135                         -0.2220403              -6.0420
       ...                                ...                  ...
       245                          0.7204677              19.6049
      -------------------------------------------------------------
                  HL-Gap            0.0550275 Eh            1.4974 eV

     #   Z          covCN         q      C6AA      α(0)
     1   8 O        0.858    -0.440    22.490     6.358
     2   6 C        2.832     0.224    23.292     7.909
     3   6 C        2.975    -0.023    28.572     8.768
     4   6 C        2.926    -0.018    28.467     8.750
     5   6 C        2.916    -0.029    28.720     8.788
     6   6 C        2.919    -0.021    28.521     8.758
     7   6 C        2.923    -0.032    28.798     8.800
     8   6 C        2.980     0.020    27.550     8.610
     9   6 C        3.949     0.012    20.313     6.404
    10   6 C        2.983     0.022    27.518     8.605
    11   6 C        2.925    -0.045    29.119     8.849
    12   6 C        2.924     0.076    26.296     8.409
    13   7 N        2.754    -0.074    22.680     7.073
    14   6 C        2.928     0.059    26.675     8.470
    15   6 C        2.921    -0.058    29.438     8.898
    16   6 C        2.920    -0.033    28.829     8.805
    17   6 C        2.917    -0.044    29.094     8.845
    18   6 C        2.923    -0.036    28.900     8.816
    19   6 C        2.987    -0.009    28.225     8.715
    20   6 C        3.921     0.010    20.352     6.412
    21   6 C        2.977     0.014    27.685     8.631
    22   6 C        2.922    -0.037    28.909     8.817
    23   6 C        2.920    -0.031    28.782     8.798
    24   6 C        2.919    -0.033    28.830     8.805
    25   6 C        2.919    -0.031    28.775     8.797
    26   6 C        2.925    -0.032    28.797     8.800
    27   6 C        2.977     0.012    27.738     8.639
    28   6 C        2.924    -0.037    28.917     8.819
    29   6 C        2.919    -0.032    28.789     8.799
    30   6 C        2.919    -0.033    28.831     8.805
    31   6 C        2.919    -0.031    28.782     8.798
    32   6 C        2.924    -0.037    28.914     8.818
    33   6 C        2.987    -0.008    28.201     8.711
    34   6 C        2.923    -0.036    28.890     8.814
    35   6 C        2.918    -0.043    29.075     8.842
    36   6 C        2.919    -0.033    28.825     8.804
    37   6 C        2.922    -0.056    29.380     8.889
    38   6 C        2.935     0.059    26.679     8.471
    39   6 C        2.919    -0.040    28.987     8.829
    40   6 C        2.925    -0.018    28.454     8.748
    41   6 C        2.975    -0.025    28.619     8.775
    42   6 C        3.059     0.005    27.860     8.656
    43   6 C        2.913    -0.033    28.813     8.802
    44   6 C        2.923    -0.030    28.745     8.792
    45   6 C        2.921    -0.030    28.754     8.794
    46   6 C        2.915    -0.032    28.806     8.801
    47   6 C        3.032     0.003    27.916     8.666
    48   6 C        3.032     0.003    27.925     8.668
    49   6 C        2.915    -0.033    28.818     8.803
    50   6 C        2.921    -0.031    28.763     8.795
    51   6 C        2.923    -0.030    28.748     8.793
    52   6 C        2.913    -0.032    28.804     8.801
    53   6 C        3.057     0.004    27.876     8.659
    54   1 H        0.926     0.051     2.302     2.373
    55   1 H        0.926     0.046     2.365     2.405
    56   1 H        0.926     0.049     2.331     2.387
    57   1 H        0.926     0.044     2.399     2.422
    58   1 H        0.926     0.051     2.309     2.376
    59   1 H        0.926     0.029     2.602     2.523
    60   1 H        0.926     0.031     2.568     2.506
    61   1 H        0.926     0.030     2.590     2.517
    62   1 H        0.926     0.031     2.570     2.507
    63   1 H        0.926     0.030     2.592     2.518
    64   1 H        0.926     0.030     2.582     2.513
    65   1 H        0.926     0.031     2.574     2.509
    66   1 H        0.926     0.031     2.569     2.506
    67   1 H        0.926     0.028     2.619     2.531
    68   1 H        0.926     0.032     2.558     2.501
    69   1 H        0.926     0.030     2.579     2.512
    70   1 H        0.926     0.031     2.577     2.510
    71   1 H        0.926     0.030     2.582     2.513
    72   1 H        0.926     0.031     2.571     2.507
    73   1 H        0.926     0.032     2.561     2.503
    74   1 H        0.926     0.031     2.578     2.511
    75   1 H        0.926     0.032     2.559     2.501
    76   1 H        0.926     0.025     2.658     2.549
    77   1 H        0.926     0.050     2.316     2.380
    78   1 H        0.926     0.059     2.216     2.328
    79   1 H        0.926     0.026     2.643     2.542
    80   1 H        0.926     0.037     2.490     2.467
    81   1 H        0.926     0.039     2.466     2.456
    82   1 H        0.926     0.041     2.440     2.443
    83   1 H        0.926     0.040     2.445     2.445
    84   1 H        0.926     0.039     2.468     2.457
    85   1 H        0.926     0.037     2.485     2.465
    86   1 H        0.926     0.027     2.628     2.535

molecular dipole:
                 x           y           z       tot (Debye)
 q only:        0.437      -1.954       0.382
   full:        0.478      -1.921       0.381       5.124

 projected vibrational frequencies (cm⁻¹)
eigval :       -0.00    -0.00    -0.00     0.00     0.00     0.00
eigval :        8.96    12.31    18.65    20.75    28.37    33.81
eigval :       44.07    47.11    50.87    56.77    62.85    63.30
eigval :       76.80    86.49    88.55   102.72   115.43   124.17
eigval :      130.58   137.58   139.07   170.11   189.95   224.64
eigval :      229.40   230.42   233.46   235.63   239.80   259.38
eigval :      278.27   285.13   292.60   295.58   306.49   308.12
eigval :      318.24   340.98   369.61   371.90   373.33   390.88
eigval :      391.68   395.66   408.93   411.72   426.36   433.77
eigval :      445.87   449.85   451.63   459.39   470.51   474.58
eigval :      478.44   499.37   502.46   514.83   517.13   536.75
eigval :      547.61   562.56   583.72   588.03   588.53   592.92
eigval :      598.17   604.01   606.16   610.21   628.62   639.83
eigval :      644.42   651.00   662.49   672.32   673.94   680.42
eigval :      685.44   690.87   691.98   697.25   709.10   730.74
eigval :      739.22   751.11   755.12   756.61   766.93   773.77
eigval :      776.38   777.58   786.08   789.82   840.08   868.03
eigval :      868.39   878.63   879.44   879.56   880.75   883.61
eigval :      885.81   893.63   894.95   899.58   900.80   904.57
eigval :      907.75   913.39   913.58   915.34   916.75   918.47
eigval :      919.13   924.66   924.79   926.40   928.10   929.15
eigval :      929.34   930.70   931.48   931.64   933.36   935.08
eigval :      944.23   948.81   984.91   999.13  1002.34  1015.32
eigval :     1073.34  1076.38  1079.57  1086.37  1090.23  1093.10
eigval :     1104.73  1110.08  1117.73  1119.41  1123.80  1126.89
eigval :     1130.86  1131.70  1141.72  1170.40  1173.36  1177.24
eigval :     1178.33  1179.14  1179.26  1181.27  1183.08  1186.20
eigval :     1189.14  1195.03  1199.80  1201.80  1206.70  1211.24
eigval :     1219.67  1227.27  1227.95  1236.60  1243.83  1250.04
eigval :     1256.47  1263.20  1264.09  1268.94  1273.38  1281.29
eigval :     1286.93  1289.71  1309.08  1315.36  1317.10  1320.64
eigval :     1322.58  1328.91  1331.84  1334.83  1344.15  1364.13
eigval :     1410.18  1422.96  1426.55  1428.39  1429.67  1431.07
eigval :     1437.66  1438.90  1457.36  1462.55  1465.93  1468.19
eigval :     1469.08  1471.88  1473.86  1486.82  1554.64  1570.58
eigval :     1573.35  1577.28  1582.87  1583.50  1584.80  1586.10
eigval :     1587.02  1588.49  1594.38  1596.64  1598.44  1599.35
eigval :     1601.01  1601.52  1635.15  3065.80  3066.29  3068.29
eigval :     3069.93  3072.35  3073.33  3075.06  3075.41  3076.18
eigval :     3076.63  3077.14  3078.33  3079.86  3081.29  3081.66
eigval :     3082.06  3084.27  3084.74  3085.75  3086.43  3088.50
eigval :     3089.06  3090.90  3091.21  3091.53  3092.14  3092.34
eigval :     3094.18  3095.12  3096.22  3096.36  3098.28  3104.25

   temp. (K)  partition function   enthalpy   heat capacity  entropy
                                   cal/mol     cal/K/mol   cal/K/mol   J/K/mol
 298.15  VIB  0.302E+19            23911.533    153.778    148.229
         ROT  0.755E+08              888.752      2.981     39.030
         INT  0.228E+27            24800.285    156.758    187.259
         TR   0.170E+29             1481.254      4.968     45.393
         TOT                       26281.5388   161.7266   232.6518   973.4152

       T/K    H(0)-H(T)+PV         H(T)/Eh          T*S/Eh         G(T)/Eh
   ------------------------------------------------------------------------
    298.15    0.418823E-01    0.704395E+00    0.110540E+00    0.593855E+00
   ------------------------------------------------------------------------

         :::::::::::::::::::::::::::::::::::::::::::::::::::::
         ::                  THERMODYNAMIC                  ::
         :::::::::::::::::::::::::::::::::::::::::::::::::::::
         :: total free energy        -132.520974953447 Eh   ::
         ::.................................................::
         :: total energy             -133.114829956771 Eh   ::
         :: zero point energy           0.662513094138 Eh   ::
         :: G(RRHO) w/o ZPVE           -0.068658090814 Eh   ::
         :: G(RRHO) contrib.            0.593855003325 Eh   ::
         :::::::::::::::::::::::::::::::::::::::::::::::::::::

           -------------------------------------------------
          | TOTAL ENERGY             -133.114829956771 Eh   |
          | TOTAL ENTHALPY           -132.410434564570 Eh   |
          | TOTAL FREE ENERGY        -132.520974953447 Eh   |
          | GRADIENT NORM               0.000120441100 Eh/α |
          | HOMO-LUMO GAP               1.497373591165 eV   |
           -------------------------------------------------

 * finished run on 2025/08/29 at 20:10:18.746
