   * xtb version 6.7.1 (edcfbbe) compiled by 'albert@albert-system' on 2024-07-22

   ID    Z sym.   atoms
    1    8 O      1
    2    6 C      2-12, 14-53
    3    7 N      13
    4    1 H      54-86

          program call               : xtb data2507/toluene/SPBP-DPAC/SPBP-DPAC_toluene_S0_finalOpt.xtbopt.xyz --gfn 2 --uhf 2 --gbsa toluene --ohess vtight --parallel 40 --molden --ceasefiles --namespace data2507/toluene/SPBP-DPAC/SPBP-DPAC_toluene_T1_preOpt
      * Solvation model:               GBSA
        Solvent                        toluene
        Solvent mass                       9.2140E+01 g/mol
          :  Hamiltonian                  GFN2-xTB          :
 * total energy  :  -133.0274384 Eh     change       -0.1685342E-07 Eh
 * total energy  :  -133.0301101 Eh     change       -0.2671639E-02 Eh
 * total energy  :  -133.0307659 Eh     change       -0.6558439E-03 Eh
 * total energy  :  -133.0308386 Eh     change       -0.7270558E-04 Eh
 * total energy  :  -133.0308843 Eh     change       -0.4564203E-04 Eh
 * total energy  :  -133.0309135 Eh     change       -0.2926423E-04 Eh
 * total energy  :  -133.0309346 Eh     change       -0.2106996E-04 Eh
 * total energy  :  -133.0309512 Eh     change       -0.1657175E-04 Eh
 * total energy  :  -133.0309606 Eh     change       -0.9484199E-05 Eh
 * total energy  :  -133.0309746 Eh     change       -0.1393568E-04 Eh
 * total energy  :  -133.0312339 Eh     change       -0.6901070E-06 Eh
 * total energy  :  -133.0312346 Eh     change       -0.7284064E-06 Eh
 * total energy  :  -133.0312354 Eh     change       -0.7607152E-06 Eh
 * total energy  :  -133.0312361 Eh     change       -0.7255386E-06 Eh
 * total energy  :  -133.0312365 Eh     change       -0.4357456E-06 Eh
 * total energy  :  -133.0312369 Eh     change       -0.3954099E-06 Eh
 * total energy  :  -133.0312374 Eh     change       -0.4747081E-06 Eh
 * total energy  :  -133.0312378 Eh     change       -0.4380677E-06 Eh
 * total energy  :  -133.0312378 Eh     change       -0.2433922E-08 Eh
   *** GEOMETRY OPTIMIZATION CONVERGED AFTER 68 ITERATIONS ***

 final structure:
================
86
 xtb: 6.7.1 (edcfbbe)
O            3.91080387351609        3.99111378391398        0.21755514411123
C            3.73164885421566        2.73184985689318        0.18032982681495
C            4.81763563160969        1.81742233599793       -0.09985132309718
C            6.10082449341133        2.34422490623857       -0.34341101569251
C            7.15968897440396        1.52027793861155       -0.63918967920984
C            6.97359727213332        0.14389997764504       -0.69794650243128
C            5.71649290891254       -0.38726496433342       -0.45640977752645
C            4.63584107419187        0.42533377823626       -0.15422828516678
C            3.29845773341858       -0.22478885127020        0.10058808561208
C            2.21208782123607        0.76216685396705        0.44884261868075
C            0.95473834515863        0.27559685282807        0.71935221429172
C           -0.11767091806316        1.12161337711536        1.06630050837884
N           -1.37432660041132        0.60631684407237        1.31733510391435
C           -2.49533600414456        1.40187204377613        1.58479077307113
C           -2.48860526710658        2.36947536690302        2.58822324183164
C           -3.62955944397554        3.10762526454191        2.83635170325792
C           -4.77825832437944        2.88260911077591        2.09350250936395
C           -4.79638023397428        1.89771000741080        1.11717323700980
C           -3.66974589218241        1.13445029543531        0.86643962561347
C           -3.57310174188999        0.06110828117701       -0.20650015952935
C           -4.94243888794533       -0.38644049996357       -0.68490727210447
C           -5.30612987998161       -0.36672501918503       -2.02354448349059
C           -6.56571998969560       -0.79229752674703       -2.41495497843871
C           -7.47435421673832       -1.24644985183817       -1.47585633365489
C           -7.11514814102535       -1.27975999311645       -0.13776080989168
C           -5.85904172077913       -0.85573859148321        0.25358622183784
C           -2.73362973145765        0.65405144610853       -1.34034736713921
C           -1.71379753951607       -0.06671079405507       -1.94678496234392
C           -0.95139146474673        0.50490264798484       -2.95123041315721
C           -1.19957512454921        1.80094374361864       -3.36608812639286
C           -2.22708137976843        2.52031318866176       -2.77864084821189
C           -2.98762831988513        1.95135525173748       -1.77365172622111
C           -2.82277015681675       -1.08960831542652        0.43827214100950
C           -3.16209647926278       -2.42367813673804        0.29519005674618
C           -2.42315539185049       -3.41035768196865        0.93023604832338
C           -1.34563261589192       -3.06755088788575        1.73200437710056
C           -0.97814517332748       -1.74283662352600        1.87056352293164
C           -1.69190108472411       -0.75397096742761        1.19648316892904
C            0.11170026032979        2.51486758891318        1.04303107391426
C            1.35639607579319        3.00718540779349        0.77552424367853
C            2.44671652318615        2.15470752787045        0.46888214221005
C            3.40856911572290       -1.27867574557727        1.18868880825254
C            3.78134808066200       -1.10730203722118        2.50396118644624
C            3.81235438153618       -2.22030851789427        3.33481858890019
C            3.47577191931489       -3.47624261579470        2.85163804149686
C            3.10166694672913       -3.65288050046133        1.52852449411696
C            3.06640612986777       -2.54611261083761        0.69574104825432
C            2.73064252123304       -2.41757777984036       -0.71498364196616
C            2.33732458960987       -3.36278741195572       -1.64849368051616
C            2.10411884380875       -2.95117580541201       -2.95134887190028
C            2.26253784797771       -1.62260147322324       -3.31685098593099
C            2.64636336258962       -0.66804163924253       -2.38310317253463
C            2.87517042180888       -1.07292445730221       -1.08643242902868
H            6.21865788474694        3.41749399183492       -0.29407944131897
H            8.13545511470320        1.94549782194810       -0.82692564202072
H            7.80121670725870       -0.51043994277676       -0.92733389658162
H            5.57136273628300       -1.45794350422737       -0.50074692368892
H            0.79165145277451       -0.78624297519749        0.63047940828814
H           -1.60027057476663        2.51264604892216        3.18438044357745
H           -3.62321085261361        3.85477159491457        3.61509700845230
H           -5.66627719707693        3.46677362951743        2.27956030890178
H           -5.69558882804712        1.72700857259810        0.54508946644564
H           -4.60752436575972       -0.01968292246418       -2.76979327523098
H           -6.83400660419124       -0.76843247694114       -3.46122531517959
H           -8.45611589801365       -1.57528271554882       -1.78364079546248
H           -7.81510973635948       -1.63838602331179        0.60283008697775
H           -5.58183675702730       -0.88890010928121        1.29769899628837
H           -1.50475283345881       -1.08112854182372       -1.64078307227818
H           -0.15570925889114       -0.06860507257962       -3.40201758147732
H           -0.59884987203639        2.24770974646526       -4.14469980213819
H           -2.43502635621261        3.53022651922319       -3.10098964270206
H           -3.78672497794878        2.52091721314467       -1.32238583164771
H           -4.00631591577003       -2.69641775042690       -0.31892149690137
H           -2.70122689116853       -4.44612653905322        0.81028565625699
H           -0.79361531855214       -3.83081357087431        2.25824508117969
H           -0.16453398590111       -1.46532812469858        2.52294946720001
H           -0.70348436922888        3.20320388387932        1.19759893024636
H            1.54124043008182        4.07091324983752        0.75142825056173
H            4.04860352719719       -0.12891289405980        2.87752825989239
H            4.10537794446028       -2.10528403551595        4.36826201438018
H            3.51039498923460       -4.32794419951600        3.51566856469744
H            2.84415541359798       -4.63309881151387        1.15572355668015
H            2.22011543163401       -4.39954083261975       -1.37018966030014
H            1.80085085394636       -3.67461679427560       -3.69437405164282
H            2.08885065664393       -1.32670986042438       -4.34171421934065
H            2.76784766128885        0.36814585749158       -2.66555601604788

          :  Hamiltonian                  GFN2-xTB          :
         :: gradient norm              0.000040067973 Eh/a0 ::
         :: HOMO-LUMO gap              0.729305379506 eV    ::
         :: SCC energy              -135.511029929930 Eh    ::
         :: -> dispersion             -0.140754769659 Eh    ::
         :: -> Gsolv                  -0.061549508729 Eh    ::
         :: repulsion energy           2.479792090023 Eh    ::

    * Orbital Energies and Occupations

         #    Occupation            Energy/Eh            Energy/eV
      -------------------------------------------------------------
         1        2.0000           -0.6928961             -18.8547
       ...           ...                  ...                  ...
       113        2.0000           -0.4089469             -11.1280
       114        2.0000           -0.4079115             -11.0998
       115        2.0000           -0.4075090             -11.0889
       116        2.0000           -0.4025120             -10.9529
       117        2.0000           -0.4014976             -10.9253
       118        2.0000           -0.3999418             -10.8830
       119        2.0000           -0.3997382             -10.8774
       120        2.0000           -0.3976721             -10.8212
       121        2.0000           -0.3915793             -10.6554
       122        2.0000           -0.3821010             -10.3975
       123        1.7923           -0.3738277             -10.1724
       124        1.2078           -0.3712843             -10.1032
       125        1.0000           -0.2815843              -7.6623 (HOMO)
       126        0.0000           -0.2547829              -6.9330 (LUMO)
       127                         -0.2448774              -6.6635
       128                         -0.2432999              -6.6205
       129                         -0.2411866              -6.5630
       130                         -0.2370574              -6.4507
       131                         -0.2303139              -6.2672
       132                         -0.2290153              -6.2318
       133                         -0.2283595              -6.2140
       134                         -0.2276512              -6.1947
       135                         -0.2265604              -6.1650
       136                         -0.2253829              -6.1330
       ...                                ...                  ...
       245                          0.7252103              19.7340
      -------------------------------------------------------------
                  HL-Gap            0.0268013 Eh            0.7293 eV

     #   Z          covCN         q      C6AA      α(0)
     1   8 O        0.857    -0.503    23.845     6.547
     2   6 C        2.836     0.167    24.405     8.096
     3   6 C        2.976    -0.020    28.489     8.755
     4   6 C        2.924    -0.033    28.826     8.805
     5   6 C        2.916    -0.035    28.874     8.812
     6   6 C        2.918    -0.042    29.049     8.838
     7   6 C        2.923    -0.037    28.928     8.820
     8   6 C        2.978     0.001    27.993     8.679
     9   6 C        3.949     0.011    20.325     6.406
    10   6 C        2.976     0.006    27.882     8.661
    11   6 C        2.924    -0.050    29.249     8.869
    12   6 C        2.910     0.050    26.876     8.501
    13   7 N        2.754    -0.007    21.400     6.871
    14   6 C        2.954     0.053    26.806     8.492
    15   6 C        2.918    -0.039    28.965     8.825
    16   6 C        2.919    -0.028    28.704     8.786
    17   6 C        2.919    -0.029    28.717     8.788
    18   6 C        2.920    -0.030    28.754     8.793
    19   6 C        2.994     0.005    27.905     8.665
    20   6 C        3.924     0.010    20.346     6.411
    21   6 C        2.975     0.014    27.707     8.634
    22   6 C        2.922    -0.035    28.866     8.811
    23   6 C        2.920    -0.029    28.737     8.791
    24   6 C        2.919    -0.031    28.773     8.796
    25   6 C        2.919    -0.030    28.751     8.793
    26   6 C        2.925    -0.033    28.832     8.806
    27   6 C        2.981     0.013    27.724     8.637
    28   6 C        2.923    -0.036    28.890     8.814
    29   6 C        2.920    -0.030    28.751     8.793
    30   6 C        2.919    -0.030    28.760     8.794
    31   6 C        2.919    -0.030    28.745     8.792
    32   6 C        2.924    -0.036    28.890     8.814
    33   6 C        2.991     0.005    27.903     8.665
    34   6 C        2.920    -0.030    28.760     8.794
    35   6 C        2.919    -0.028    28.706     8.786
    36   6 C        2.919    -0.028    28.693     8.784
    37   6 C        2.918    -0.038    28.951     8.823
    38   6 C        2.954     0.054    26.796     8.490
    39   6 C        2.914    -0.046    29.140     8.852
    40   6 C        2.919    -0.032    28.806     8.801
    41   6 C        2.974    -0.011    28.285     8.724
    42   6 C        3.058     0.003    27.911     8.664
    43   6 C        2.914    -0.033    28.810     8.802
    44   6 C        2.922    -0.032    28.793     8.800
    45   6 C        2.921    -0.033    28.813     8.803
    46   6 C        2.914    -0.035    28.860     8.809
    47   6 C        3.033     0.001    27.970     8.675
    48   6 C        3.033     0.001    27.971     8.675
    49   6 C        2.914    -0.035    28.866     8.810
    50   6 C        2.921    -0.033    28.816     8.803
    51   6 C        2.923    -0.031    28.772     8.796
    52   6 C        2.913    -0.032    28.786     8.798
    53   6 C        3.057     0.002    27.914     8.664
    54   1 H        0.926     0.029     2.607     2.525
    55   1 H        0.926     0.029     2.606     2.525
    56   1 H        0.926     0.029     2.598     2.521
    57   1 H        0.925     0.026     2.641     2.541
    58   1 H        0.926     0.048     2.348     2.396
    59   1 H        0.926     0.052     2.300     2.372
    60   1 H        0.926     0.050     2.317     2.381
    61   1 H        0.926     0.050     2.321     2.382
    62   1 H        0.926     0.051     2.302     2.373
    63   1 H        0.926     0.034     2.536     2.490
    64   1 H        0.926     0.033     2.542     2.493
    65   1 H        0.926     0.034     2.535     2.490
    66   1 H        0.926     0.035     2.513     2.479
    67   1 H        0.926     0.034     2.526     2.485
    68   1 H        0.926     0.031     2.568     2.506
    69   1 H        0.926     0.034     2.532     2.488
    70   1 H        0.926     0.031     2.568     2.506
    71   1 H        0.926     0.034     2.527     2.486
    72   1 H        0.926     0.036     2.496     2.471
    73   1 H        0.926     0.051     2.311     2.377
    74   1 H        0.926     0.050     2.315     2.379
    75   1 H        0.926     0.051     2.310     2.377
    76   1 H        0.926     0.050     2.317     2.380
    77   1 H        0.926     0.050     2.326     2.385
    78   1 H        0.926     0.042     2.420     2.433
    79   1 H        0.926     0.023     2.692     2.566
    80   1 H        0.926     0.034     2.534     2.489
    81   1 H        0.926     0.036     2.496     2.471
    82   1 H        0.926     0.038     2.473     2.459
    83   1 H        0.926     0.038     2.473     2.459
    84   1 H        0.926     0.036     2.500     2.472
    85   1 H        0.926     0.032     2.554     2.499
    86   1 H        0.926     0.022     2.699     2.569

molecular dipole:
                 x           y           z       tot (Debye)
 q only:       -4.949      -3.085       0.702
   full:       -4.711      -2.967       0.658      14.248

 projected vibrational frequencies (cm⁻¹)
eigval :       -0.00    -0.00    -0.00    -0.00     0.00     0.00
eigval :       12.04    18.96    24.31    31.04    37.59    42.22
eigval :       46.10    48.10    53.17    60.05    65.18    78.90
eigval :       81.70    86.62    88.87    97.80   119.25   124.24
eigval :      138.04   143.97   161.77   170.28   183.48   204.31
eigval :      226.29   229.94   235.21   239.16   248.60   261.62
eigval :      267.94   278.74   282.20   292.88   305.48   307.31
eigval :      319.26   340.92   347.22   356.22   372.03   375.46
eigval :      387.25   388.81   402.05   412.36   414.55   423.54
eigval :      444.89   448.34   454.60   462.44   470.19   472.30
eigval :      478.55   499.98   501.79   505.67   508.97   520.23
eigval :      537.92   547.71   555.80   586.39   587.80   587.99
eigval :      588.35   596.94   602.73   605.64   609.58   611.77
eigval :      620.60   636.43   648.99   660.12   672.36   672.97
eigval :      676.07   688.48   688.80   691.81   703.22   714.08
eigval :      727.97   750.26   751.25   755.57   763.78   764.12
eigval :      773.66   777.07   781.38   788.02   802.53   840.18
eigval :      862.57   874.62   877.01   879.12   879.81   881.11
eigval :      883.38   887.53   889.00   893.47   900.32   902.27
eigval :      903.62   904.79   908.37   909.45   910.76   912.46
eigval :      913.56   918.87   919.96   921.56   927.23   929.55
eigval :      930.72   931.77   932.01   932.50   933.50   933.76
eigval :      935.21   937.02   984.88   999.30  1003.00  1003.44
eigval :     1071.19  1072.61  1078.19  1086.14  1089.60  1089.90
eigval :     1091.01  1091.88  1107.37  1109.31  1121.44  1125.01
eigval :     1129.05  1131.82  1140.49  1168.67  1170.71  1171.94
eigval :     1174.24  1174.63  1177.61  1179.33  1179.62  1183.73
eigval :     1191.73  1194.33  1198.77  1200.41  1203.19  1204.71
eigval :     1209.19  1214.66  1224.09  1238.70  1239.67  1243.85
eigval :     1248.16  1251.64  1257.24  1259.91  1261.97  1274.36
eigval :     1280.60  1285.62  1290.05  1312.98  1315.70  1317.95
eigval :     1322.23  1323.26  1325.98  1338.75  1347.94  1364.29
eigval :     1393.45  1411.69  1414.35  1422.37  1425.77  1426.24
eigval :     1426.89  1430.47  1432.02  1432.94  1439.63  1448.26
eigval :     1455.70  1457.45  1466.81  1468.63  1471.73  1473.80
eigval :     1527.64  1540.84  1551.17  1557.26  1564.20  1570.89
eigval :     1576.26  1582.14  1586.11  1587.61  1593.79  1597.82
eigval :     1598.50  1600.00  1600.71  3065.27  3066.50  3067.31
eigval :     3069.63  3070.53  3072.58  3073.10  3073.25  3073.81
eigval :     3078.01  3079.05  3079.64  3080.17  3081.27  3084.02
eigval :     3086.55  3087.46  3087.99  3088.07  3088.13  3088.43
eigval :     3089.52  3090.04  3090.37  3092.83  3096.03  3096.71
eigval :     3098.36  3100.90  3103.76  3105.61  3106.27  3109.76

   temp. (K)  partition function   enthalpy   heat capacity  entropy
                                   cal/mol     cal/K/mol   cal/K/mol   J/K/mol
 298.15  VIB  0.374E+18            24018.105    156.062    147.512
         ROT  0.651E+08              888.752      2.981     38.735
         INT  0.243E+26            24906.857    159.043    186.247
         TR   0.170E+29             1481.254      4.968     45.393
         TOT                       26388.1108   164.0108   231.6395   969.1798

       T/K    H(0)-H(T)+PV         H(T)/Eh          T*S/Eh         G(T)/Eh
   ------------------------------------------------------------------------
    298.15    0.420521E-01    0.701418E+00    0.110059E+00    0.591359E+00
   ------------------------------------------------------------------------

         :::::::::::::::::::::::::::::::::::::::::::::::::::::
         ::                  THERMODYNAMIC                  ::
         :::::::::::::::::::::::::::::::::::::::::::::::::::::
         :: total free energy        -132.439878888976 Eh   ::
         ::.................................................::
         :: total energy             -133.031237841969 Eh   ::
         :: zero point energy           0.659366242501 Eh   ::
         :: G(RRHO) w/o ZPVE           -0.068007289508 Eh   ::
         :: G(RRHO) contrib.            0.591358952993 Eh   ::
         :::::::::::::::::::::::::::::::::::::::::::::::::::::

           -------------------------------------------------
          | TOTAL ENERGY             -133.031237841969 Eh   |
          | TOTAL ENTHALPY           -132.329819468204 Eh   |
          | TOTAL FREE ENERGY        -132.439878888976 Eh   |
          | GRADIENT NORM               0.000041366386 Eh/α |
          | HOMO-LUMO GAP               0.729300768315 eV   |
           -------------------------------------------------

 * finished run on 2025/08/29 at 20:14:38.825
