   * xtb version 6.7.1 (edcfbbe) compiled by 'albert@albert-system' on 2024-07-22

   ID    Z sym.   atoms
    1    8 O      1
    2    6 C      2-12, 14-53
    3    7 N      13
    4    1 H      54-86

          program call               : xtb data2507/toluene/SPBP-DPAC/SPBP-DPAC_toluene_T1_crest.xyz --gfn 2 --uhf 2 --gbsa toluene --ohess vtight --parallel 40 --molden --ceasefiles --namespace data2507/toluene/SPBP-DPAC/SPBP-DPAC_toluene_T1_finalOpt
      * Solvation model:               GBSA
        Solvent                        toluene
        Solvent mass                       9.2140E+01 g/mol
          :  Hamiltonian                  GFN2-xTB          :
 * total energy  :  -133.0353400 Eh     change       -0.1232837E-07 Eh
 * total energy  :  -133.0354891 Eh     change       -0.1491418E-03 Eh
 * total energy  :  -133.0355472 Eh     change       -0.5800902E-04 Eh
 * total energy  :  -133.0355692 Eh     change       -0.2204667E-04 Eh
 * total energy  :  -133.0355886 Eh     change       -0.1936084E-04 Eh
 * total energy  :  -133.0356146 Eh     change       -0.2605133E-04 Eh
 * total energy  :  -133.0356361 Eh     change       -0.2143976E-04 Eh
 * total energy  :  -133.0356481 Eh     change       -0.1202687E-04 Eh
 * total energy  :  -133.0356609 Eh     change       -0.1282978E-04 Eh
 * total energy  :  -133.0356702 Eh     change       -0.9292583E-05 Eh
 * total energy  :  -133.0363538 Eh     change       -0.1785332E-06 Eh
 * total energy  :  -133.0363540 Eh     change       -0.2490246E-06 Eh
 * total energy  :  -133.0363545 Eh     change       -0.4700806E-06 Eh
 * total energy  :  -133.0363550 Eh     change       -0.4656000E-06 Eh
 * total energy  :  -133.0363555 Eh     change       -0.5075172E-06 Eh
 * total energy  :  -133.0363559 Eh     change       -0.4511870E-06 Eh
 * total energy  :  -133.0363564 Eh     change       -0.4718605E-06 Eh
 * total energy  :  -133.0363566 Eh     change       -0.2416910E-06 Eh
 * total energy  :  -133.0363566 Eh     change       -0.3300528E-08 Eh
   *** GEOMETRY OPTIMIZATION CONVERGED AFTER 122 ITERATIONS ***

 final structure:
================
86
 xtb: 6.7.1 (edcfbbe)
O            4.64827160011041        3.92168411348331        0.26266496495721
C            4.27063199240576        2.70972986585433        0.18076507364707
C            5.22815619021343        1.62753391633742        0.05102293074475
C            6.59773111174833        1.94184078615495       -0.01606066925611
C            7.54508898106185        0.95245868914847       -0.13104985529856
C            7.15433674062169       -0.37967875626348       -0.18308603246160
C            5.80811917520384       -0.70131148240613       -0.11968243718728
C            4.83706049212718        0.28136884550695       -0.00754360770362
C            3.39135014531130       -0.14401857291990        0.07227414826066
C            2.43423856254540        1.02142405721767        0.09603475742020
C            1.08246211357526        0.75350070181729        0.09040388246632
C            0.14227053022226        1.78386718814048        0.15521467503251
N           -1.22923401712842        1.42513806434490        0.16047531499459
C           -2.04128927792106        1.71663910787144       -0.91352243096448
C           -1.60316063842117        2.57956806406484       -1.92861119082692
C           -2.45850890975055        2.96019590195967       -2.93848224239077
C           -3.76540056837956        2.49147612626640       -2.95830596803334
C           -4.18538415127828        1.58656991154967       -1.99805943926090
C           -3.33561177555402        1.16677217328842       -0.98655371913136
C           -3.70717319680125        0.02794816046294       -0.05950105103632
C           -5.20696618507351       -0.03017466515948        0.18660960443054
C           -5.93809337907874       -1.20592098791923        0.09179130968917
C           -7.29700306920786       -1.21030519327773        0.36269639142651
C           -7.93894348431806       -0.04370612171126        0.73898414777150
C           -7.21202483287172        1.13046710462385        0.85316244288631
C           -5.85602288916451        1.13536379409965        0.58415172541368
C           -3.18110659895545       -1.22626096955124       -0.77948712725597
C           -2.20239918291107       -2.03961958123459       -0.22385433543157
C           -1.72476700986556       -3.14015029770801       -0.91659634050875
C           -2.21213375409446       -3.44394559327537       -2.17431679854787
C           -3.19226357201294       -2.64092641366762       -2.73370670873524
C           -3.66823008887277       -1.54113376142749       -2.04424585760894
C           -2.99482456736881        0.19161524628111        1.26209473807529
C           -3.50145572394859       -0.35667834459530        2.43012466314585
C           -2.79645164908257       -0.28264296783802        3.61952742310477
C           -1.55774293201986        0.34460104550277        3.65069743410885
C           -1.03652996973559        0.90174994286066        2.50423534180683
C           -1.74483035049009        0.83381566768240        1.29601910745094
C            0.57519726618405        3.11230139574098        0.24822436722313
C            1.91448002189082        3.38892919016947        0.24871082070182
C            2.88186410789942        2.35533677560358        0.17713030485118
C            3.15901513294429       -1.01038279816548        1.29930081121076
C            3.30285177001155       -0.66402383374805        2.62494766521451
C            3.01722187298378       -1.61752030261823        3.59395132421223
C            2.59920596547290       -2.89033319502290        3.23514974451879
C            2.45547239730546       -3.24286007174042        1.90215439808405
C            2.73601895518875       -2.29543029834313        0.93089505537077
C            2.67152510511698       -2.36162519127573       -0.52205672700455
C            2.32458259788439       -3.39770557773224       -1.37376985813645
C            2.34472903715414       -3.16887542701607       -2.74072988887150
C            2.70694774271372       -1.93065300086725       -3.24948698920982
C            3.06320247118728       -0.88987681059583       -2.40106422866343
C            3.04441856406054       -1.11308261621745       -1.04155943054727
H            6.87552932152235        2.98541507823400        0.02781317227102
H            8.59238841683497        1.21512550298786       -0.17972233742517
H            7.89218461620027       -1.16295266303034       -0.27248731398722
H            5.50340247176106       -1.73806127561387       -0.15846050494076
H            0.73555110943711       -0.26821298706522        0.03012024912231
H           -0.59016464364064        2.94778501962643       -1.91245412207496
H           -2.10896808857233        3.63005387816010       -3.70905705995708
H           -4.44616414480525        2.81031543051130       -3.73227533005095
H           -5.19350886751270        1.20279480997562       -2.03539776121528
H           -5.44876320977748       -2.12613982954182       -0.19040440510351
H           -7.85329547783627       -2.13288483165230        0.28203899836988
H           -8.99860057248533       -0.04942301767533        0.94795626094437
H           -7.70208914668712        2.04455215491706        1.15521661469270
H           -5.29197584575212        2.05242869970391        0.67991839073447
H           -1.80526143938085       -1.83185932767252        0.75816547219809
H           -0.96405147095986       -3.75871713026769       -0.46448286817863
H           -1.83326831573864       -4.29884814508179       -2.71431427251651
H           -3.58669828240966       -2.86810526532025       -3.71329214914138
H           -4.42994385962074       -0.92515476500960       -2.49590957057218
H           -4.45585801321179       -0.85919629109485        2.40427697225541
H           -3.20831676306050       -0.71751396484510        4.51688222773323
H           -0.99999047179666        0.40356291321066        4.57260400210240
H           -0.08273087295381        1.40443197805637        2.52970530949398
H           -0.15042566423606        3.90729152307768        0.34036729859409
H            2.28421879087048        4.40142527697711        0.32223469829602
H            3.63061817372286        0.32801404542324        2.90206596814853
H            3.12516468843392       -1.36433976364424        4.63857076117975
H            2.38498706243370       -3.61658766982607        4.00591317022338
H            2.13403987220303       -4.23708024387633        1.62891998442087
H            2.04672536005981       -4.36519585051924       -0.98261997022321
H            2.07673982152807       -3.96549745013039       -3.41966795075931
H            2.71612045816713       -1.77336976061896       -4.31822483512358
H            3.35185366042529        0.07365724647817       -2.79655219161738

          :  Hamiltonian                  GFN2-xTB          :
         :: gradient norm              0.000043340054 Eh/a0 ::
         :: HOMO-LUMO gap              0.789359374096 eV    ::
         :: SCC energy              -135.518522526627 Eh    ::
         :: -> dispersion             -0.137171974322 Eh    ::
         :: -> Gsolv                  -0.063456730167 Eh    ::
         :: repulsion energy           2.482165900365 Eh    ::

    * Orbital Energies and Occupations

         #    Occupation            Energy/Eh            Energy/eV
      -------------------------------------------------------------
         1        2.0000           -0.6936092             -18.8741
       ...           ...                  ...                  ...
       113        2.0000           -0.4091214             -11.1328
       114        2.0000           -0.4083407             -11.1115
       115        2.0000           -0.4053601             -11.0304
       116        2.0000           -0.4031023             -10.9690
       117        2.0000           -0.4009952             -10.9116
       118        2.0000           -0.3999966             -10.8845
       119        2.0000           -0.3990899             -10.8598
       120        2.0000           -0.3975202             -10.8171
       121        2.0000           -0.3911557             -10.6439
       122        2.0000           -0.3814677             -10.3803
       123        1.8689           -0.3728886             -10.1468
       124        1.1311           -0.3692957             -10.0490
       125        1.0000           -0.2831533              -7.7050 (HOMO)
       126        0.0000           -0.2541450              -6.9156 (LUMO)
       127                         -0.2505002              -6.8165
       128                         -0.2438222              -6.6347
       129                         -0.2401695              -6.5353
       130                         -0.2329965              -6.3402
       131                         -0.2303330              -6.2677
       132                         -0.2297054              -6.2506
       133                         -0.2274133              -6.1882
       134                         -0.2266105              -6.1664
       135                         -0.2263808              -6.1601
       136                         -0.2256260              -6.1396
       ...                                ...                  ...
       245                          0.7259644              19.7545
      -------------------------------------------------------------
                  HL-Gap            0.0290083 Eh            0.7894 eV

     #   Z          covCN         q      C6AA      α(0)
     1   8 O        0.857    -0.504    23.872     6.551
     2   6 C        2.837     0.167    24.391     8.093
     3   6 C        2.977    -0.018    28.459     8.751
     4   6 C        2.924    -0.033    28.824     8.804
     5   6 C        2.916    -0.035    28.878     8.812
     6   6 C        2.918    -0.042    29.050     8.838
     7   6 C        2.923    -0.037    28.924     8.820
     8   6 C        2.979     0.002    27.981     8.677
     9   6 C        3.949     0.013    20.293     6.401
    10   6 C        2.979     0.003    27.942     8.671
    11   6 C        2.925    -0.045    29.116     8.849
    12   6 C        2.928     0.032    27.285     8.566
    13   7 N        2.755    -0.002    21.302     6.855
    14   6 C        2.930     0.061    26.632     8.463
    15   6 C        2.920    -0.043    29.079     8.843
    16   6 C        2.917    -0.025    28.636     8.775
    17   6 C        2.918    -0.026    28.657     8.778
    18   6 C        2.921    -0.030    28.748     8.793
    19   6 C        2.991     0.005    27.910     8.666
    20   6 C        3.921     0.012    20.321     6.407
    21   6 C        2.977     0.013    27.708     8.634
    22   6 C        2.922    -0.035    28.872     8.812
    23   6 C        2.920    -0.029    28.736     8.791
    24   6 C        2.919    -0.031    28.766     8.795
    25   6 C        2.919    -0.029    28.729     8.790
    26   6 C        2.925    -0.033    28.833     8.806
    27   6 C        2.985     0.015    27.681     8.630
    28   6 C        2.923    -0.036    28.906     8.817
    29   6 C        2.920    -0.029    28.717     8.788
    30   6 C        2.919    -0.030    28.745     8.792
    31   6 C        2.920    -0.029    28.729     8.790
    32   6 C        2.924    -0.035    28.867     8.811
    33   6 C        2.984     0.005    27.895     8.664
    34   6 C        2.921    -0.030    28.757     8.794
    35   6 C        2.918    -0.026    28.650     8.777
    36   6 C        2.917    -0.025    28.622     8.773
    37   6 C        2.921    -0.041    29.024     8.835
    38   6 C        2.936     0.061    26.623     8.462
    39   6 C        2.912    -0.044    29.088     8.844
    40   6 C        2.923    -0.035    28.872     8.812
    41   6 C        2.975    -0.023    28.567     8.767
    42   6 C        3.059     0.003    27.901     8.662
    43   6 C        2.914    -0.032    28.809     8.801
    44   6 C        2.922    -0.032    28.792     8.799
    45   6 C        2.921    -0.033    28.817     8.803
    46   6 C        2.914    -0.035    28.861     8.809
    47   6 C        3.033     0.001    27.966     8.674
    48   6 C        3.033     0.001    27.970     8.675
    49   6 C        2.914    -0.034    28.854     8.808
    50   6 C        2.921    -0.032    28.806     8.801
    51   6 C        2.922    -0.032    28.791     8.799
    52   6 C        2.914    -0.032    28.800     8.800
    53   6 C        3.056     0.003    27.907     8.663
    54   1 H        0.926     0.029     2.605     2.524
    55   1 H        0.926     0.029     2.600     2.521
    56   1 H        0.926     0.030     2.590     2.517
    57   1 H        0.925     0.027     2.635     2.539
    58   1 H        0.926     0.034     2.534     2.489
    59   1 H        0.926     0.051     2.308     2.376
    60   1 H        0.926     0.049     2.326     2.385
    61   1 H        0.926     0.052     2.300     2.372
    62   1 H        0.926     0.052     2.294     2.369
    63   1 H        0.926     0.037     2.489     2.467
    64   1 H        0.926     0.035     2.519     2.482
    65   1 H        0.926     0.034     2.528     2.486
    66   1 H        0.926     0.035     2.518     2.482
    67   1 H        0.926     0.031     2.572     2.508
    68   1 H        0.926     0.031     2.573     2.508
    69   1 H        0.926     0.035     2.512     2.478
    70   1 H        0.926     0.036     2.499     2.472
    71   1 H        0.926     0.038     2.482     2.464
    72   1 H        0.926     0.043     2.414     2.430
    73   1 H        0.926     0.051     2.302     2.373
    74   1 H        0.926     0.052     2.301     2.372
    75   1 H        0.926     0.049     2.327     2.385
    76   1 H        0.926     0.046     2.368     2.406
    77   1 H        0.926     0.044     2.400     2.423
    78   1 H        0.926     0.039     2.466     2.456
    79   1 H        0.926     0.022     2.700     2.570
    80   1 H        0.926     0.034     2.529     2.487
    81   1 H        0.926     0.036     2.496     2.470
    82   1 H        0.926     0.037     2.488     2.467
    83   1 H        0.926     0.037     2.495     2.470
    84   1 H        0.926     0.036     2.503     2.474
    85   1 H        0.926     0.034     2.534     2.490
    86   1 H        0.926     0.024     2.680     2.560

molecular dipole:
                 x           y           z       tot (Debye)
 q only:       -5.745      -2.610      -0.172
   full:       -5.512      -2.550      -0.182      15.442

 projected vibrational frequencies (cm⁻¹)
eigval :       -0.00    -0.00    -0.00    -0.00     0.00     0.00
eigval :        9.21    14.96    16.67    28.51    32.02    35.47
eigval :       40.00    47.80    51.36    58.08    67.30    69.30
eigval :       75.01    84.35    86.47   109.52   117.06   128.18
eigval :      133.72   138.75   140.08   176.57   181.66   214.44
eigval :      225.84   229.43   233.87   234.22   238.60   258.81
eigval :      274.33   278.53   288.14   294.53   302.44   307.91
eigval :      310.14   345.34   370.19   374.61   376.81   383.44
eigval :      388.43   398.90   407.34   411.81   417.14   422.55
eigval :      441.70   448.21   450.55   459.09   462.59   468.59
eigval :      474.61   488.99   501.96   507.58   521.41   531.85
eigval :      538.46   553.93   559.98   586.44   587.50   587.74
eigval :      590.97   594.84   600.28   604.34   606.52   618.99
eigval :      626.44   638.01   659.28   661.05   667.87   675.35
eigval :      676.74   688.52   689.51   690.97   700.17   706.70
eigval :      729.08   750.06   751.67   756.95   764.37   765.28
eigval :      772.37   772.97   775.89   785.04   815.48   859.47
eigval :      862.22   871.48   872.66   874.26   876.61   877.90
eigval :      879.25   884.51   887.78   891.48   896.07   899.56
eigval :      900.16   903.77   905.92   909.24   910.34   912.07
eigval :      912.27   912.43   916.43   922.35   923.88   925.08
eigval :      926.32   926.41   931.27   931.66   932.64   935.15
eigval :      935.75   940.54   982.10   994.81  1002.29  1003.36
eigval :     1071.51  1072.63  1077.65  1086.61  1090.33  1091.00
eigval :     1096.93  1097.67  1112.98  1119.23  1122.40  1125.25
eigval :     1126.31  1131.01  1139.86  1161.69  1172.05  1173.33
eigval :     1173.99  1176.94  1178.17  1178.69  1180.16  1182.31
eigval :     1184.26  1190.71  1194.31  1200.46  1203.38  1208.62
eigval :     1212.09  1217.90  1224.30  1233.18  1236.58  1239.43
eigval :     1249.65  1252.87  1257.18  1260.26  1262.04  1280.96
eigval :     1285.42  1289.31  1298.16  1301.07  1314.65  1318.95
eigval :     1322.19  1325.06  1332.53  1336.84  1340.22  1364.92
eigval :     1393.48  1407.61  1411.89  1424.72  1426.25  1427.40
eigval :     1428.48  1428.87  1432.38  1440.96  1444.84  1457.12
eigval :     1460.12  1466.00  1468.51  1469.40  1470.32  1473.08
eigval :     1533.42  1541.98  1544.15  1553.84  1567.76  1578.78
eigval :     1580.55  1582.16  1584.02  1587.07  1593.92  1594.29
eigval :     1598.15  1598.45  1600.46  3064.19  3066.31  3069.12
eigval :     3069.64  3070.27  3072.37  3073.29  3073.30  3073.65
eigval :     3075.75  3078.13  3079.59  3080.30  3080.71  3081.76
eigval :     3083.35  3085.41  3086.31  3087.50  3088.19  3088.28
eigval :     3089.46  3090.01  3090.37  3091.64  3094.20  3096.87
eigval :     3098.03  3102.19  3105.32  3105.50  3111.35  3114.80

   temp. (K)  partition function   enthalpy   heat capacity  entropy
                                   cal/mol     cal/K/mol   cal/K/mol   J/K/mol
 298.15  VIB  0.184E+19            24068.785    155.363    148.610
         ROT  0.678E+08              888.752      2.981     38.814
         INT  0.125E+27            24957.537    158.344    187.424
         TR   0.170E+29             1481.254      4.968     45.393
         TOT                       26438.7911   163.3120   232.8173   974.1077

       T/K    H(0)-H(T)+PV         H(T)/Eh          T*S/Eh         G(T)/Eh
   ------------------------------------------------------------------------
    298.15    0.421329E-01    0.701503E+00    0.110619E+00    0.590884E+00
   ------------------------------------------------------------------------

         :::::::::::::::::::::::::::::::::::::::::::::::::::::
         ::                  THERMODYNAMIC                  ::
         :::::::::::::::::::::::::::::::::::::::::::::::::::::
         :: total free energy        -132.445472636516 Eh   ::
         ::.................................................::
         :: total energy             -133.036356624102 Eh   ::
         :: zero point energy           0.659370118379 Eh   ::
         :: G(RRHO) w/o ZPVE           -0.068486130793 Eh   ::
         :: G(RRHO) contrib.            0.590883987586 Eh   ::
         :::::::::::::::::::::::::::::::::::::::::::::::::::::

           -------------------------------------------------
          | TOTAL ENERGY             -133.036356624102 Eh   |
          | TOTAL ENTHALPY           -132.334853610260 Eh   |
          | TOTAL FREE ENERGY        -132.445472636516 Eh   |
          | GRADIENT NORM               0.000043898303 Eh/α |
          | HOMO-LUMO GAP               0.789356328637 eV   |
           -------------------------------------------------

 * finished run on 2025/08/29 at 20:22:07.935
