   * xtb version 6.7.1 (edcfbbe) compiled by 'albert@albert-system' on 2024-07-22

   ID    Z sym.   atoms
    1    8 O      1
    2    6 C      2-12, 14-53
    3    7 N      13
    4    1 H      54-86

          program call               : xtb data2507/toluene/SPBP-DPAC/SPBP-DPAC_toluene_S0_crest.xyz --gfn 2 --gbsa toluene --ohess vtight --parallel 40 --molden --ceasefiles --namespace data2507/toluene/SPBP-DPAC/SPBP-DPAC_toluene_S0_finalOpt
      * Solvation model:               GBSA
        Solvent                        toluene
        Solvent mass                       9.2140E+01 g/mol
          :  Hamiltonian                  GFN2-xTB          :
 * total energy  :  -133.1171322 Eh     change       -0.4066948E-08 Eh
 * total energy  :  -133.1172920 Eh     change       -0.1597969E-03 Eh
 * total energy  :  -133.1174176 Eh     change       -0.1255967E-03 Eh
 * total energy  :  -133.1174815 Eh     change       -0.6398627E-04 Eh
 * total energy  :  -133.1175749 Eh     change       -0.9332323E-04 Eh
 * total energy  :  -133.1176626 Eh     change       -0.8775894E-04 Eh
 * total energy  :  -133.1177179 Eh     change       -0.5530864E-04 Eh
 * total energy  :  -133.1177774 Eh     change       -0.5946626E-04 Eh
 * total energy  :  -133.1178135 Eh     change       -0.3610611E-04 Eh
 * total energy  :  -133.1178701 Eh     change       -0.5658962E-04 Eh
 * total energy  :  -133.1180255 Eh     change       -0.6837632E-06 Eh
 * total energy  :  -133.1180260 Eh     change       -0.5069623E-06 Eh
 * total energy  :  -133.1180265 Eh     change       -0.4442364E-06 Eh
 * total energy  :  -133.1180269 Eh     change       -0.4079759E-06 Eh
 * total energy  :  -133.1180272 Eh     change       -0.3002445E-06 Eh
 * total energy  :  -133.1180274 Eh     change       -0.2145145E-06 Eh
 * total energy  :  -133.1180276 Eh     change       -0.1810318E-06 Eh
 * total energy  :  -133.1180277 Eh     change       -0.1210844E-06 Eh
 * total energy  :  -133.1180278 Eh     change       -0.7830485E-07 Eh
   *** GEOMETRY OPTIMIZATION CONVERGED AFTER 36 ITERATIONS ***

 final structure:
================
86
 xtb: 6.7.1 (edcfbbe)
O            3.80169379499422        3.99020419055705        0.01101950071423
C            3.63364999272973        2.77003920229878        0.02964262966521
C            4.73648665951829        1.84068058490841       -0.28812138846297
C            5.98827703255286        2.37780205560041       -0.60035666710824
C            7.05452099017359        1.56002668377051       -0.90446298096861
C            6.88037546407429        0.18246529554583       -0.90118488317463
C            5.64752665466561       -0.35960208389747       -0.59417594973313
C            4.56326272687819        0.45620725043065       -0.28464314109017
C            3.24551388972890       -0.19015019647762        0.04256637275693
C            2.14474920107535        0.78398690627451        0.37373533109854
C            0.90500027574534        0.27479574317940        0.70999944395960
C           -0.16197911119644        1.10241812691600        1.07464860852172
N           -1.38058540501601        0.57492784053365        1.42103488429120
C           -2.52423367604478        1.36470348586393        1.67184672633290
C           -2.55187241616916        2.29886176530334        2.69900171198156
C           -3.70752572646873        3.02123266468990        2.93722636636063
C           -4.83401265577374        2.80174813585326        2.16253281832140
C           -4.81582029070716        1.84725850542287        1.15853939355064
C           -3.66821820459311        1.11101895742669        0.91194753385153
C           -3.52857112364094        0.05849648729528       -0.17922596798600
C           -4.87932840783038       -0.36495910437363       -0.72280929265128
C           -5.20767949820123       -0.26566345353944       -2.06724754730327
C           -6.45545456798568       -0.66649266255208       -2.51796207157266
C           -7.38987167099355       -1.17307098902440       -1.63263408950433
C           -7.06928224089368       -1.28031016239082       -0.28853104955261
C           -5.82477005080451       -0.88126089580875        0.16114746348723
C           -2.62889174227440        0.64336213304093       -1.26682902169784
C           -1.71702820309817       -0.15311925486072       -1.94774140974773
C           -0.89797767408977        0.39014386099101       -2.92177740650374
C           -0.97644501929906        1.73686139798717       -3.22967712655837
C           -1.89280908231077        2.53516666151403       -2.56667012381876
C           -2.71344598051118        1.99209929348025       -1.59459416542139
C           -2.80762913525704       -1.11058788854908        0.47516834015237
C           -3.15862275911355       -2.44130366076271        0.31394918842227
C           -2.44185337415611       -3.43796589219181        0.95586501759420
C           -1.38096198883418       -3.11138034696798        1.78323996351682
C           -1.01394626324741       -1.78769454459123        1.94939629188184
C           -1.70347145133907       -0.79257996164013        1.26928994936185
C            0.04048444692047        2.49296643589731        1.02250259933937
C            1.26423623179038        2.99947721600737        0.67585474106674
C            2.34918764492234        2.16766364614787        0.36567025860639
C            3.40442014497622       -1.17670618432790        1.18820387441951
C            3.80503920524145       -0.92032896422512        2.48089722038373
C            3.86966478891158       -1.98083004051267        3.37620460573519
C            3.53722354361594       -3.26725619901264        2.97812365334383
C            3.13387176180873       -3.52806954681496        1.67786111769614
C            3.06612372953460       -2.47470458783552        0.78034199450388
C            2.69706502653732       -2.43591120530874       -0.62701647566048
C            2.30225134040412       -3.44170958755921       -1.49407141123886
C            2.04274970170342       -3.11431320057860       -2.81560995389655
C            2.17709498526275       -1.80914200572394       -3.26460783835343
C            2.56030985934480       -0.79322569479032       -2.39754187711145
C            2.81270903032676       -1.11468842737158       -1.08250569311347
H            6.08883803729035        3.45403341439894       -0.59381652065259
H            8.01681931133328        1.98757629047383       -1.14346783285787
H            7.70886092050445       -0.46845045985265       -1.13849424236564
H            5.51654404984052       -1.43211897683758       -0.59316978536869
H            0.76208916372565       -0.79306711181921        0.67289427470442
H           -1.67325675090184        2.44953139820230        3.30831238298792
H           -3.72808125808426        3.75163810363264        3.73205902297760
H           -5.73331347377772        3.37164822657720        2.34136328885194
H           -5.69876813293582        1.68304288572329        0.55933797097932
H           -4.48893320811929        0.12625279916197       -2.77140442453609
H           -6.69478685675429       -0.58103609666942       -3.56818533399735
H           -8.36231203206946       -1.48349324818386       -1.98600565977087
H           -7.79091067607609       -1.67695136608485        0.41101543363475
H           -5.57798168280958       -0.96938505556273        1.20995386942549
H           -1.64125292178055       -1.20618713223045       -1.71914600482475
H           -0.19101914047675       -0.24471760943118       -3.43384294696935
H           -0.33056738636556        2.16226407659132       -3.98396233604176
H           -1.96817022084511        3.58655340459083       -2.80410502476514
H           -3.42640401207577        2.62457483813062       -1.08596073135036
H           -3.99080917977860       -2.70337702808617       -0.32170002687634
H           -2.72205540097046       -4.47122542312713        0.81614928259614
H           -0.84090631278295       -3.88506590308288        2.30763420661079
H           -0.20373060432176       -1.52273332366190        2.61182652678170
H           -0.77455705381006        3.16717875788126        1.23030482226675
H            1.42466752127466        4.06742508049788        0.63324134463034
H            4.06479082657156        0.08199498974978        2.79033765744731
H            4.18345956023182       -1.80001198711853        4.39387477271822
H            3.59585371695270       -4.07636605945439        3.69168469757940
H            2.87690082250496       -4.53119635268991        1.37202184738244
H            2.20461989040519       -4.46063564594499       -1.15061073834092
H            1.73833649092491       -3.88637544249943       -3.50735391896016
H            1.98476774219084       -1.57965395418809       -4.30294770096369
H            2.66201630900838        0.22434206147884       -2.74649773610452

          :  Hamiltonian                  GFN2-xTB          :
         :: gradient norm              0.000050734609 Eh/a0 ::
         :: HOMO-LUMO gap              2.095422670656 eV    ::
         :: SCC energy              -135.611969100418 Eh    ::
         :: -> dispersion             -0.142017787037 Eh    ::
         :: -> Gsolv                  -0.053867097240 Eh    ::
         :: repulsion energy           2.493941313746 Eh    ::

    * Orbital Energies and Occupations

         #    Occupation            Energy/Eh            Energy/eV
      -------------------------------------------------------------
         1        2.0000           -0.6931580             -18.8618
       ...           ...                  ...                  ...
       112        2.0000           -0.4095043             -11.1432
       113        2.0000           -0.4077422             -11.0952
       114        2.0000           -0.4064477             -11.0600
       115        2.0000           -0.4048673             -11.0170
       116        2.0000           -0.4038803             -10.9901
       117        2.0000           -0.4034865             -10.9794
       118        2.0000           -0.4032346             -10.9726
       119        2.0000           -0.3983189             -10.8388
       120        2.0000           -0.3958587             -10.7719
       121        2.0000           -0.3955012             -10.7621
       122        2.0000           -0.3845762             -10.4649
       123        2.0000           -0.3823042             -10.4030
       124        2.0000           -0.3623561              -9.8602 (HOMO)
       125                         -0.2853507              -7.7648 (LUMO)
       126                         -0.2568997              -6.9906
       127                         -0.2392559              -6.5105
       128                         -0.2356645              -6.4128
       129                         -0.2320760              -6.3151
       130                         -0.2317027              -6.3050
       131                         -0.2299564              -6.2574
       132                         -0.2290109              -6.2317
       133                         -0.2281918              -6.2094
       134                         -0.2251511              -6.1267
       135                         -0.2246495              -6.1130
       ...                                ...                  ...
       245                          0.7235180              19.6879
      -------------------------------------------------------------
                  HL-Gap            0.0770055 Eh            2.0954 eV

     #   Z          covCN         q      C6AA      α(0)
     1   8 O        0.858    -0.466    23.051     6.437
     2   6 C        2.832     0.218    23.401     7.927
     3   6 C        2.976    -0.024    28.594     8.771
     4   6 C        2.926    -0.020    28.516     8.757
     5   6 C        2.917    -0.031    28.772     8.796
     6   6 C        2.919    -0.024    28.600     8.770
     7   6 C        2.924    -0.034    28.840     8.807
     8   6 C        2.981     0.018    27.611     8.619
     9   6 C        3.950     0.010    20.333     6.407
    10   6 C        2.981     0.018    27.593     8.617
    11   6 C        2.929    -0.065    29.615     8.925
    12   6 C        2.912     0.077    26.285     8.407
    13   7 N        2.755    -0.065    22.507     7.046
    14   6 C        2.951     0.056    26.738     8.481
    15   6 C        2.919    -0.044    29.098     8.846
    16   6 C        2.920    -0.032    28.799     8.800
    17   6 C        2.919    -0.035    28.873     8.812
    18   6 C        2.921    -0.035    28.862     8.810
    19   6 C        2.993    -0.001    28.035     8.685
    20   6 C        3.924     0.011    20.335     6.409
    21   6 C        2.975     0.013    27.718     8.636
    22   6 C        2.922    -0.035    28.883     8.813
    23   6 C        2.920    -0.030    28.760     8.794
    24   6 C        2.919    -0.032    28.803     8.801
    25   6 C        2.919    -0.031    28.774     8.796
    26   6 C        2.925    -0.032    28.810     8.802
    27   6 C        2.980     0.014    27.704     8.634
    28   6 C        2.923    -0.036    28.885     8.814
    29   6 C        2.920    -0.031    28.782     8.798
    30   6 C        2.920    -0.032    28.796     8.800
    31   6 C        2.919    -0.031    28.768     8.796
    32   6 C        2.924    -0.036    28.892     8.815
    33   6 C        2.992    -0.000    28.030     8.685
    34   6 C        2.921    -0.035    28.861     8.810
    35   6 C        2.919    -0.035    28.859     8.809
    36   6 C        2.920    -0.032    28.789     8.799
    37   6 C        2.919    -0.043    29.080     8.843
    38   6 C        2.951     0.056    26.736     8.481
    39   6 C        2.920    -0.058    29.441     8.898
    40   6 C        2.924    -0.020    28.518     8.757
    41   6 C        2.974    -0.040    28.990     8.832
    42   6 C        3.059     0.005    27.853     8.655
    43   6 C        2.913    -0.033    28.811     8.802
    44   6 C        2.923    -0.031    28.774     8.797
    45   6 C        2.921    -0.032    28.791     8.799
    46   6 C        2.915    -0.033    28.832     8.805
    47   6 C        3.033     0.003    27.937     8.670
    48   6 C        3.033     0.002    27.940     8.670
    49   6 C        2.915    -0.034    28.840     8.806
    50   6 C        2.921    -0.032    28.794     8.800
    51   6 C        2.923    -0.030    28.748     8.793
    52   6 C        2.913    -0.031    28.781     8.797
    53   6 C        3.058     0.005    27.858     8.656
    54   1 H        0.926     0.047     2.363     2.404
    55   1 H        0.926     0.042     2.421     2.433
    56   1 H        0.926     0.045     2.385     2.415
    57   1 H        0.926     0.039     2.459     2.452
    58   1 H        0.926     0.040     2.446     2.446
    59   1 H        0.926     0.042     2.422     2.434
    60   1 H        0.926     0.041     2.435     2.440
    61   1 H        0.926     0.040     2.447     2.446
    62   1 H        0.926     0.041     2.439     2.442
    63   1 H        0.926     0.030     2.582     2.513
    64   1 H        0.926     0.031     2.565     2.505
    65   1 H        0.926     0.032     2.556     2.500
    66   1 H        0.926     0.033     2.544     2.494
    67   1 H        0.926     0.032     2.560     2.502
    68   1 H        0.926     0.030     2.589     2.516
    69   1 H        0.926     0.033     2.540     2.492
    70   1 H        0.926     0.030     2.592     2.518
    71   1 H        0.926     0.031     2.566     2.505
    72   1 H        0.926     0.032     2.565     2.504
    73   1 H        0.926     0.041     2.439     2.442
    74   1 H        0.926     0.041     2.433     2.439
    75   1 H        0.926     0.042     2.421     2.433
    76   1 H        0.926     0.041     2.432     2.439
    77   1 H        0.926     0.041     2.434     2.440
    78   1 H        0.926     0.045     2.380     2.412
    79   1 H        0.926     0.025     2.665     2.553
    80   1 H        0.926     0.035     2.510     2.477
    81   1 H        0.926     0.038     2.479     2.462
    82   1 H        0.926     0.040     2.455     2.450
    83   1 H        0.926     0.039     2.457     2.451
    84   1 H        0.926     0.037     2.484     2.465
    85   1 H        0.926     0.034     2.529     2.487
    86   1 H        0.926     0.025     2.663     2.552

molecular dipole:
                 x           y           z       tot (Debye)
 q only:       -1.736      -2.600       0.298
   full:       -1.630      -2.514       0.246       7.641

 projected vibrational frequencies (cm⁻¹)
eigval :       -0.00    -0.00    -0.00     0.00     0.00     0.00
eigval :       14.07    21.71    25.30    33.52    39.26    43.16
eigval :       47.57    49.98    56.45    58.90    64.21    80.74
eigval :       83.62    88.76    92.78    94.56   113.66   125.15
eigval :      139.18   146.95   160.30   169.82   186.90   202.37
eigval :      228.66   230.10   235.59   242.16   251.17   261.42
eigval :      268.48   276.38   287.05   295.61   305.91   313.70
eigval :      319.81   347.49   363.02   373.95   378.20   390.20
eigval :      391.27   396.74   401.56   412.13   419.98   427.55
eigval :      445.05   457.19   460.69   468.44   473.03   475.58
eigval :      488.28   502.68   506.66   513.31   519.84   537.51
eigval :      553.63   563.49   588.58   588.76   589.64   595.19
eigval :      601.03   606.07   609.93   612.18   615.55   625.47
eigval :      643.47   646.37   666.28   673.60   675.86   679.63
eigval :      681.59   689.96   696.76   706.79   719.39   728.26
eigval :      736.11   751.81   754.84   759.50   767.43   776.55
eigval :      782.93   786.77   788.48   790.96   829.61   863.88
eigval :      876.16   877.49   880.95   884.95   885.31   886.09
eigval :      888.94   892.95   895.41   899.12   901.96   908.39
eigval :      911.21   912.10   914.44   918.57   918.91   920.84
eigval :      923.12   924.82   925.25   929.91   931.85   931.89
eigval :      933.13   933.51   935.23   935.50   936.70   937.21
eigval :      941.66   949.18   986.60  1002.00  1003.31  1017.07
eigval :     1072.56  1076.10  1078.56  1086.39  1089.70  1091.38
eigval :     1092.79  1094.93  1110.23  1113.22  1125.46  1125.83
eigval :     1129.90  1135.82  1141.68  1172.67  1173.99  1175.07
eigval :     1177.14  1178.29  1180.75  1180.95  1182.29  1184.43
eigval :     1197.65  1199.44  1200.83  1201.52  1203.12  1208.02
eigval :     1216.39  1229.08  1233.58  1240.02  1247.13  1251.76
eigval :     1257.29  1257.52  1261.45  1266.06  1281.96  1284.41
eigval :     1287.08  1287.71  1290.07  1316.35  1316.86  1320.63
eigval :     1323.27  1326.46  1332.06  1336.76  1364.80  1366.86
eigval :     1423.55  1426.75  1427.05  1429.77  1430.61  1433.58
eigval :     1437.82  1443.21  1449.40  1458.51  1465.46  1468.98
eigval :     1469.77  1473.19  1475.72  1490.49  1541.90  1567.90
eigval :     1574.48  1577.68  1582.00  1583.71  1584.29  1587.28
eigval :     1588.47  1589.25  1594.63  1595.32  1599.19  1599.70
eigval :     1601.73  1602.44  1623.79  3068.43  3069.50  3069.81
eigval :     3070.88  3071.12  3074.71  3075.79  3075.88  3077.58
eigval :     3077.65  3078.04  3080.13  3081.05  3081.13  3081.61
eigval :     3082.39  3083.46  3084.73  3084.95  3086.28  3086.75
eigval :     3087.44  3089.98  3091.60  3092.20  3093.54  3093.85
eigval :     3094.55  3098.55  3099.01  3100.60  3109.18  3113.08

   temp. (K)  partition function   enthalpy   heat capacity  entropy
                                   cal/mol     cal/K/mol   cal/K/mol   J/K/mol
 298.15  VIB  0.162E+18            23734.881    154.608    145.744
         ROT  0.638E+08              888.752      2.981     38.696
         INT  0.103E+26            24623.634    157.589    184.440
         TR   0.170E+29             1481.254      4.968     45.393
         TOT                       26104.8876   162.5568   229.8325   961.6194

       T/K    H(0)-H(T)+PV         H(T)/Eh          T*S/Eh         G(T)/Eh
   ------------------------------------------------------------------------
    298.15    0.416008E-01    0.704736E+00    0.109201E+00    0.595535E+00
   ------------------------------------------------------------------------

         :::::::::::::::::::::::::::::::::::::::::::::::::::::
         ::                  THERMODYNAMIC                  ::
         :::::::::::::::::::::::::::::::::::::::::::::::::::::
         :: total free energy        -132.522492579306 Eh   ::
         ::.................................................::
         :: total energy             -133.118027788646 Eh   ::
         :: zero point energy           0.663135280771 Eh   ::
         :: G(RRHO) w/o ZPVE           -0.067600071431 Eh   ::
         :: G(RRHO) contrib.            0.595535209340 Eh   ::
         :::::::::::::::::::::::::::::::::::::::::::::::::::::

           -------------------------------------------------
          | TOTAL ENERGY             -133.118027788646 Eh   |
          | TOTAL ENTHALPY           -132.413291721410 Eh   |
          | TOTAL FREE ENERGY        -132.522492579306 Eh   |
          | GRADIENT NORM               0.000050878649 Eh/α |
          | HOMO-LUMO GAP               2.095425288874 eV   |
           -------------------------------------------------

 * finished run on 2025/08/29 at 20:14:27.726
