   * xtb version 6.7.1 (edcfbbe) compiled by 'albert@albert-system' on 2024-07-22

   ID    Z sym.   atoms
    1    6 C      1-6, 8-39, 41-46
    2    7 N      7
    3    8 O      40
    4    1 H      47-85

          program call               : xtb data2507/toluene/DPFPhe/DPFPhe_toluene_S0_crest.xyz --gfn 2 --gbsa toluene --ohess vtight --parallel 40 --molden --ceasefiles --namespace data2507/toluene/DPFPhe/DPFPhe_toluene_S0_finalOpt
      * Solvation model:               GBSA
        Solvent                        toluene
        Solvent mass                       9.2140E+01 g/mol
          :  Hamiltonian                  GFN2-xTB          :
 * total energy  :  -121.1565380 Eh     change       -0.1803556E-08 Eh
 * total energy  :  -121.1566195 Eh     change       -0.8147481E-04 Eh
 * total energy  :  -121.1566661 Eh     change       -0.4665584E-04 Eh
 * total energy  :  -121.1566979 Eh     change       -0.3174178E-04 Eh
 * total energy  :  -121.1567251 Eh     change       -0.2725793E-04 Eh
 * total energy  :  -121.1567631 Eh     change       -0.3796475E-04 Eh
 * total energy  :  -121.1567873 Eh     change       -0.2416426E-04 Eh
 * total energy  :  -121.1568037 Eh     change       -0.1641053E-04 Eh
 * total energy  :  -121.1568235 Eh     change       -0.1986311E-04 Eh
 * total energy  :  -121.1568325 Eh     change       -0.8987321E-05 Eh
 * total energy  :  -121.1572259 Eh     change       -0.1442637E-05 Eh
 * total energy  :  -121.1572271 Eh     change       -0.1226871E-05 Eh
 * total energy  :  -121.1572282 Eh     change       -0.1072251E-05 Eh
 * total energy  :  -121.1572291 Eh     change       -0.9763391E-06 Eh
 * total energy  :  -121.1572301 Eh     change       -0.9449313E-06 Eh
 * total energy  :  -121.1572311 Eh     change       -0.9781668E-06 Eh
 * total energy  :  -121.1572321 Eh     change       -0.1084998E-05 Eh
 * total energy  :  -121.1572334 Eh     change       -0.1233808E-05 Eh
 * total energy  :  -121.1572334 Eh     change       -0.6999926E-08 Eh
   *** GEOMETRY OPTIMIZATION CONVERGED AFTER 94 ITERATIONS ***

 final structure:
================
85
 xtb: 6.7.1 (edcfbbe)
C            2.33002366202413       -0.92434891426892        2.08696657851841
C            3.70514054692741       -0.69113345161559        1.47213425714000
C            3.74820431183726       -1.17306086128793        0.02436985891424
C            5.12926806457502       -1.07576961225726       -0.62463926554097
C            5.69658031830139        0.33995590690626       -0.76086694065531
C            4.84519818591782        1.27049511967157       -1.64539559785633
N            3.95181762641079        2.11119147135088       -0.87318917185007
C            2.57117306100338        1.92215063034061       -0.89018533614845
C            1.89621324511372        1.25365085901889       -1.84055030043584
C            0.42394520411759        0.99109462346746       -1.77740773343660
C           -0.15796489056547        1.14535795786141       -0.39765150111856
C           -1.26397504437566        0.51772895689048        0.02529755617132
C           -2.04616169314848       -0.51248875040892       -0.73460831548573
C           -3.51940993505798       -0.48491694663624       -0.41789974273591
C           -4.41042411618269        0.55064620391729       -0.58139152719034
C           -5.74704248184925        0.36767561170989       -0.21700902397307
C           -6.71398261354879        1.46543004999200       -0.37075857213159
C           -7.99709243276703        1.22537521411102       -0.85865076543745
C           -8.90366752783404        2.26024074691193       -0.99760382533184
C           -8.54644350588261        3.55198897406118       -0.64725644168507
C           -7.27420430532956        3.80253289416749       -0.15989168515050
C           -6.36461290754781        2.76984779032906       -0.02586339643816
C           -6.15332031864373       -0.86200948809192        0.30364653849090
C           -5.25985192130538       -1.90365413192402        0.47762079216349
C           -3.93447802775129       -1.71429743789914        0.11833734378709
C           -2.78274256292870       -2.59450061688645        0.19894686845185
C           -2.65121960121989       -3.89130801928642        0.67175413085887
C           -1.40060086054837       -4.48243787444146        0.65953077789203
C           -0.27986589722680       -3.80316256221267        0.18011833556212
C            1.04174805071210       -4.44918613161163        0.18416042460745
C            1.47666664668260       -5.17546562688645        1.29092340342198
C            2.72319409022732       -5.77429241526182        1.29592893527562
C            3.55236407553582       -5.66746425482034        0.19132543552213
C            3.12810326667309       -4.95343562101550       -0.91719690901670
C            1.88655004544996       -4.34394772433903       -0.91902652985236
C           -0.41961103355773       -2.49997494615042       -0.30297158760617
C           -1.66200095187310       -1.90896078173459       -0.29473586977509
C            0.53848489305621        2.06209207573814        0.46945646857153
C            1.80594813815764        2.45563222460673        0.23603520162494
O            2.36355880228261        3.34650261875273        1.10288015730905
C            3.67674524861020        3.69291796593046        0.92943129010044
C            4.17389056312543        4.67661652399622        1.76934284934577
C            5.49963702290504        5.06135865531222        1.68507167851045
C            6.32164256379056        4.44918091320893        0.75527175300020
C            5.82931288123991        3.46855254450808       -0.08650373765980
C            4.49224695339062        3.06871852860236       -0.02802053943862
H            2.30503213340774       -0.57713647001163        3.11804525053909
H            1.56696088775879       -0.38712344319883        1.52663709903957
H            2.08104381421860       -1.98370572169019        2.07304201792249
H            4.46057741453404       -1.22369354874265        2.05577481418904
H            3.93858281823395        0.37455166373424        1.52193155339853
H            3.02060381056754       -0.60532881317294       -0.55772325476840
H            3.43703408914815       -2.22083690324756        0.00344061891911
H            5.83410679336766       -1.66777806889134       -0.03526123989681
H            5.07567404104403       -1.52693156991969       -1.61895219127551
H            5.81292754367491        0.78443894221236        0.22790552921971
H            6.69349452145769        0.25720519870307       -1.19902738130430
H            4.25541357700657        0.66314261019850       -2.32638540558422
H            5.48833268814912        1.91080674143838       -2.25697542939679
H            2.38239817209681        0.87826227288139       -2.72681345973094
H            0.23292439614500       -0.00970087000302       -2.16971821750469
H           -0.08893561692555        1.69546605931401       -2.45001448005814
H           -1.61816502085691        0.70185564979671        1.03093011873387
H           -1.89236265692747       -0.39075493735941       -1.81088487899231
H           -4.08679209777087        1.49213584648257       -1.00172941467305
H           -8.27752242238226        0.22273627467821       -1.14845246874773
H           -9.89324681999566        2.05926138662420       -1.38295341386468
H           -9.25631263250898        4.35952536260507       -0.75302770050824
H           -6.99036925510446        4.80748669778194        0.11909264679202
H           -5.37908377847997        2.96931746684410        0.37011926353271
H           -7.18459634317798       -0.99127267953563        0.59951081767192
H           -5.59197873831242       -2.84440335147121        0.89199163370990
H           -3.50740943962570       -4.43211110850431        1.04780482335131
H           -1.28738350169686       -5.49679138419710        1.01493561269564
H            0.83985977668658       -5.25044387403553        2.16100091077694
H            3.04990866182626       -6.32631732907179        2.16582671530465
H            4.52450587848338       -6.13865501238181        0.19461400814602
H            3.76845820588936       -4.87093410914631       -1.78382531705676
H            1.55687244147976       -3.79614840525809       -1.79008904433704
H            0.44999477270097       -1.95818477978581       -0.64370195543525
H            0.04391367167112        2.40962249580524        1.36412475932800
H            3.50077714771991        5.11913827719719        2.48748444324803
H            5.88308820003347        5.82597046262496        2.34234446566380
H            7.36027607744000        4.73422248611563        0.67980287411620
H            6.50108473776619        3.01436783564817       -0.79446578681548

          :  Hamiltonian                  GFN2-xTB          :
         :: gradient norm              0.000102058774 Eh/a0 ::
         :: HOMO-LUMO gap              2.332602771742 eV    ::
         :: SCC energy              -123.312876758846 Eh    ::
         :: -> dispersion             -0.112752610591 Eh    ::
         :: -> Gsolv                  -0.045049275786 Eh    ::
         :: repulsion energy           2.155643376900 Eh    ::

    * Orbital Energies and Occupations

         #    Occupation            Energy/Eh            Energy/eV
      -------------------------------------------------------------
         1        2.0000           -0.7302187             -19.8703
       ...           ...                  ...                  ...
       101        2.0000           -0.4130941             -11.2409
       102        2.0000           -0.4119813             -11.2106
       103        2.0000           -0.4087239             -11.1219
       104        2.0000           -0.4045992             -11.0097
       105        2.0000           -0.4024992             -10.9526
       106        2.0000           -0.4023606             -10.9488
       107        2.0000           -0.4021315             -10.9426
       108        2.0000           -0.3967652             -10.7965
       109        2.0000           -0.3927238             -10.6866
       110        2.0000           -0.3912474             -10.6464
       111        2.0000           -0.3679275             -10.0118
       112        2.0000           -0.3495179              -9.5109
       113        2.0000           -0.3446358              -9.3780 (HOMO)
       114                         -0.2589142              -7.0454 (LUMO)
       115                         -0.2528050              -6.8792
       116                         -0.2317717              -6.3068
       117                         -0.2214295              -6.0254
       118                         -0.2206308              -6.0037
       119                         -0.2204645              -5.9991
       120                         -0.2196790              -5.9778
       121                         -0.2167644              -5.8985
       122                         -0.2153928              -5.8611
       123                         -0.2086037              -5.6764
       124                         -0.1772906              -4.8243
       ...                                ...                  ...
       223                          0.7364811              20.0407
      -------------------------------------------------------------
                  HL-Gap            0.0857216 Eh            2.3326 eV

     #   Z          covCN         q      C6AA      α(0)
     1   6 C        3.752    -0.098    22.424     6.753
     2   6 C        3.800    -0.048    21.429     6.591
     3   6 C        3.802    -0.060    21.656     6.625
     4   6 C        3.800    -0.059    21.629     6.622
     5   6 C        3.799    -0.064    21.734     6.638
     6   6 C        3.745    -0.007    20.767     6.501
     7   7 N        2.743    -0.070    22.599     7.060
     8   6 C        2.903     0.041    27.086     8.534
     9   6 C        2.907    -0.080    29.988     8.979
    10   6 C        3.812    -0.058    21.607     6.616
    11   6 C        2.951     0.003    27.948     8.671
    12   6 C        2.909    -0.053    29.316     8.878
    13   6 C        3.892    -0.022    20.920     6.502
    14   6 C        3.050     0.003    27.920     8.666
    15   6 C        2.919    -0.042    29.032     8.836
    16   6 C        2.978     0.005    27.906     8.665
    17   6 C        2.977     0.010    27.798     8.648
    18   6 C        2.925    -0.035    28.875     8.812
    19   6 C        2.918    -0.031    28.777     8.797
    20   6 C        2.920    -0.033    28.820     8.803
    21   6 C        2.918    -0.031    28.776     8.797
    22   6 C        2.925    -0.035    28.866     8.811
    23   6 C        2.926    -0.039    28.978     8.828
    24   6 C        2.912    -0.037    28.911     8.817
    25   6 C        3.037    -0.003    28.062     8.689
    26   6 C        3.036    -0.003    28.058     8.688
    27   6 C        2.913    -0.037    28.909     8.817
    28   6 C        2.925    -0.039    28.979     8.828
    29   6 C        2.979     0.005    27.899     8.664
    30   6 C        2.977     0.010    27.782     8.646
    31   6 C        2.925    -0.035    28.867     8.811
    32   6 C        2.918    -0.031    28.766     8.795
    33   6 C        2.920    -0.033    28.811     8.802
    34   6 C        2.918    -0.031    28.763     8.795
    35   6 C        2.925    -0.034    28.847     8.808
    36   6 C        2.919    -0.042    29.042     8.837
    37   6 C        3.052     0.004    27.896     8.662
    38   6 C        2.915    -0.077    29.936     8.972
    39   6 C        2.873     0.129    25.167     8.224
    40   8 O        1.710    -0.261    18.318     5.779
    41   6 C        2.885     0.118    25.411     8.264
    42   6 C        2.919    -0.059    29.458     8.900
    43   6 C        2.918    -0.045    29.115     8.848
    44   6 C        2.919    -0.042    29.036     8.836
    45   6 C        2.924    -0.064    29.599     8.922
    46   6 C        2.919     0.041    27.071     8.532
    47   1 H        0.925     0.028     2.613     2.528
    48   1 H        0.925     0.031     2.575     2.509
    49   1 H        0.925     0.031     2.577     2.510
    50   1 H        0.924     0.025     2.654     2.547
    51   1 H        0.924     0.021     2.718     2.578
    52   1 H        0.924     0.034     2.530     2.487
    53   1 H        0.924     0.030     2.582     2.513
    54   1 H        0.924     0.034     2.535     2.490
    55   1 H        0.924     0.034     2.534     2.490
    56   1 H        0.924     0.044     2.398     2.422
    57   1 H        0.924     0.040     2.445     2.445
    58   1 H        0.925     0.063     2.169     2.303
    59   1 H        0.924     0.045     2.385     2.415
    60   1 H        0.926     0.033     2.543     2.494
    61   1 H        0.924     0.055     2.262     2.352
    62   1 H        0.923     0.053     2.286     2.365
    63   1 H        0.925     0.024     2.666     2.554
    64   1 H        0.924     0.056     2.242     2.342
    65   1 H        0.926     0.031     2.571     2.507
    66   1 H        0.926     0.031     2.567     2.506
    67   1 H        0.926     0.030     2.587     2.515
    68   1 H        0.926     0.030     2.593     2.518
    69   1 H        0.926     0.030     2.591     2.517
    70   1 H        0.926     0.031     2.568     2.506
    71   1 H        0.926     0.030     2.580     2.512
    72   1 H        0.926     0.030     2.590     2.517
    73   1 H        0.926     0.030     2.591     2.517
    74   1 H        0.926     0.030     2.587     2.515
    75   1 H        0.926     0.029     2.599     2.521
    76   1 H        0.926     0.029     2.602     2.522
    77   1 H        0.926     0.030     2.591     2.517
    78   1 H        0.926     0.031     2.568     2.506
    79   1 H        0.926     0.033     2.544     2.494
    80   1 H        0.926     0.037     2.491     2.468
    81   1 H        0.926     0.037     2.492     2.469
    82   1 H        0.926     0.041     2.437     2.441
    83   1 H        0.926     0.035     2.516     2.481
    84   1 H        0.926     0.036     2.499     2.472
    85   1 H        0.926     0.045     2.388     2.416

molecular dipole:
                 x           y           z       tot (Debye)
 q only:        0.928      -0.443      -1.055
   full:        0.903      -0.427      -0.996       3.585

 projected vibrational frequencies (cm⁻¹)
eigval :       -0.00    -0.00     0.00     0.00     0.00     0.00
eigval :       12.19    15.73    20.99    25.30    30.43    36.84
eigval :       42.17    46.00    50.33    53.98    61.80    65.85
eigval :       75.50    77.67    88.51    93.27   112.73   120.57
eigval :      125.16   147.21   153.44   165.70   180.85   187.35
eigval :      203.51   216.60   217.36   238.53   245.49   256.06
eigval :      261.30   272.69   294.72   295.65   313.17   325.81
eigval :      335.65   346.90   354.20   365.98   372.01   373.80
eigval :      377.04   407.23   414.17   424.31   428.36   433.21
eigval :      443.54   462.70   467.11   485.83   486.48   494.91
eigval :      505.13   508.54   513.93   526.75   540.12   557.02
eigval :      571.36   584.14   585.81   591.41   600.62   613.20
eigval :      625.97   632.69   645.73   660.58   667.72   671.32
eigval :      678.46   684.28   705.83   709.04   725.19   741.34
eigval :      757.59   761.84   764.00   771.08   772.84   792.18
eigval :      801.59   808.39   821.82   831.28   836.27   841.22
eigval :      844.31   853.25   863.13   874.56   879.18   881.69
eigval :      884.57   890.22   894.03   900.98   902.29   907.19
eigval :      907.59   908.85   911.07   917.00   921.93   930.65
eigval :      933.67   934.11   935.42   935.97   937.57   970.67
eigval :      979.44   981.44   997.27  1007.85  1032.35  1048.31
eigval :     1073.37  1075.40  1079.91  1084.17  1086.02  1089.54
eigval :     1091.36  1096.16  1120.03  1121.20  1121.81  1128.20
eigval :     1133.45  1143.93  1145.15  1146.70  1158.83  1163.38
eigval :     1164.99  1178.38  1178.48  1181.28  1181.68  1184.17
eigval :     1188.94  1192.19  1200.06  1201.01  1212.30  1220.57
eigval :     1225.71  1232.12  1242.37  1250.03  1252.59  1271.22
eigval :     1275.09  1280.91  1281.70  1282.59  1289.67  1294.69
eigval :     1298.29  1307.96  1309.02  1316.37  1316.86  1318.99
eigval :     1325.32  1326.35  1328.95  1343.99  1348.44  1356.76
eigval :     1361.34  1363.48  1376.47  1387.65  1414.48  1416.35
eigval :     1421.28  1431.34  1436.98  1439.94  1443.45  1450.34
eigval :     1459.29  1471.31  1480.46  1486.86  1488.80  1490.47
eigval :     1491.47  1497.62  1501.13  1503.36  1509.51  1568.18
eigval :     1570.84  1577.26  1581.21  1585.88  1586.88  1591.81
eigval :     1595.73  1602.37  1607.03  1615.35  1660.49  1665.78
eigval :     2854.44  2934.06  2934.69  2955.25  2956.46  2965.73
eigval :     2971.63  2972.33  2976.68  2980.03  2994.37  3004.44
eigval :     3022.74  3023.54  3030.96  3047.30  3057.16  3064.80
eigval :     3065.45  3066.78  3068.11  3069.00  3070.66  3074.40
eigval :     3075.52  3075.92  3078.73  3078.92  3080.49  3082.70
eigval :     3082.86  3087.51  3087.70  3087.93  3089.01  3091.76
eigval :     3091.84  3103.01  3126.03

   temp. (K)  partition function   enthalpy   heat capacity  entropy
                                   cal/mol     cal/K/mol   cal/K/mol   J/K/mol
 298.15  VIB  0.114E+19            23111.737    144.456    144.555
         ROT  0.837E+08              888.752      2.981     39.234
         INT  0.957E+26            24000.490    147.437    183.789
         TR   0.141E+29             1481.254      4.968     45.027
         TOT                       25481.7436   152.4052   228.8166   957.3685

       T/K    H(0)-H(T)+PV         H(T)/Eh          T*S/Eh         G(T)/Eh
   ------------------------------------------------------------------------
    298.15    0.406077E-01    0.730456E+00    0.108718E+00    0.621738E+00
   ------------------------------------------------------------------------

         :::::::::::::::::::::::::::::::::::::::::::::::::::::
         ::                  THERMODYNAMIC                  ::
         :::::::::::::::::::::::::::::::::::::::::::::::::::::
         :: total free energy        -120.535495288937 Eh   ::
         ::.................................................::
         :: total energy             -121.157233383517 Eh   ::
         :: zero point energy           0.689848480966 Eh   ::
         :: G(RRHO) w/o ZPVE           -0.068110386386 Eh   ::
         :: G(RRHO) contrib.            0.621738094580 Eh   ::
         :::::::::::::::::::::::::::::::::::::::::::::::::::::

           -------------------------------------------------
          | TOTAL ENERGY             -121.157233383517 Eh   |
          | TOTAL ENTHALPY           -120.426777159404 Eh   |
          | TOTAL FREE ENERGY        -120.535495288937 Eh   |
          | GRADIENT NORM               0.000102058501 Eh/α |
          | HOMO-LUMO GAP               2.332602893433 eV   |
           -------------------------------------------------

 * finished run on 2025/09/09 at 13:00:16.454
