   * xtb version 6.7.1 (edcfbbe) compiled by 'albert@albert-system' on 2024-07-22

   ID    Z sym.   atoms
    1    6 C      1-6, 8-39, 41-46
    2    7 N      7
    3    8 O      40
    4    1 H      47-85

          program call               : xtb data2507/toluene/DPFPhe/DPFPhe.xyz --gfn 2 --gbsa toluene --ohess vtight --parallel 40 --molden --ceasefiles --namespace data2507/toluene/DPFPhe/DPFPhe_toluene_S0_preOpt
      * Solvation model:               GBSA
        Solvent                        toluene
        Solvent mass                       9.2140E+01 g/mol
          :  Hamiltonian                  GFN2-xTB          :
 * total energy  :  -121.1455961 Eh     change       -0.1923610E-08 Eh
 * total energy  :  -121.1541177 Eh     change       -0.8521600E-02 Eh
 * total energy  :  -121.1561552 Eh     change       -0.2037499E-02 Eh
 * total energy  :  -121.1566713 Eh     change       -0.5161568E-03 Eh
 * total energy  :  -121.1569356 Eh     change       -0.2642763E-03 Eh
 * total energy  :  -121.1570304 Eh     change       -0.9482977E-04 Eh
 * total energy  :  -121.1571271 Eh     change       -0.9663896E-04 Eh
 * total energy  :  -121.1572208 Eh     change       -0.9375166E-04 Eh
 * total energy  :  -121.1573211 Eh     change       -0.1002652E-03 Eh
 * total energy  :  -121.1574228 Eh     change       -0.1017419E-03 Eh
 * total energy  :  -121.1579344 Eh     change       -0.4013817E-06 Eh
 * total energy  :  -121.1579347 Eh     change       -0.3412121E-06 Eh
 * total energy  :  -121.1579350 Eh     change       -0.2744016E-06 Eh
 * total energy  :  -121.1579352 Eh     change       -0.1850213E-06 Eh
 * total energy  :  -121.1579353 Eh     change       -0.1668543E-06 Eh
 * total energy  :  -121.1579355 Eh     change       -0.1447918E-06 Eh
 * total energy  :  -121.1579356 Eh     change       -0.1405000E-06 Eh
 * total energy  :  -121.1579357 Eh     change       -0.1093508E-06 Eh
 * total energy  :  -121.1579358 Eh     change       -0.6808533E-07 Eh
   *** GEOMETRY OPTIMIZATION CONVERGED AFTER 60 ITERATIONS ***

 final structure:
================
85
 xtb: 6.7.1 (edcfbbe)
C            4.09633165554705        2.57430785233287        1.94447068206381
C            4.87663752004705        1.39860641106770        1.36616780293927
C            4.02684158137995        0.59597722323430        0.38318888865611
C            4.77872786596396       -0.54732624016157       -0.30137527039266
C            5.32242580835337       -1.63291515033961        0.63104972114539
C            4.23582249758250       -2.35249241779802        1.44300840680528
N            3.23003764087515       -2.96127663802532        0.59588044953593
C            1.95202637660871       -2.41029187888721        0.49139183738852
C            1.36575758979375       -1.66090055238672        1.43981740823773
C            0.02600880823207       -1.01387577135749        1.29203951025371
C           -0.55229731079215       -1.07520882482836       -0.09763860824235
C           -1.60626022336473       -0.34023871347663       -0.48389860383387
C           -2.32119243177262        0.68273347256812        0.34764635471681
C           -3.81578012042037        0.66225096433523        0.14688229392664
C           -4.69398532431745       -0.37456341222148        0.36376818480015
C           -6.05369923475049       -0.18618948018103        0.10182772334975
C           -7.01053522921660       -1.28140279314189        0.32312751223782
C           -6.91798899735848       -2.08883816324479        1.45529373340181
C           -7.81976313802472       -3.11579036932489        1.66524159425132
C           -8.82677683760173       -3.35824494311774        0.74549620343854
C           -8.92696295172255       -2.56448667988701       -0.38533496800358
C           -8.02904288165400       -1.53386201130655       -0.59403793781551
C           -6.49559810711463        1.05115290078415       -0.36965823270688
C           -5.61734242146175        2.09748042354361       -0.58693884624230
C           -4.26891363910096        1.90211346075120       -0.33147640869903
C           -3.12586612145048        2.78501989655501       -0.47903701621311
C           -3.02855864437454        4.09549551145878       -0.92147064959506
C           -1.78031009753390        4.68899762014037       -0.98181132545939
C           -0.62555981082269        3.99464953510450       -0.61814590455931
C            0.69465628871078        4.63555190655389       -0.71823388741391
C            0.88453010297092        5.95382334214843       -0.30892481029478
C            2.12870076789725        6.54981356009983       -0.40588545806992
C            3.20266646074001        5.84205464890267       -0.92015502554897
C            3.02499052878230        4.53163294941828       -1.33304583109813
C            1.78330440501317        3.93180723341490       -1.23018207381746
C           -0.73096210517192        2.67651858990772       -0.16731541639568
C           -1.97151025690251        2.08695962509502       -0.09203537325144
C            0.05642666103865       -2.00649119493755       -1.00907329754692
C            1.20573900040416       -2.65778982216912       -0.73905359429830
O            1.66152572565324       -3.54503497450734       -1.66967960387712
C            2.79126511721756       -4.26641799510811       -1.38594402850989
C            3.11829460913780       -5.28468157299293       -2.26705385045863
C            4.25677278128670       -6.04332580772620       -2.06314055947438
C            5.05891114651692       -5.77830451864635       -0.96687484971214
C            4.73536968937692       -4.76350611908302       -0.08497021440234
C            3.59602916129595       -3.97904368073765       -0.27270654322228
H            4.71514999647332        3.14324726743850        2.63524117402233
H            3.76342288788583        3.24188558240463        1.15216129504606
H            3.21805980150276        2.22224555119712        2.48245311003687
H            5.20771738554259        0.75677514710584        2.18463270769857
H            5.76688423190263        1.77101934174152        0.85343432207454
H            3.66644534118950        1.27340176907048       -0.39521708976966
H            3.14734116815706        0.20425584355069        0.89658303398875
H            4.10875292067897       -1.01100725338266       -1.03069253403310
H            5.62146675849811       -0.13037544423221       -0.85879876948725
H            5.86014722740044       -2.36072087216014        0.02018479050959
H            6.03532514811827       -1.19845845358898        1.33266105660420
H            3.75036903902119       -1.63254716683147        2.09499275303684
H            4.69281437956921       -3.11510250863226        2.08093135157183
H            1.83752712684671       -1.48944259056212        2.39497727880634
H            0.11077601727327        0.02718990789040        1.61902825291160
H           -0.67263741770637       -1.49919042544341        1.98890248922595
H           -1.97710720050220       -0.43979306385068       -1.49515168466555
H           -2.08362303138590        0.54323665482317        1.40617501871004
H           -4.33587800666861       -1.33399821762509        0.70890038051784
H           -6.14482598446060       -1.89550312837928        2.18496707928670
H           -7.73848483939251       -3.72903595576839        2.55156276094013
H           -9.52998491967221       -4.16203185983481        0.90885099366809
H           -9.70776774822988       -2.75111325481710       -1.10899529853093
H           -8.10292032841035       -0.92946779223851       -1.48686403654923
H           -7.55098535522258        1.19710355375421       -0.55025762394311
H           -5.97992023218591        3.04858756309419       -0.94883937486941
H           -3.90920980318166        4.64455520942618       -1.22142652467872
H           -1.69067319730212        5.70303587780200       -1.34453255074344
H            0.05417609173928        6.50702146858214        0.10610976560841
H            2.26184735345631        7.57127582684216       -0.07886469509561
H            4.17374074292252        6.30907856111847       -0.99842097864809
H            3.85821716516324        3.97610876883306       -1.74003703197627
H            1.64615335697262        2.91413549165997       -1.56733705160512
H            0.15590567414411        2.13495683245958        0.12644537132549
H           -0.42332360742193       -2.18105790741678       -1.96080347093205
H            2.46768113151086       -5.45707072812586       -3.11065105587934
H            4.51062131207546       -6.83217935975785       -2.75380544870677
H            5.94809182523597       -6.36526591310096       -0.79179654648359
H            5.37781368296583       -4.59020572486679        0.76210066299611

          :  Hamiltonian                  GFN2-xTB          :
         :: gradient norm              0.000033114444 Eh/a0 ::
         :: HOMO-LUMO gap              2.309158913848 eV    ::
         :: SCC energy              -123.313603222998 Eh    ::
         :: -> dispersion             -0.108102883415 Eh    ::
         :: -> Gsolv                  -0.047370983721 Eh    ::
         :: repulsion energy           2.155667419375 Eh    ::

    * Orbital Energies and Occupations

         #    Occupation            Energy/Eh            Energy/eV
      -------------------------------------------------------------
         1        2.0000           -0.7300662             -19.8661
       ...           ...                  ...                  ...
       101        2.0000           -0.4141357             -11.2692
       102        2.0000           -0.4127935             -11.2327
       103        2.0000           -0.4095228             -11.1437
       104        2.0000           -0.4048034             -11.0153
       105        2.0000           -0.4028462             -10.9620
       106        2.0000           -0.4025254             -10.9533
       107        2.0000           -0.4021140             -10.9421
       108        2.0000           -0.3973288             -10.8119
       109        2.0000           -0.3928421             -10.6898
       110        2.0000           -0.3912592             -10.6467
       111        2.0000           -0.3680134             -10.0142
       112        2.0000           -0.3489555              -9.4956
       113        2.0000           -0.3439779              -9.3601 (HOMO)
       114                         -0.2591179              -7.0510 (LUMO)
       115                         -0.2538398              -6.9073
       116                         -0.2320238              -6.3137
       117                         -0.2213891              -6.0243
       118                         -0.2206861              -6.0052
       119                         -0.2204506              -5.9988
       120                         -0.2199589              -5.9854
       121                         -0.2170950              -5.9075
       122                         -0.2157945              -5.8721
       123                         -0.2084567              -5.6724
       124                         -0.1775500              -4.8314
       ...                                ...                  ...
       223                          0.7363351              20.0367
      -------------------------------------------------------------
                  HL-Gap            0.0848600 Eh            2.3092 eV

     #   Z          covCN         q      C6AA      α(0)
     1   6 C        3.752    -0.101    22.480     6.761
     2   6 C        3.800    -0.053    21.523     6.605
     3   6 C        3.802    -0.059    21.632     6.622
     4   6 C        3.800    -0.053    21.531     6.607
     5   6 C        3.800    -0.065    21.748     6.640
     6   6 C        3.746    -0.006    20.746     6.497
     7   7 N        2.743    -0.073    22.656     7.069
     8   6 C        2.903     0.040    27.114     8.538
     9   6 C        2.907    -0.078    29.945     8.973
    10   6 C        3.812    -0.058    21.606     6.616
    11   6 C        2.950     0.004    27.942     8.670
    12   6 C        2.909    -0.054    29.346     8.883
    13   6 C        3.892    -0.023    20.938     6.505
    14   6 C        3.050     0.003    27.913     8.665
    15   6 C        2.919    -0.041    29.030     8.835
    16   6 C        2.978     0.005    27.904     8.665
    17   6 C        2.976     0.010    27.798     8.648
    18   6 C        2.925    -0.035    28.869     8.811
    19   6 C        2.918    -0.031    28.777     8.797
    20   6 C        2.920    -0.033    28.820     8.803
    21   6 C        2.918    -0.031    28.776     8.797
    22   6 C        2.925    -0.035    28.872     8.812
    23   6 C        2.926    -0.039    28.978     8.828
    24   6 C        2.912    -0.037    28.910     8.817
    25   6 C        3.037    -0.003    28.061     8.689
    26   6 C        3.036    -0.003    28.058     8.688
    27   6 C        2.912    -0.037    28.909     8.817
    28   6 C        2.925    -0.039    28.979     8.828
    29   6 C        2.978     0.005    27.903     8.665
    30   6 C        2.977     0.010    27.789     8.647
    31   6 C        2.924    -0.035    28.866     8.811
    32   6 C        2.918    -0.031    28.772     8.796
    33   6 C        2.919    -0.033    28.819     8.803
    34   6 C        2.918    -0.030    28.760     8.794
    35   6 C        2.925    -0.034    28.844     8.807
    36   6 C        2.919    -0.042    29.040     8.837
    37   6 C        3.052     0.004    27.893     8.662
    38   6 C        2.914    -0.077    29.919     8.969
    39   6 C        2.871     0.127    25.213     8.231
    40   8 O        1.710    -0.263    18.359     5.785
    41   6 C        2.885     0.118    25.409     8.264
    42   6 C        2.918    -0.058    29.450     8.899
    43   6 C        2.919    -0.045    29.107     8.847
    44   6 C        2.919    -0.042    29.035     8.836
    45   6 C        2.924    -0.062    29.550     8.915
    46   6 C        2.919     0.043    27.034     8.526
    47   1 H        0.925     0.032     2.562     2.503
    48   1 H        0.925     0.032     2.559     2.502
    49   1 H        0.925     0.031     2.570     2.507
    50   1 H        0.924     0.032     2.564     2.504
    51   1 H        0.924     0.029     2.606     2.525
    52   1 H        0.924     0.029     2.602     2.523
    53   1 H        0.924     0.034     2.530     2.488
    54   1 H        0.924     0.024     2.676     2.558
    55   1 H        0.924     0.032     2.564     2.504
    56   1 H        0.924     0.039     2.463     2.454
    57   1 H        0.924     0.046     2.373     2.409
    58   1 H        0.925     0.062     2.173     2.305
    59   1 H        0.924     0.044     2.392     2.419
    60   1 H        0.926     0.033     2.539     2.492
    61   1 H        0.924     0.056     2.244     2.343
    62   1 H        0.923     0.055     2.264     2.353
    63   1 H        0.925     0.024     2.676     2.558
    64   1 H        0.924     0.057     2.233     2.337
    65   1 H        0.926     0.031     2.574     2.509
    66   1 H        0.926     0.032     2.562     2.503
    67   1 H        0.926     0.030     2.585     2.514
    68   1 H        0.926     0.030     2.592     2.518
    69   1 H        0.926     0.030     2.589     2.516
    70   1 H        0.926     0.031     2.573     2.508
    71   1 H        0.926     0.031     2.578     2.511
    72   1 H        0.926     0.030     2.587     2.515
    73   1 H        0.926     0.030     2.586     2.515
    74   1 H        0.926     0.031     2.579     2.511
    75   1 H        0.926     0.031     2.570     2.507
    76   1 H        0.926     0.030     2.587     2.515
    77   1 H        0.926     0.030     2.589     2.516
    78   1 H        0.926     0.030     2.589     2.516
    79   1 H        0.926     0.031     2.573     2.508
    80   1 H        0.926     0.033     2.544     2.494
    81   1 H        0.926     0.037     2.493     2.469
    82   1 H        0.926     0.041     2.435     2.440
    83   1 H        0.926     0.035     2.511     2.478
    84   1 H        0.926     0.036     2.498     2.472
    85   1 H        0.926     0.043     2.412     2.429

molecular dipole:
                 x           y           z       tot (Debye)
 q only:        0.961       0.199       1.097
   full:        0.945       0.200       1.044       3.615

 projected vibrational frequencies (cm⁻¹)
eigval :       -0.00    -0.00    -0.00     0.00     0.00     0.00
eigval :       -5.13    12.46    20.08    21.49    26.74    32.79
eigval :       37.65    41.81    50.13    52.13    59.38    61.83
eigval :       66.64    69.67    73.79    84.99   106.45   111.64
eigval :      123.89   142.54   149.59   157.77   178.76   187.04
eigval :      198.51   205.90   226.65   234.07   241.36   256.19
eigval :      260.77   272.42   293.94   296.80   322.91   334.21
eigval :      340.75   344.88   356.00   363.82   371.79   373.26
eigval :      375.01   401.20   413.25   424.21   431.44   432.40
eigval :      446.91   466.33   474.70   485.09   487.83   491.15
eigval :      499.04   505.65   516.14   540.84   547.01   558.07
eigval :      570.42   584.35   585.85   589.24   600.43   613.41
eigval :      626.92   631.15   647.12   662.29   668.15   671.19
eigval :      678.58   684.07   705.72   709.49   726.01   743.38
eigval :      756.33   758.29   761.51   773.13   780.61   790.49
eigval :      793.54   805.70   821.22   829.19   832.96   842.17
eigval :      847.20   854.76   861.90   873.70   874.99   880.45
eigval :      882.53   890.98   891.57   898.80   902.54   904.20
eigval :      906.49   909.56   911.72   914.53   917.39   922.08
eigval :      930.09   930.31   931.85   932.44   934.83   978.39
eigval :      979.64   981.30   997.07  1000.40  1041.52  1045.25
eigval :     1073.56  1074.57  1077.95  1083.13  1085.11  1087.73
eigval :     1091.33  1095.83  1112.79  1118.94  1120.03  1127.31
eigval :     1135.73  1141.59  1147.06  1148.36  1161.98  1163.56
eigval :     1167.14  1177.42  1179.09  1179.92  1181.25  1182.15
eigval :     1187.39  1189.70  1197.37  1199.00  1200.00  1220.44
eigval :     1226.79  1231.16  1242.71  1248.62  1250.32  1272.00
eigval :     1274.90  1278.62  1279.80  1281.02  1286.20  1294.33
eigval :     1296.15  1307.77  1308.59  1316.57  1317.01  1321.06
eigval :     1325.26  1326.09  1330.09  1344.63  1347.00  1356.85
eigval :     1362.82  1363.17  1373.78  1389.65  1414.56  1415.07
eigval :     1420.34  1430.91  1436.91  1439.88  1443.01  1449.71
eigval :     1458.91  1469.00  1477.93  1486.47  1488.73  1491.14
eigval :     1491.56  1496.82  1501.63  1506.02  1508.17  1567.85
eigval :     1571.29  1577.05  1581.05  1585.76  1586.24  1591.73
eigval :     1595.59  1602.58  1606.97  1611.28  1653.06  1667.30
eigval :     2866.31  2936.18  2937.85  2940.18  2953.36  2958.76
eigval :     2966.43  2973.80  2981.42  2983.97  2993.91  2999.99
eigval :     3021.44  3025.32  3032.00  3056.04  3059.14  3064.52
eigval :     3065.06  3066.27  3066.32  3068.65  3070.51  3074.52
eigval :     3074.95  3075.58  3077.52  3078.31  3080.41  3081.69
eigval :     3082.31  3084.67  3085.98  3086.38  3087.28  3088.02
eigval :     3090.39  3101.31  3116.80

   temp. (K)  partition function   enthalpy   heat capacity  entropy
                                   cal/mol     cal/K/mol   cal/K/mol   J/K/mol
 298.15  VIB  0.130E+20            23256.126    143.832    147.184
         ROT  0.934E+08              888.752      2.981     39.452
         INT  0.121E+28            24144.878    146.813    186.636
         TR   0.141E+29             1481.254      4.968     45.027
         TOT                       25626.1323   151.7814   231.6634   969.2798

       T/K    H(0)-H(T)+PV         H(T)/Eh          T*S/Eh         G(T)/Eh
   ------------------------------------------------------------------------
    298.15    0.408378E-01    0.730154E+00    0.110071E+00    0.620083E+00
   ------------------------------------------------------------------------

         :::::::::::::::::::::::::::::::::::::::::::::::::::::
         ::                  THERMODYNAMIC                  ::
         :::::::::::::::::::::::::::::::::::::::::::::::::::::
         :: total free energy        -120.537852850458 Eh   ::
         ::.................................................::
         :: total energy             -121.157935799961 Eh   ::
         :: zero point energy           0.689315882571 Eh   ::
         :: G(RRHO) w/o ZPVE           -0.069232933067 Eh   ::
         :: G(RRHO) contrib.            0.620082949504 Eh   ::
         :::::::::::::::::::::::::::::::::::::::::::::::::::::

           -------------------------------------------------
          | TOTAL ENERGY             -121.157935799961 Eh   |
          | TOTAL ENTHALPY           -120.427782076101 Eh   |
          | TOTAL FREE ENERGY        -120.537852850458 Eh   |
          | GRADIENT NORM               0.000032936730 Eh/α |
          | HOMO-LUMO GAP               2.309157880098 eV   |
           -------------------------------------------------

 * finished run on 2025/09/09 at 12:32:55.633
