   * xtb version 6.7.1 (edcfbbe) compiled by 'albert@albert-system' on 2024-07-22

   ID    Z sym.   atoms
    1    6 C      1-6, 8-39, 41-46
    2    7 N      7
    3    8 O      40
    4    1 H      47-85

          program call               : xtb data2507/toluene/DPFPhe/DPFPhe_toluene_T1_crest.xyz --gfn 2 --uhf 2 --gbsa toluene --ohess vtight --parallel 40 --molden --ceasefiles --namespace data2507/toluene/DPFPhe/DPFPhe_toluene_T1_finalOpt
      * Solvation model:               GBSA
        Solvent                        toluene
        Solvent mass                       9.2140E+01 g/mol
          :  Hamiltonian                  GFN2-xTB          :
 * total energy  :  -121.0798912 Eh     change       -0.3015799E-08 Eh
 * total energy  :  -121.0799726 Eh     change       -0.8132086E-04 Eh
 * total energy  :  -121.0800257 Eh     change       -0.5317893E-04 Eh
 * total energy  :  -121.0800552 Eh     change       -0.2948657E-04 Eh
 * total energy  :  -121.0800799 Eh     change       -0.2463697E-04 Eh
 * total energy  :  -121.0801166 Eh     change       -0.3677623E-04 Eh
 * total energy  :  -121.0800963 Eh     change        0.2034114E-04 Eh
 * total energy  :  -121.0801248 Eh     change       -0.2852331E-04 Eh
 * total energy  :  -121.0801406 Eh     change       -0.1582527E-04 Eh
 * total energy  :  -121.0801500 Eh     change       -0.9320573E-05 Eh
 * total energy  :  -121.0802414 Eh     change       -0.5401916E-06 Eh
 * total energy  :  -121.0802420 Eh     change       -0.5636780E-06 Eh
 * total energy  :  -121.0802426 Eh     change       -0.6382026E-06 Eh
 * total energy  :  -121.0802433 Eh     change       -0.7019316E-06 Eh
 * total energy  :  -121.0802440 Eh     change       -0.7177240E-06 Eh
 * total energy  :  -121.0802448 Eh     change       -0.7224812E-06 Eh
 * total energy  :  -121.0802455 Eh     change       -0.7339076E-06 Eh
 * total energy  :  -121.0802463 Eh     change       -0.7636754E-06 Eh
 * total energy  :  -121.0802463 Eh     change       -0.6998306E-08 Eh
   *** GEOMETRY OPTIMIZATION CONVERGED AFTER 44 ITERATIONS ***

 final structure:
================
85
 xtb: 6.7.1 (edcfbbe)
C            2.96262596237538       -1.78228855211603        1.03548755353563
C            3.83354283020178       -2.30340151243784       -0.10284697056244
C            4.31489362242240       -1.19839082932852       -1.04436766324674
C            5.24361105500687       -0.19633307477799       -0.36086447212111
C            5.86345857796591        0.82124413372146       -1.32065752971777
C            4.82967978545150        1.73433709271441       -1.99860135855919
N            3.97927032374277        2.41447659853736       -1.04341889197804
C            2.69458102206364        1.93735951284396       -0.76777069110019
C            1.90955681517536        1.31601788325527       -1.73916889108122
C            0.54907614085763        0.78552588808025       -1.47912190496595
C            0.10153507850267        0.87461879320814       -0.04830915871943
C           -1.09706419170426        0.27850678593151        0.34665614775245
C           -2.00415727064720       -0.52819513873719       -0.51140338033365
C           -3.46122770471348       -0.25624174330194       -0.21728517744912
C           -4.14941340710756        0.92747212985126       -0.34760594740080
C           -5.50667068134425        0.97022964841590       -0.01493748722125
C           -6.26211083593609        2.22491846790418       -0.14664345918727
C           -7.55864222968949        2.22702196654784       -0.65854768313920
C           -8.26624160391002        3.40837206489490       -0.78276286607968
C           -7.69360944635673        4.60845230393172       -0.39404675447109
C           -6.40639167310745        4.61884997164321        0.11791616747019
C           -5.69528185923139        3.43911584823662        0.23772244936318
C           -6.13518244629747       -0.18808792288493        0.44580452832943
C           -5.44507121560973       -1.37858816121785        0.58606350389925
C           -4.09902200894886       -1.41451120802512        0.25468795706403
C           -3.12805876409080       -2.49105395701114        0.29826679525447
C           -3.24329533551237       -3.81590428573067        0.69204987199769
C           -2.12760642917359       -4.63077251985867        0.63118705309090
C           -0.89671522604624       -4.14893780832347        0.18074649675968
C            0.27391612941311       -5.03624675877027        0.11711274329835
C            1.13171715914899       -5.00128210444071       -0.98079225494269
C            2.23200132730724       -5.83630326523122       -1.04355879084304
C            2.49976701559746       -6.71536178962823       -0.00712850766423
C            1.65569441898446       -6.75747040361961        1.09051053707444
C            0.55033704242724       -5.92892452627922        1.15105083955562
C           -0.78568934187813       -2.81317583550946       -0.21349916976426
C           -1.89370995773275       -2.00035264978853       -0.15716136281606
C            0.88433497659839        1.56585032487192        0.85288251236734
C            2.14849052356959        2.12362128455084        0.50007457116285
O            2.79210391185892        2.82106139156177        1.49248139575756
C            3.95352537258040        3.45990760308450        1.14637645100288
C            4.51390567494620        4.30107456714069        2.09280334157239
C            5.69532026288242        4.97600017453092        1.81686868650167
C            6.29927887482518        4.80951032592284        0.58843778468485
C            5.73929378916537        3.96504738169780       -0.36308221169252
C            4.56534948183198        3.26760105134415       -0.10392544733009
H            3.54443776413135       -1.18755191229717        1.73562881315142
H            2.15690131326949       -1.16008774091662        0.65061928682755
H            2.52322828522660       -2.61305961794793        1.58376588147122
H            3.25514004474072       -3.02739775663403       -0.68169389857111
H            4.69486224369489       -2.83208631927256        0.31325720786012
H            3.43975795182100       -0.67688260086710       -1.43757605195498
H            4.84450402186467       -1.65689503592586       -1.88378107851490
H            4.69526103435653        0.33592617693988        0.41819063094518
H            6.05435616804075       -0.74217435215848        0.12855991326449
H            6.57203215127148        1.43538421396839       -0.76076690613572
H            6.41571089176000        0.29943643221493       -2.10480460888335
H            4.20264263126696        1.13470304045206       -2.65246891960544
H            5.34309500318646        2.47299549264355       -2.62084071415629
H            2.24475373738748        1.25872435486872       -2.76142104665136
H            0.49668385067894       -0.26211195051263       -1.81385078342634
H           -0.17567454938241        1.32326366240746       -2.11347723806398
H           -1.37849950227670        0.34539920970479        1.38778710982991
H           -1.78859993008012       -0.37238642564476       -1.57162693509849
H           -3.65466246877333        1.81288963607917       -0.72016215094871
H           -8.00577249680668        1.29697452610344       -0.97921112831478
H           -9.26848752327440        3.39376199949507       -1.18716931213150
H           -8.24776456413876        5.53095732202821       -0.48925347472439
H           -5.95531868959532        5.55123800452401        0.42682704334942
H           -4.69777299858425        3.45316416034340        0.65334444257049
H           -7.17925395888881       -0.14416434745022        0.72094143855361
H           -5.94799350454427       -2.26161733987104        0.95229716987616
H           -4.18774487652498       -4.20781403773377        1.04029285874929
H           -2.21055099770267       -5.66854815019080        0.92076097040800
H            0.91937143760886       -4.32860509241895       -1.79951493197100
H            2.88399061381519       -5.80267389526919       -1.90505770875032
H            3.36163715615370       -7.36499097498462       -0.05467962275103
H            1.86075347165819       -7.43910554914239        1.90389244361070
H           -0.09476645852050       -5.95563365522316        2.01771597152315
H            0.17047148362378       -2.42592128821529       -0.53303770324586
H            0.57795016932955        1.66786439104975        1.88228977997914
H            4.01572214577079        4.40387649139262        3.04453954469322
H            6.12974739068829        5.62269740388607        2.56333566038688
H            7.21539807516270        5.33099538350269        0.35568730395723
H            6.23222367341419        3.85893658656286       -1.31524581258531

          :  Hamiltonian                  GFN2-xTB          :
         :: gradient norm              0.000063109049 Eh/a0 ::
         :: HOMO-LUMO gap              0.224671028330 eV    ::
         :: SCC energy              -123.214460874014 Eh    ::
         :: -> dispersion             -0.110811243458 Eh    ::
         :: -> Gsolv                  -0.046441268044 Eh    ::
         :: repulsion energy           2.134214601070 Eh    ::

    * Orbital Energies and Occupations

         #    Occupation            Energy/Eh            Energy/eV
      -------------------------------------------------------------
         1        2.0000           -0.7251367             -19.7320
       ...           ...                  ...                  ...
       102        2.0000           -0.4136922             -11.2571
       103        2.0000           -0.4095907             -11.1455
       104        2.0000           -0.4050701             -11.0225
       105        2.0000           -0.4030306             -10.9670
       106        2.0000           -0.4025159             -10.9530
       107        2.0000           -0.4022861             -10.9468
       108        2.0000           -0.3961820             -10.7807
       109        2.0000           -0.3945846             -10.7372
       110        2.0000           -0.3913585             -10.6494
       111        2.0000           -0.3684157             -10.0251
       112        1.9969           -0.3456143              -9.4046
       113        1.0031           -0.3346312              -9.1058
       114        0.9872           -0.2681956              -7.2980 (HOMO)
       115        0.0128           -0.2599390              -7.0733 (LUMO)
       116                         -0.2322663              -6.3203
       117                         -0.2214926              -6.0271
       118                         -0.2210095              -6.0140
       119                         -0.2207126              -6.0059
       120                         -0.2206496              -6.0042
       121                         -0.2180176              -5.9326
       122                         -0.2168313              -5.9003
       123                         -0.2086137              -5.6767
       124                         -0.1809087              -4.9228
       125                         -0.1736892              -4.7263
       ...                                ...                  ...
       223                          0.7354794              20.0134
      -------------------------------------------------------------
                  HL-Gap            0.0082566 Eh            0.2247 eV

     #   Z          covCN         q      C6AA      α(0)
     1   6 C        3.751    -0.096    22.402     6.750
     2   6 C        3.800    -0.052    21.500     6.602
     3   6 C        3.801    -0.060    21.663     6.627
     4   6 C        3.801    -0.053    21.528     6.606
     5   6 C        3.800    -0.065    21.741     6.639
     6   6 C        3.746    -0.005    20.728     6.494
     7   7 N        2.743    -0.080    22.789     7.090
     8   6 C        2.905     0.043    27.031     8.525
     9   6 C        2.908    -0.082    30.062     8.991
    10   6 C        3.811    -0.053    21.521     6.603
    11   6 C        2.949     0.005    27.911     8.665
    12   6 C        2.911    -0.053    29.309     8.877
    13   6 C        3.889    -0.020    20.871     6.495
    14   6 C        3.051     0.003    27.908     8.664
    15   6 C        2.919    -0.042    29.031     8.836
    16   6 C        2.978     0.005    27.900     8.664
    17   6 C        2.976     0.009    27.803     8.649
    18   6 C        2.925    -0.035    28.878     8.813
    19   6 C        2.918    -0.031    28.777     8.797
    20   6 C        2.920    -0.033    28.822     8.804
    21   6 C        2.918    -0.031    28.776     8.797
    22   6 C        2.925    -0.035    28.868     8.811
    23   6 C        2.925    -0.039    28.964     8.826
    24   6 C        2.912    -0.037    28.913     8.817
    25   6 C        3.035    -0.002    28.043     8.686
    26   6 C        3.035    -0.002    28.054     8.688
    27   6 C        2.912    -0.036    28.901     8.815
    28   6 C        2.925    -0.039    28.982     8.828
    29   6 C        2.978     0.005    27.894     8.663
    30   6 C        2.977     0.010    27.787     8.647
    31   6 C        2.925    -0.034    28.851     8.808
    32   6 C        2.918    -0.031    28.763     8.795
    33   6 C        2.920    -0.033    28.816     8.803
    34   6 C        2.918    -0.031    28.771     8.796
    35   6 C        2.925    -0.035    28.872     8.812
    36   6 C        2.919    -0.041    29.031     8.836
    37   6 C        3.052     0.004    27.875     8.659
    38   6 C        2.913    -0.076    29.890     8.965
    39   6 C        2.880     0.104    25.707     8.312
    40   8 O        1.708    -0.267    18.432     5.797
    41   6 C        2.888     0.120    25.355     8.255
    42   6 C        2.918    -0.062    29.536     8.912
    43   6 C        2.918    -0.042    29.054     8.839
    44   6 C        2.918    -0.043    29.075     8.842
    45   6 C        2.924    -0.062    29.537     8.913
    46   6 C        2.921     0.044    27.014     8.523
    47   1 H        0.925     0.028     2.618     2.530
    48   1 H        0.925     0.033     2.539     2.492
    49   1 H        0.925     0.028     2.613     2.528
    50   1 H        0.924     0.030     2.588     2.516
    51   1 H        0.924     0.026     2.642     2.542
    52   1 H        0.924     0.037     2.488     2.467
    53   1 H        0.924     0.031     2.574     2.509
    54   1 H        0.924     0.028     2.621     2.532
    55   1 H        0.924     0.030     2.581     2.512
    56   1 H        0.924     0.038     2.481     2.463
    57   1 H        0.924     0.043     2.408     2.427
    58   1 H        0.925     0.061     2.182     2.310
    59   1 H        0.924     0.046     2.374     2.410
    60   1 H        0.926     0.034     2.525     2.485
    61   1 H        0.923     0.065     2.141     2.288
    62   1 H        0.923     0.063     2.168     2.303
    63   1 H        0.926     0.025     2.663     2.552
    64   1 H        0.924     0.060     2.204     2.322
    65   1 H        0.926     0.032     2.565     2.504
    66   1 H        0.926     0.032     2.564     2.504
    67   1 H        0.926     0.030     2.587     2.515
    68   1 H        0.926     0.029     2.594     2.519
    69   1 H        0.926     0.030     2.593     2.518
    70   1 H        0.926     0.031     2.569     2.506
    71   1 H        0.926     0.031     2.566     2.505
    72   1 H        0.926     0.031     2.576     2.510
    73   1 H        0.926     0.031     2.574     2.509
    74   1 H        0.926     0.031     2.573     2.508
    75   1 H        0.926     0.032     2.559     2.501
    76   1 H        0.926     0.030     2.579     2.512
    77   1 H        0.926     0.029     2.595     2.519
    78   1 H        0.926     0.029     2.601     2.522
    79   1 H        0.926     0.030     2.589     2.516
    80   1 H        0.926     0.036     2.504     2.475
    81   1 H        0.926     0.032     2.556     2.500
    82   1 H        0.926     0.040     2.451     2.448
    83   1 H        0.926     0.036     2.509     2.477
    84   1 H        0.926     0.036     2.501     2.473
    85   1 H        0.926     0.042     2.424     2.435

molecular dipole:
                 x           y           z       tot (Debye)
 q only:        0.570      -0.382      -1.357
   full:        0.586      -0.399      -1.251       3.655

 projected vibrational frequencies (cm⁻¹)
eigval :       -0.00    -0.00     0.00     0.00     0.00     0.00
eigval :        3.81    12.33    19.28    26.48    30.40    37.13
eigval :       43.66    50.15    52.55    59.07    61.74    65.19
eigval :       71.48    80.98    89.08   100.88   116.43   119.30
eigval :      130.40   136.48   144.25   148.95   161.68   182.83
eigval :      188.91   199.74   223.98   226.59   242.30   246.55
eigval :      260.30   274.37   286.30   289.92   305.17   332.52
eigval :      334.88   340.13   351.98   358.70   372.68   376.01
eigval :      378.46   397.19   412.93   422.50   427.48   431.18
eigval :      435.53   447.32   462.14   483.85   484.97   486.32
eigval :      490.48   505.28   513.93   533.21   538.43   551.44
eigval :      557.05   560.46   583.33   585.19   588.71   597.55
eigval :      607.45   611.40   620.38   642.52   664.81   668.08
eigval :      671.56   679.58   686.31   688.61   706.25   708.56
eigval :      729.88   749.25   759.10   762.59   762.84   764.20
eigval :      771.00   791.94   808.60   820.06   825.44   832.18
eigval :      832.71   851.22   857.54   875.99   879.21   882.48
eigval :      885.26   887.13   892.77   894.61   899.59   905.45
eigval :      906.06   906.76   909.15   912.94   914.92   917.09
eigval :      926.32   933.13   934.64   935.19   935.54   978.30
eigval :      979.12   979.82   993.70   994.81  1030.03  1046.67
eigval :     1071.96  1073.67  1074.64  1084.19  1086.32  1088.64
eigval :     1091.34  1099.17  1116.38  1121.24  1121.68  1121.87
eigval :     1126.18  1129.90  1133.31  1138.16  1144.64  1152.03
eigval :     1161.93  1167.16  1169.57  1172.95  1181.38  1181.73
eigval :     1181.90  1183.43  1192.74  1200.32  1201.92  1202.82
eigval :     1218.82  1220.59  1240.03  1240.74  1251.24  1255.32
eigval :     1269.99  1273.37  1275.88  1281.51  1282.43  1285.44
eigval :     1290.12  1293.82  1302.71  1310.56  1314.52  1316.74
eigval :     1317.38  1323.79  1327.52  1334.65  1345.13  1348.84
eigval :     1352.10  1359.37  1367.67  1376.53  1409.84  1416.89
eigval :     1417.70  1419.53  1429.68  1430.18  1438.25  1441.08
eigval :     1451.55  1460.33  1467.84  1469.77  1476.43  1482.96
eigval :     1485.92  1488.96  1490.43  1495.16  1496.11  1507.94
eigval :     1514.82  1522.91  1558.28  1560.70  1571.28  1575.11
eigval :     1579.62  1583.01  1584.47  1591.74  1600.24  1603.49
eigval :     2793.02  2854.81  2945.52  2945.71  2955.35  2959.39
eigval :     2963.91  2973.12  2975.68  2977.99  2986.49  2992.48
eigval :     3026.77  3027.35  3038.62  3048.34  3064.58  3065.37
eigval :     3066.05  3066.68  3071.11  3071.54  3072.20  3074.73
eigval :     3074.95  3076.83  3077.40  3078.75  3081.97  3082.03
eigval :     3083.01  3084.69  3087.47  3087.58  3090.86  3096.08
eigval :     3100.52  3101.86  3113.99

   temp. (K)  partition function   enthalpy   heat capacity  entropy
                                   cal/mol     cal/K/mol   cal/K/mol   J/K/mol
 298.15  VIB  0.597E+19            23412.444    146.353    147.825
         ROT  0.911E+08              888.752      2.981     39.402
         INT  0.544E+27            24301.196    149.334    187.227
         TR   0.141E+29             1481.254      4.968     45.027
         TOT                       25782.4499   154.3024   232.2544   971.7523

       T/K    H(0)-H(T)+PV         H(T)/Eh          T*S/Eh         G(T)/Eh
   ------------------------------------------------------------------------
    298.15    0.410869E-01    0.726697E+00    0.110352E+00    0.616346E+00
   ------------------------------------------------------------------------

         :::::::::::::::::::::::::::::::::::::::::::::::::::::
         ::                  THERMODYNAMIC                  ::
         :::::::::::::::::::::::::::::::::::::::::::::::::::::
         :: total free energy        -120.463900432992 Eh   ::
         ::.................................................::
         :: total energy             -121.080246271769 Eh   ::
         :: zero point energy           0.685610434665 Eh   ::
         :: G(RRHO) w/o ZPVE           -0.069264595888 Eh   ::
         :: G(RRHO) contrib.            0.616345838777 Eh   ::
         :::::::::::::::::::::::::::::::::::::::::::::::::::::

           -------------------------------------------------
          | TOTAL ENERGY             -121.080246271769 Eh   |
          | TOTAL ENTHALPY           -120.353548887885 Eh   |
          | TOTAL FREE ENERGY        -120.463900432992 Eh   |
          | GRADIENT NORM               0.000063263419 Eh/α |
          | HOMO-LUMO GAP               0.224673106964 eV   |
           -------------------------------------------------

 * finished run on 2025/09/09 at 13:30:18.971
