   * xtb version 6.7.1 (edcfbbe) compiled by 'albert@albert-system' on 2024-07-22

   ID    Z sym.   atoms
    1    6 C      1-6, 8-39, 41-46
    2    7 N      7
    3    8 O      40
    4    1 H      47-85

          program call               : xtb data2507/toluene/DPFPhe/DPFPhe_toluene_S0_finalOpt.xtbopt.xyz --gfn 2 --uhf 2 --gbsa toluene --ohess vtight --parallel 40 --molden --ceasefiles --namespace data2507/toluene/DPFPhe/DPFPhe_toluene_T1_preOpt
      * Solvation model:               GBSA
        Solvent                        toluene
        Solvent mass                       9.2140E+01 g/mol
          :  Hamiltonian                  GFN2-xTB          :
 * total energy  :  -121.0648490 Eh     change       -0.5531589E-08 Eh
 * total energy  :  -121.0736139 Eh     change       -0.8764926E-02 Eh
 * total energy  :  -121.0769850 Eh     change       -0.3371126E-02 Eh
 * total energy  :  -121.0772437 Eh     change       -0.2586278E-03 Eh
 * total energy  :  -121.0775172 Eh     change       -0.2735661E-03 Eh
 * total energy  :  -121.0776136 Eh     change       -0.9637815E-04 Eh
 * total energy  :  -121.0777276 Eh     change       -0.1139672E-03 Eh
 * total energy  :  -121.0777791 Eh     change       -0.5154352E-04 Eh
 * total energy  :  -121.0778099 Eh     change       -0.3075729E-04 Eh
 * total energy  :  -121.0778384 Eh     change       -0.2848203E-04 Eh
 * total energy  :  -121.0784639 Eh     change       -0.8208883E-06 Eh
 * total energy  :  -121.0784647 Eh     change       -0.8003188E-06 Eh
 * total energy  :  -121.0784654 Eh     change       -0.6628434E-06 Eh
 * total energy  :  -121.0784661 Eh     change       -0.7978229E-06 Eh
 * total energy  :  -121.0784670 Eh     change       -0.8103736E-06 Eh
 * total energy  :  -121.0784677 Eh     change       -0.7584459E-06 Eh
 * total energy  :  -121.0784684 Eh     change       -0.6504260E-06 Eh
 * total energy  :  -121.0784685 Eh     change       -0.1041097E-06 Eh
 * total energy  :  -121.0784685 Eh     change       -0.2575845E-08 Eh
   *** GEOMETRY OPTIMIZATION CONVERGED AFTER 261 ITERATIONS ***

 final structure:
================
85
 xtb: 6.7.1 (edcfbbe)
C            2.50839150053152       -1.06846996431044        2.06155840106488
C            3.86898376067704       -0.74570872535450        1.45474113886535
C            3.91914953449145       -1.13542029816972       -0.02014279875489
C            5.28893472823393       -0.93990450677095       -0.67120065045067
C            5.79808195387740        0.50353890361511       -0.72219862291221
C            4.90953808834844        1.45598986736787       -1.54615120088380
N            3.98802500115247        2.21907840491893       -0.73024564054594
C            2.62665105431139        1.91927055041773       -0.66918200830414
C            1.95921889602110        1.22698413621051       -1.67844534194479
C            0.52492538947634        0.85531064866326       -1.60557112742458
C           -0.10776195584582        1.07699257027077       -0.26188685739056
C           -1.34066597713538        0.49772735757319        0.04435135773201
C           -2.06314209773235       -0.49737617050793       -0.79090442351120
C           -3.55845258525134       -0.46431842439232       -0.59024505585558
C           -4.42954903045678        0.56887339792587       -0.84553897657945
C           -5.79202045954119        0.39682023400174       -0.58245541622918
C           -6.74051403922618        1.49036919678147       -0.83960746143898
C           -7.98410742478059        1.23662006335394       -1.41583727034708
C           -8.87451855241614        2.26716330765123       -1.65427981177894
C           -8.54092165036166        3.56898250145155       -1.31773329923925
C           -7.30832018212343        3.83337898915372       -0.74329211999186
C           -6.41453364882396        2.80487177797758       -0.50914894165287
C           -6.24126891360386       -0.82050777332192       -0.06740406103875
C           -5.36845200886425       -1.86008659021230        0.19733335539936
C           -4.01770891953646       -1.68188473114810       -0.06205554079061
C           -2.88157119510924       -2.56347783196810        0.12251441910520
C           -2.79261219706716       -3.85210527955407        0.62871570447508
C           -1.55155184508877       -4.45658402319978        0.70833261459260
C           -0.39312933556104       -3.79699259529950        0.29125761264574
C            0.91976065369091       -4.45175568024634        0.38460362700955
C            1.27212045000753       -5.18939954486813        1.51354699331633
C            2.51389055012133       -5.79099327806899        1.60375999238093
C            3.42340230150144       -5.67336532937760        0.56530740807484
C            3.08200231823735       -4.94858542319552       -0.56485655750798
C            1.84351673793417       -4.33989262478942       -0.65337235035586
C           -0.48767271972134       -2.49902879041063       -0.21604308355948
C           -1.72143335976410       -1.89735708804315       -0.30608653868648
C            0.55327966260441        1.87247802600001        0.65098042893084
C            1.88556304468175        2.33289939365143        0.43877774499684
O            2.40164169123570        3.13442916392520        1.42378495400755
C            3.68736619914064        3.57468620080504        1.25691134652685
C            4.16177686858840        4.48226336289346        2.18845427516211
C            5.46247849842427        4.96071849796676        2.10157722341060
C            6.27498442743747        4.52188322464778        1.07841443721601
C            5.80148329141795        3.61045642458234        0.14081268801382
C            4.50179738666482        3.11951954159696        0.20488242035912
H            2.48282949395829       -0.79664616853734        3.11496482184842
H            1.72283337249934       -0.51685906141562        1.54816676265578
H            2.29369756751231       -2.13182625705195        1.97399788994154
H            4.64848842432906       -1.28413013114649        2.00030430149669
H            4.06263753592752        0.32294006959578        1.56977685211196
H            3.16313912021583       -0.56378335177273       -0.56242467589559
H            3.65088504514273       -2.19205700612102       -0.10210912614526
H            6.02340215850964       -1.53730761545011       -0.12470666099270
H            5.24482996466835       -1.33026336319680       -1.69161332346577
H            5.90322354205824        0.89295536615642        0.29105159116218
H            6.79528240363160        0.48704763949261       -1.16708888306537
H            4.34258319209284        0.87276082575393       -2.26660833833498
H            5.53027174137480        2.15631664027931       -2.11312702336813
H            2.45374470822646        0.97960178226762       -2.60240978814709
H            0.41068482406460       -0.19374368467575       -1.90987456681278
H           -0.04197069843719        1.43270993916315       -2.35714349018966
H           -1.74683444082630        0.66384347706403        1.03177442609464
H           -1.81222665542993       -0.38435830662209       -1.84980622457736
H           -4.07121092213539        1.49986614087250       -1.26081626881591
H           -8.24442849969807        0.22597551508348       -1.69636015314016
H           -9.83293864018512        2.05506615799394       -2.10672334723920
H           -9.23831454269857        4.37338442732050       -1.50154085130572
H           -7.04354834055574        4.84625639785501       -0.47441617086743
H           -5.46136964573609        3.01609150435252       -0.04570439182985
H           -7.29266795603110       -0.94099686611712        0.15122576869390
H           -5.73511817710690       -2.79107456528781        0.60442604761339
H           -3.67794211431274       -4.37682818617343        0.95704856743687
H           -1.47420691883941       -5.46562883604398        1.08722238016999
H            0.57408603084473       -5.27056357664811        2.33457685912497
H            2.77502248891872       -6.35231632099449        2.48973092624351
H            4.39289998954602       -6.14467905380670        0.63644014370624
H            3.78530416377327       -4.85756939006205       -1.38061426936977
H            1.57898202584826       -3.78703090355745       -1.54323098754754
H            0.41153902179807       -1.97386018213746       -0.50117561946665
H            0.10530253124133        2.10813714613628        1.60381270062625
H            3.49898137126582        4.79266431231496        2.98138358377455
H            5.82531942816308        5.66443847421352        2.83449727501947
H            7.29055588737083        4.87852455405873        0.99640287031373
H            6.46781985754687        3.28710477894896       -0.64047571978259

          :  Hamiltonian                  GFN2-xTB          :
         :: gradient norm              0.000150086762 Eh/a0 ::
         :: HOMO-LUMO gap              0.227829686715 eV    ::
         :: SCC energy              -123.212093176111 Eh    ::
         :: -> dispersion             -0.112744625186 Eh    ::
         :: -> Gsolv                  -0.045637261033 Eh    ::
         :: repulsion energy           2.133624700600 Eh    ::

    * Orbital Energies and Occupations

         #    Occupation            Energy/Eh            Energy/eV
      -------------------------------------------------------------
         1        2.0000           -0.7256608             -19.7462
       ...           ...                  ...                  ...
       102        2.0000           -0.4130654             -11.2401
       103        2.0000           -0.4094227             -11.1410
       104        2.0000           -0.4048701             -11.0171
       105        2.0000           -0.4026374             -10.9563
       106        2.0000           -0.4024209             -10.9504
       107        2.0000           -0.4022065             -10.9446
       108        2.0000           -0.3959213             -10.7736
       109        2.0000           -0.3943741             -10.7315
       110        2.0000           -0.3912117             -10.6454
       111        2.0000           -0.3680371             -10.0148
       112        1.9966           -0.3455114              -9.4018
       113        1.0034           -0.3347304              -9.1085
       114        0.9879           -0.2679383              -7.2910 (HOMO)
       115        0.0121           -0.2595658              -7.0631 (LUMO)
       116                         -0.2321642              -6.3175
       117                         -0.2216958              -6.0326
       118                         -0.2213600              -6.0235
       119                         -0.2203600              -5.9963
       120                         -0.2200936              -5.9891
       121                         -0.2173828              -5.9153
       122                         -0.2163710              -5.8878
       123                         -0.2086229              -5.6769
       124                         -0.1798549              -4.8941
       125                         -0.1735118              -4.7215
       ...                                ...                  ...
       223                          0.7355562              20.0155
      -------------------------------------------------------------
                  HL-Gap            0.0083725 Eh            0.2278 eV

     #   Z          covCN         q      C6AA      α(0)
     1   6 C        3.752    -0.097    22.414     6.751
     2   6 C        3.800    -0.047    21.420     6.590
     3   6 C        3.802    -0.061    21.669     6.627
     4   6 C        3.800    -0.058    21.627     6.621
     5   6 C        3.799    -0.064    21.731     6.637
     6   6 C        3.744    -0.006    20.750     6.498
     7   7 N        2.743    -0.075    22.689     7.074
     8   6 C        2.903     0.044    27.016     8.523
     9   6 C        2.909    -0.083    30.085     8.994
    10   6 C        3.812    -0.055    21.553     6.608
    11   6 C        2.949     0.005    27.912     8.665
    12   6 C        2.912    -0.053    29.306     8.877
    13   6 C        3.889    -0.019    20.858     6.493
    14   6 C        3.049     0.002    27.926     8.667
    15   6 C        2.919    -0.042    29.035     8.836
    16   6 C        2.978     0.005    27.911     8.666
    17   6 C        2.976     0.009    27.805     8.649
    18   6 C        2.925    -0.035    28.880     8.813
    19   6 C        2.918    -0.031    28.779     8.797
    20   6 C        2.920    -0.033    28.827     8.805
    21   6 C        2.918    -0.031    28.778     8.797
    22   6 C        2.925    -0.035    28.872     8.812
    23   6 C        2.925    -0.039    28.965     8.826
    24   6 C        2.912    -0.037    28.920     8.818
    25   6 C        3.035    -0.002    28.054     8.688
    26   6 C        3.034    -0.003    28.067     8.690
    27   6 C        2.912    -0.036    28.904     8.816
    28   6 C        2.924    -0.040    28.990     8.830
    29   6 C        2.978     0.005    27.911     8.666
    30   6 C        2.977     0.010    27.794     8.648
    31   6 C        2.925    -0.035    28.875     8.812
    32   6 C        2.918    -0.031    28.770     8.796
    33   6 C        2.919    -0.033    28.821     8.804
    34   6 C        2.918    -0.031    28.769     8.796
    35   6 C        2.925    -0.035    28.860     8.810
    36   6 C        2.919    -0.042    29.052     8.839
    37   6 C        3.052     0.004    27.884     8.660
    38   6 C        2.913    -0.075    29.868     8.962
    39   6 C        2.881     0.105    25.678     8.307
    40   8 O        1.709    -0.264    18.369     5.787
    41   6 C        2.888     0.120    25.371     8.258
    42   6 C        2.918    -0.062    29.548     8.914
    43   6 C        2.918    -0.043    29.071     8.842
    44   6 C        2.918    -0.043    29.075     8.842
    45   6 C        2.924    -0.065    29.612     8.924
    46   6 C        2.920     0.042    27.054     8.530
    47   1 H        0.925     0.027     2.623     2.533
    48   1 H        0.925     0.031     2.572     2.508
    49   1 H        0.925     0.030     2.580     2.512
    50   1 H        0.924     0.025     2.661     2.551
    51   1 H        0.924     0.021     2.726     2.582
    52   1 H        0.924     0.037     2.495     2.470
    53   1 H        0.924     0.032     2.565     2.504
    54   1 H        0.924     0.033     2.538     2.491
    55   1 H        0.924     0.034     2.529     2.487
    56   1 H        0.924     0.042     2.423     2.434
    57   1 H        0.924     0.040     2.446     2.446
    58   1 H        0.925     0.064     2.154     2.295
    59   1 H        0.924     0.045     2.378     2.411
    60   1 H        0.926     0.035     2.516     2.480
    61   1 H        0.923     0.066     2.128     2.282
    62   1 H        0.923     0.064     2.153     2.295
    63   1 H        0.926     0.025     2.655     2.548
    64   1 H        0.924     0.060     2.203     2.321
    65   1 H        0.926     0.032     2.561     2.503
    66   1 H        0.926     0.031     2.569     2.506
    67   1 H        0.926     0.030     2.591     2.517
    68   1 H        0.926     0.029     2.598     2.521
    69   1 H        0.926     0.029     2.595     2.519
    70   1 H        0.926     0.031     2.569     2.506
    71   1 H        0.926     0.031     2.574     2.509
    72   1 H        0.926     0.030     2.586     2.515
    73   1 H        0.926     0.030     2.580     2.512
    74   1 H        0.926     0.030     2.581     2.512
    75   1 H        0.926     0.029     2.597     2.520
    76   1 H        0.926     0.028     2.608     2.525
    77   1 H        0.926     0.029     2.599     2.521
    78   1 H        0.926     0.031     2.573     2.508
    79   1 H        0.926     0.033     2.545     2.494
    80   1 H        0.926     0.037     2.484     2.464
    81   1 H        0.926     0.033     2.543     2.494
    82   1 H        0.926     0.040     2.454     2.450
    83   1 H        0.926     0.035     2.518     2.481
    84   1 H        0.926     0.036     2.504     2.475
    85   1 H        0.926     0.044     2.401     2.423

molecular dipole:
                 x           y           z       tot (Debye)
 q only:        0.814      -0.499      -1.267
   full:        0.813      -0.509      -1.160       3.827

 projected vibrational frequencies (cm⁻¹)
eigval :       -0.00    -0.00     0.00     0.00     0.00     0.00
eigval :       10.64    15.44    20.75    25.79    31.50    35.67
eigval :       41.80    46.54    52.61    55.87    58.32    66.58
eigval :       73.55    80.29    93.16    97.08   114.17   119.05
eigval :      123.57   143.36   150.33   156.08   173.79   183.45
eigval :      194.61   212.63   217.97   229.39   245.64   247.12
eigval :      253.32   267.98   278.03   293.59   305.11   325.79
eigval :      336.19   339.33   355.41   365.20   373.43   374.80
eigval :      378.47   397.30   413.56   421.89   424.43   431.32
eigval :      433.72   449.19   461.30   480.77   484.47   486.66
eigval :      497.77   503.44   508.07   521.22   535.38   548.31
eigval :      553.84   562.85   582.98   585.34   588.19   596.41
eigval :      605.21   608.08   618.53   641.29   662.47   666.26
eigval :      670.17   677.85   684.20   685.65   706.73   709.09
eigval :      729.06   746.97   756.99   760.71   764.27   766.07
eigval :      772.22   790.48   799.12   821.44   826.04   833.86
eigval :      839.52   846.59   860.60   875.08   876.34   879.13
eigval :      885.58   886.29   887.75   895.94   897.40   903.87
eigval :      904.91   905.02   909.51   910.86   916.33   920.65
eigval :      929.30   931.76   931.98   934.42   936.09   967.91
eigval :      978.81   980.17   993.70  1006.10  1029.90  1045.01
eigval :     1073.14  1074.94  1078.04  1083.63  1086.42  1089.06
eigval :     1091.81  1095.45  1112.60  1116.45  1120.36  1122.01
eigval :     1124.34  1130.60  1136.52  1140.21  1144.77  1153.79
eigval :     1161.11  1165.30  1169.26  1173.23  1181.24  1182.74
eigval :     1186.36  1187.47  1197.16  1199.83  1202.34  1205.26
eigval :     1220.87  1227.82  1238.24  1242.04  1251.26  1257.25
eigval :     1270.46  1275.34  1280.31  1280.86  1283.55  1291.53
eigval :     1292.10  1294.76  1302.44  1309.56  1311.91  1316.84
eigval :     1317.22  1324.88  1325.40  1333.25  1349.01  1351.96
eigval :     1357.72  1361.26  1367.01  1376.83  1407.24  1416.01
eigval :     1416.59  1420.70  1428.52  1429.67  1438.17  1441.63
eigval :     1445.79  1458.61  1464.57  1468.11  1480.62  1485.62
eigval :     1488.67  1489.12  1490.23  1497.38  1499.65  1504.23
eigval :     1509.60  1521.91  1555.36  1559.25  1569.31  1574.42
eigval :     1578.87  1582.22  1584.31  1591.14  1599.39  1603.88
eigval :     2783.97  2885.79  2928.44  2936.47  2953.30  2954.03
eigval :     2963.44  2969.76  2974.77  2978.19  2980.78  3001.94
eigval :     3022.61  3023.08  3030.17  3045.17  3064.51  3065.68
eigval :     3065.76  3066.87  3068.82  3070.79  3071.88  3074.27
eigval :     3076.04  3076.39  3078.16  3079.22  3080.73  3082.66
eigval :     3083.24  3086.91  3087.22  3088.59  3091.91  3095.00
eigval :     3102.63  3106.86  3123.88

   temp. (K)  partition function   enthalpy   heat capacity  entropy
                                   cal/mol     cal/K/mol   cal/K/mol   J/K/mol
 298.15  VIB  0.179E+19            23400.018    146.259    146.362
         ROT  0.851E+08              888.752      2.981     39.267
         INT  0.153E+27            24288.770    149.240    185.629
         TR   0.141E+29             1481.254      4.968     45.027
         TOT                       25770.0244   154.2081   230.6561   965.0650

       T/K    H(0)-H(T)+PV         H(T)/Eh          T*S/Eh         G(T)/Eh
   ------------------------------------------------------------------------
    298.15    0.410671E-01    0.726611E+00    0.109592E+00    0.617019E+00
   ------------------------------------------------------------------------

         :::::::::::::::::::::::::::::::::::::::::::::::::::::
         ::                  THERMODYNAMIC                  ::
         :::::::::::::::::::::::::::::::::::::::::::::::::::::
         :: total free energy        -120.461449590209 Eh   ::
         ::.................................................::
         :: total energy             -121.078468477368 Eh   ::
         :: zero point energy           0.685543886311 Eh   ::
         :: G(RRHO) w/o ZPVE           -0.068524999152 Eh   ::
         :: G(RRHO) contrib.            0.617018887159 Eh   ::
         :::::::::::::::::::::::::::::::::::::::::::::::::::::

           -------------------------------------------------
          | TOTAL ENERGY             -121.078468477368 Eh   |
          | TOTAL ENTHALPY           -120.351857443188 Eh   |
          | TOTAL FREE ENERGY        -120.461449590209 Eh   |
          | GRADIENT NORM               0.000151065360 Eh/α |
          | HOMO-LUMO GAP               0.227827613811 eV   |
           -------------------------------------------------

 * finished run on 2025/09/09 at 13:00:34.704
