   * xtb version 6.7.1 (edcfbbe) compiled by 'albert@albert-system' on 2024-07-22

   ID    Z sym.   atoms
    1    6 C      1-7, 9, 11-23, 25-36, 38-48
    2    7 N      8, 10, 24, 37
    3    1 H      49-80

          program call               : xtb data2507/toluene/2DPA-DPQ/2DPA-DPQ_toluene_S0_finalOpt.xtbopt.xyz --gfn 2 --uhf 2 --gbsa toluene --ohess vtight --parallel 40 --molden --ceasefiles --namespace data2507/toluene/2DPA-DPQ/2DPA-DPQ_toluene_T1_preOpt
      * Solvation model:               GBSA
        Solvent                        toluene
        Solvent mass                       9.2140E+01 g/mol
          :  Hamiltonian                  GFN2-xTB          :
 * total energy  :  -122.2225763 Eh     change       -0.5575629E-09 Eh
 * total energy  :  -122.2260359 Eh     change       -0.3459616E-02 Eh
 * total energy  :  -122.2274854 Eh     change       -0.1449484E-02 Eh
 * total energy  :  -122.2277875 Eh     change       -0.3020905E-03 Eh
 * total energy  :  -122.2281433 Eh     change       -0.3558075E-03 Eh
 * total energy  :  -122.2283821 Eh     change       -0.2388085E-03 Eh
 * total energy  :  -122.2286211 Eh     change       -0.2389640E-03 Eh
 * total energy  :  -122.2288060 Eh     change       -0.1848911E-03 Eh
 * total energy  :  -122.2289283 Eh     change       -0.1223782E-03 Eh
 * total energy  :  -122.2290123 Eh     change       -0.8392497E-04 Eh
 * total energy  :  -122.2299665 Eh     change       -0.1718647E-05 Eh
 * total energy  :  -122.2299680 Eh     change       -0.1547088E-05 Eh
 * total energy  :  -122.2299693 Eh     change       -0.1279631E-05 Eh
 * total energy  :  -122.2299706 Eh     change       -0.1300635E-05 Eh
 * total energy  :  -122.2299721 Eh     change       -0.1523332E-05 Eh
 * total energy  :  -122.2299735 Eh     change       -0.1350246E-05 Eh
 * total energy  :  -122.2299741 Eh     change       -0.6429046E-06 Eh
 * total energy  :  -122.2299743 Eh     change       -0.2229016E-06 Eh
 * total energy  :  -122.2299744 Eh     change       -0.7862373E-07 Eh
   *** GEOMETRY OPTIMIZATION CONVERGED AFTER 59 ITERATIONS ***

 final structure:
================
80
 xtb: 6.7.1 (edcfbbe)
C            7.23828613150204       -2.98436644409629        0.35865171849603
C            7.04749633429601       -2.09856703554417       -0.68962603569340
C            5.89098653860286       -1.34542393745149       -0.76415486788004
C            4.90308139708224       -1.46565500628911        0.21186919918944
C            3.65855649537339       -0.68527327299736        0.12961113221261
C            2.44171573980284       -1.35418568872912        0.27844039642331
C            1.22096150395588       -0.70032527629478        0.17116806334067
N            0.05427562654916       -1.31431022714611        0.39040849470107
C           -1.10294212866090       -0.66968536828091        0.21648715508143
N           -2.28552635088103       -1.36212814734736        0.47433146208078
C           -3.24706533097964       -0.78904744880132        1.31350510505554
C           -4.60655712113064       -1.03289589408221        1.10986395819774
C           -5.54572186176168       -0.45115221050621        1.93815192019243
C           -5.15181440097790        0.38990743825476        2.96794912365689
C           -3.80393179798530        0.63506936941261        3.17456584705026
C           -2.85649974170344        0.04655864115282        2.35923425931649
C           -2.39095800642110       -2.68347886307954        0.02948649472542
C           -1.73419818291045       -3.08961636614837       -1.13240895379487
C           -1.81325751938211       -4.40062883222406       -1.55976591218132
C           -2.54726151307332       -5.33038045615261       -0.84168621689788
C           -3.19068596576474       -4.93680153692160        0.32115218514833
C           -3.11343252651285       -3.62972315158372        0.75957247875937
C           -1.10415112872323        0.66695409359342       -0.21721154295736
N           -2.28792567733749        1.35694219882460       -0.47598389164619
C           -2.39606523046188        2.67849420328628       -0.03240030144703
C           -3.11999599652590        3.62262367118808       -0.76378191661060
C           -3.19979112471022        4.93003102969616       -0.32681154670045
C           -2.55767825062481        5.32597990739257        0.83594977045212
C           -1.82243118639125        4.39829172077458        1.55543095770622
C           -1.74075071263462        3.08697323916052        1.12948145734480
C           -3.24793499547706        0.78159787299302       -1.31540570572622
C           -4.60800335158638        1.02244004221860       -1.11210920594867
C           -5.54566441267963        0.43842943678291       -1.94051162985849
C           -5.14960406175258       -0.40190033176752       -2.97008134189674
C           -3.80112275068441       -0.64395022897557       -3.17644502153736
C           -2.85521325283583       -0.05313123510320       -2.36100634336667
N            0.05186984878698        1.31391885398195       -0.39026945659021
C            1.21965875382038        0.70228837194501       -0.17028562958126
C            2.43915662891209        1.35856694675677       -0.27696107386785
C            3.65726092915188        0.69203640016700       -0.12770958165071
C            4.90028892871768        1.47481720288401       -0.20973759595013
C            5.88839620904526        1.35642245065151        0.76631423345366
C            7.04340616748498        2.11188953087038        0.69192272009484
C            7.23254559341259        2.99809683352328       -0.35630420086199
C            6.25313974163440        3.13042340361757       -1.32689091414498
C            5.09460906588412        2.37947302607460       -1.25205471301232
C            5.09908103329041       -2.36988392518199        1.25423964567142
C            6.25906477920025       -3.11859067939833        1.32916050882520
H            8.14432968751894       -3.56946974735797        0.41720805574937
H            7.80324939141327       -1.99495404626265       -1.45489526339863
H            5.74273501405773       -0.66405589601151       -1.58915126451882
H            2.42754302812945       -2.42024002960836        0.44901772220899
H           -4.91408364544390       -1.67007754968279        0.29466853993848
H           -6.59388616754548       -0.64762421145275        1.77115007727122
H           -5.88991177071807        0.84901895294751        3.60716274526064
H           -3.48583107986152        1.28066437486205        3.97942107807573
H           -1.80290164515861        0.21071988556110        2.53674016648763
H           -1.16047301061725       -2.37367078278497       -1.70017329943473
H           -1.29963355046076       -4.69507367673991       -2.46305431139926
H           -2.61142228058268       -6.35279457481686       -1.18066005612666
H           -3.74982160648483       -5.65631228378176        0.90056411408904
H           -3.59380876075496       -3.34108313021702        1.68229610690268
H           -3.59929258688599        3.33211952006213       -1.68648587790620
H           -3.75989657550135        5.64792910235335       -0.90728965039931
H           -2.62378913288142        6.34865391758686        1.17376891697843
H           -1.30991187829799        4.69460195070500        2.45873611478485
H           -1.16625117258450        2.37258622668246        1.69843264267433
H           -4.91710953920013        1.65899053643449       -0.29701173577373
H           -6.59431355855254        0.63253304255267       -1.77378844089807
H           -5.88650462946205       -0.86266794405710       -3.60948766486484
H           -3.48136569967072       -1.28869912448738       -3.98132816898769
H           -1.80119296511842       -0.21472706344366       -2.53836471658205
H            2.42295207225665        2.42459854433379       -0.44749696584709
H            5.74143317693400        0.67474002741886        1.59128121597649
H            7.79935802054409        2.00963936391294        1.45717993233261
H            8.13748721775664        3.58491284451899       -0.41481636325320
H            6.39263834523017        3.82115049228036       -2.14629893048938
H            4.33677308050532        2.47509719816671       -2.01715660459929
H            4.34139872806153       -2.46691505720152        2.01931449107689
H            6.39991102947921       -3.80895091099303        2.14863355260302

          :  Hamiltonian                  GFN2-xTB          :
         :: gradient norm              0.000089906800 Eh/a0 ::
         :: HOMO-LUMO gap              1.036674066998 eV    ::
         :: SCC energy              -124.503585203583 Eh    ::
         :: -> dispersion             -0.121669541030 Eh    ::
         :: -> Gsolv                  -0.052745322487 Eh    ::
         :: repulsion energy           2.273610807977 Eh    ::

    * Orbital Energies and Occupations

         #    Occupation            Energy/Eh            Energy/eV
      -------------------------------------------------------------
         1        2.0000           -0.6903719             -18.7860
       ...           ...                  ...                  ...
       103        2.0000           -0.4172930             -11.3551
       104        2.0000           -0.4158512             -11.3159
       105        2.0000           -0.4139803             -11.2650
       106        2.0000           -0.4129062             -11.2357
       107        2.0000           -0.4079861             -11.1019
       108        2.0000           -0.4040972             -10.9960
       109        2.0000           -0.4025735             -10.9546
       110        2.0000           -0.3904256             -10.6240
       111        2.0000           -0.3881246             -10.5614
       112        2.0000           -0.3783709             -10.2960
       113        1.9448           -0.3662009              -9.9648
       114        1.0552           -0.3608037              -9.8180
       115        1.0000           -0.2937474              -7.9933 (HOMO)
       116                         -0.2556505              -6.9566 (LUMO)
       117                         -0.2462523              -6.7009
       118                         -0.2420273              -6.5859
       119                         -0.2415659              -6.5733
       120                         -0.2375952              -6.4653
       121                         -0.2333134              -6.3488
       122                         -0.2324102              -6.3242
       123                         -0.2296490              -6.2491
       124                         -0.2261973              -6.1551
       125                         -0.2246614              -6.1133
       126                         -0.2193401              -5.9685
       ...                                ...                  ...
       224                          0.6997976              19.0425
      -------------------------------------------------------------
                  HL-Gap            0.0380969 Eh            1.0367 eV

     #   Z          covCN         q      C6AA      α(0)
     1   6 C        2.920    -0.033    28.826     8.804
     2   6 C        2.918    -0.031    28.769     8.796
     3   6 C        2.924    -0.033    28.820     8.804
     4   6 C        2.977     0.012    27.748     8.641
     5   6 C        2.975    -0.004    28.125     8.699
     6   6 C        2.924    -0.073    29.815     8.954
     7   6 C        2.939     0.085    26.118     8.382
     8   7 N        1.849    -0.282    28.173     7.867
     9   6 C        2.885     0.139    24.962     8.191
    10   7 N        2.753    -0.079    22.781     7.089
    11   6 C        2.923     0.065    26.538     8.448
    12   6 C        2.922    -0.045    29.128     8.851
    13   6 C        2.919    -0.027    28.684     8.783
    14   6 C        2.919    -0.034    28.843     8.807
    15   6 C        2.919    -0.028    28.709     8.787
    16   6 C        2.923    -0.044    29.100     8.846
    17   6 C        2.925     0.072    26.383     8.423
    18   6 C        2.923    -0.042    29.043     8.838
    19   6 C        2.919    -0.029    28.714     8.787
    20   6 C        2.919    -0.036    28.886     8.814
    21   6 C        2.920    -0.028    28.709     8.787
    22   6 C        2.922    -0.048    29.195     8.861
    23   6 C        2.885     0.139    24.962     8.191
    24   7 N        2.753    -0.079    22.781     7.089
    25   6 C        2.925     0.072    26.383     8.423
    26   6 C        2.922    -0.048    29.195     8.861
    27   6 C        2.920    -0.028    28.709     8.787
    28   6 C        2.919    -0.036    28.886     8.814
    29   6 C        2.919    -0.029    28.714     8.787
    30   6 C        2.923    -0.042    29.043     8.838
    31   6 C        2.923     0.065    26.538     8.448
    32   6 C        2.922    -0.045    29.128     8.851
    33   6 C        2.919    -0.027    28.684     8.783
    34   6 C        2.919    -0.034    28.843     8.807
    35   6 C        2.919    -0.028    28.709     8.787
    36   6 C        2.923    -0.044    29.100     8.846
    37   7 N        1.849    -0.282    28.173     7.867
    38   6 C        2.938     0.085    26.118     8.382
    39   6 C        2.924    -0.073    29.815     8.955
    40   6 C        2.975    -0.004    28.125     8.699
    41   6 C        2.977     0.012    27.748     8.641
    42   6 C        2.924    -0.033    28.820     8.804
    43   6 C        2.918    -0.031    28.769     8.796
    44   6 C        2.920    -0.033    28.826     8.804
    45   6 C        2.918    -0.031    28.781     8.797
    46   6 C        2.925    -0.036    28.903     8.816
    47   6 C        2.925    -0.036    28.903     8.816
    48   6 C        2.918    -0.031    28.781     8.797
    49   1 H        0.926     0.034     2.535     2.490
    50   1 H        0.926     0.032     2.553     2.499
    51   1 H        0.926     0.026     2.638     2.540
    52   1 H        0.926     0.039     2.468     2.457
    53   1 H        0.926     0.041     2.439     2.442
    54   1 H        0.926     0.051     2.309     2.376
    55   1 H        0.926     0.049     2.334     2.389
    56   1 H        0.926     0.043     2.403     2.424
    57   1 H        0.926     0.019     2.744     2.591
    58   1 H        0.926     0.024     2.669     2.555
    59   1 H        0.926     0.041     2.432     2.439
    60   1 H        0.926     0.045     2.383     2.414
    61   1 H        0.926     0.047     2.362     2.403
    62   1 H        0.926     0.039     2.459     2.452
    63   1 H        0.926     0.039     2.459     2.452
    64   1 H        0.926     0.047     2.362     2.403
    65   1 H        0.926     0.045     2.383     2.414
    66   1 H        0.926     0.041     2.432     2.439
    67   1 H        0.926     0.024     2.668     2.555
    68   1 H        0.926     0.041     2.439     2.442
    69   1 H        0.926     0.051     2.309     2.376
    70   1 H        0.926     0.049     2.334     2.389
    71   1 H        0.926     0.044     2.402     2.424
    72   1 H        0.926     0.019     2.744     2.590
    73   1 H        0.926     0.039     2.468     2.457
    74   1 H        0.926     0.026     2.638     2.540
    75   1 H        0.926     0.032     2.553     2.499
    76   1 H        0.926     0.034     2.535     2.490
    77   1 H        0.926     0.033     2.544     2.494
    78   1 H        0.926     0.028     2.611     2.527
    79   1 H        0.926     0.028     2.611     2.527
    80   1 H        0.926     0.033     2.544     2.494

molecular dipole:
                 x           y           z       tot (Debye)
 q only:       -2.387      -0.003      -0.001
   full:       -2.203      -0.002      -0.001       5.601

 projected vibrational frequencies (cm⁻¹)
eigval :       -0.00    -0.00    -0.00     0.00     0.00     0.00
eigval :       14.66    15.85    17.54    27.94    32.29    42.78
eigval :       44.27    46.43    57.08    60.16    65.53    68.92
eigval :       69.28    79.15    79.38    82.04   106.08   108.07
eigval :      126.84   144.05   159.40   162.98   191.44   200.87
eigval :      210.68   232.57   234.79   236.81   247.19   260.15
eigval :      261.73   276.91   309.95   320.09   320.14   331.54
eigval :      368.28   370.40   373.01   373.78   376.56   382.42
eigval :      389.35   392.46   407.89   420.86   453.01   467.85
eigval :      469.01   476.04   484.61   496.86   507.94   519.41
eigval :      541.71   546.05   556.08   576.41   577.90   586.66
eigval :      587.71   587.82   588.41   589.13   592.58   609.32
eigval :      616.83   640.01   647.61   657.29   657.59   662.06
eigval :      666.04   667.20   678.28   682.07   687.27   702.49
eigval :      717.36   750.85   752.96   757.09   759.07   761.78
eigval :      761.84   795.07   813.39   828.24   838.60   860.74
eigval :      863.98   873.36   879.62   880.07   880.50   887.39
eigval :      891.52   897.95   900.43   901.90   903.06   905.01
eigval :      905.27   922.41   923.13   923.65   923.77   924.12
eigval :      928.89   929.71   929.93   930.06   931.41   931.81
eigval :      932.19   933.96   957.00   973.14   978.31   997.66
eigval :     1001.62  1006.35  1010.67  1072.89  1080.05  1080.29
eigval :     1083.85  1084.87  1085.02  1087.27  1117.73  1118.64
eigval :     1120.01  1120.30  1125.60  1128.26  1154.12  1176.05
eigval :     1176.55  1178.05  1178.13  1179.18  1179.27  1186.30
eigval :     1190.01  1193.00  1196.74  1197.82  1199.29  1201.89
eigval :     1209.30  1222.91  1244.04  1247.69  1266.73  1270.76
eigval :     1272.93  1275.52  1276.61  1282.28  1285.11  1287.08
eigval :     1302.77  1303.87  1304.31  1314.64  1314.97  1317.86
eigval :     1320.62  1325.01  1327.24  1328.43  1363.50  1392.18
eigval :     1392.58  1427.07  1429.42  1429.48  1430.89  1439.76
eigval :     1440.02  1452.51  1462.07  1462.32  1462.98  1469.87
eigval :     1475.47  1478.16  1502.92  1516.48  1569.50  1569.75
eigval :     1574.04  1574.69  1576.38  1576.94  1582.28  1582.61
eigval :     1588.09  1591.81  1594.30  1595.75  3065.58  3065.64
eigval :     3068.87  3069.07  3069.21  3069.35  3075.05  3075.38
eigval :     3080.09  3080.19  3081.12  3081.17  3081.57  3082.75
eigval :     3083.74  3084.33  3085.16  3085.53  3087.85  3088.00
eigval :     3090.04  3090.09  3092.37  3092.49  3095.44  3095.62
eigval :     3095.79  3097.33  3101.67  3102.15  3103.60  3103.85

   temp. (K)  partition function   enthalpy   heat capacity  entropy
                                   cal/mol     cal/K/mol   cal/K/mol   J/K/mol
 298.15  VIB  0.535E+18            22866.814    144.143    143.161
         ROT  0.345E+08              888.752      2.981     37.473
         INT  0.185E+26            23755.567    147.124    180.634
         TR   0.148E+29             1481.254      4.968     45.120
         TOT                       25236.8206   152.0921   225.7541   944.5552

       T/K    H(0)-H(T)+PV         H(T)/Eh          T*S/Eh         G(T)/Eh
   ------------------------------------------------------------------------
    298.15    0.402174E-01    0.657037E+00    0.107263E+00    0.549774E+00
   ------------------------------------------------------------------------

         :::::::::::::::::::::::::::::::::::::::::::::::::::::
         ::                  THERMODYNAMIC                  ::
         :::::::::::::::::::::::::::::::::::::::::::::::::::::
         :: total free energy        -121.680200483048 Eh   ::
         ::.................................................::
         :: total energy             -122.229974396040 Eh   ::
         :: zero point energy           0.616819540425 Eh   ::
         :: G(RRHO) w/o ZPVE           -0.067045627432 Eh   ::
         :: G(RRHO) contrib.            0.549773912993 Eh   ::
         :::::::::::::::::::::::::::::::::::::::::::::::::::::

           -------------------------------------------------
          | TOTAL ENERGY             -122.229974396040 Eh   |
          | TOTAL ENTHALPY           -121.572937422022 Eh   |
          | TOTAL FREE ENERGY        -121.680200483048 Eh   |
          | GRADIENT NORM               0.000089796201 Eh/α |
          | HOMO-LUMO GAP               1.036669370800 eV   |
           -------------------------------------------------

 * finished run on 2025/07/18 at 17:02:24.132
