   * xtb version 6.7.1 (edcfbbe) compiled by 'albert@albert-system' on 2024-07-22

   ID    Z sym.   atoms
    1    6 C      1-7, 9, 11-23, 25-36, 38-48
    2    7 N      8, 10, 24, 37
    3    1 H      49-80

          program call               : xtb data2507/toluene/2DPA-DPQ/2DPA-DPQ.xyz --gfn 2 --gbsa toluene --ohess vtight --parallel 40 --molden --ceasefiles --namespace data2507/toluene/2DPA-DPQ/2DPA-DPQ_toluene_S0_preOpt
      * Solvation model:               GBSA
        Solvent                        toluene
        Solvent mass                       9.2140E+01 g/mol
          :  Hamiltonian                  GFN2-xTB          :
 * total energy  :  -122.2622372 Eh     change       -0.2428706E-08 Eh
 * total energy  :  -122.2811426 Eh     change       -0.1890536E-01 Eh
 * total energy  :  -122.2892278 Eh     change       -0.8085214E-02 Eh
 * total energy  :  -122.2920826 Eh     change       -0.2854730E-02 Eh
 * total energy  :  -122.2937807 Eh     change       -0.1698179E-02 Eh
 * total energy  :  -122.2943986 Eh     change       -0.6178379E-03 Eh
 * total energy  :  -122.2947717 Eh     change       -0.3731551E-03 Eh
 * total energy  :  -122.2951453 Eh     change       -0.3735970E-03 Eh
 * total energy  :  -122.2955220 Eh     change       -0.3766936E-03 Eh
 * total energy  :  -122.2958561 Eh     change       -0.3340377E-03 Eh
 * total energy  :  -122.2989508 Eh     change       -0.1270691E-05 Eh
 * total energy  :  -122.2989517 Eh     change       -0.8625823E-06 Eh
 * total energy  :  -122.2989525 Eh     change       -0.8018789E-06 Eh
 * total energy  :  -122.2989532 Eh     change       -0.7838144E-06 Eh
 * total energy  :  -122.2989539 Eh     change       -0.6419679E-06 Eh
 * total energy  :  -122.2989542 Eh     change       -0.2773343E-06 Eh
 * total energy  :  -122.2989543 Eh     change       -0.1358508E-06 Eh
 * total energy  :  -122.2989544 Eh     change       -0.1211217E-06 Eh
 * total energy  :  -122.2989545 Eh     change       -0.9641946E-07 Eh
   *** GEOMETRY OPTIMIZATION CONVERGED AFTER 57 ITERATIONS ***

 final structure:
================
80
 xtb: 6.7.1 (edcfbbe)
C            7.22165561548649       -2.94747021689644       -0.04409842838567
C            6.26598329935631       -3.17175406895698       -1.02106767335710
C            5.08953641642566       -2.44442573932707       -1.02180457628447
C            4.85790088583308       -1.47301319575379       -0.05148766152275
C            3.59705418530658       -0.70824551076815       -0.05115088457922
C            2.40155663296410       -1.38954103742901       -0.11920192031337
C            1.17995361875769       -0.70423398213562       -0.07442331444917
N            0.01299527928526       -1.37309158528890       -0.22127915323806
C           -1.11161175212870       -0.70609925757191       -0.15938733074482
N           -2.27109462760292       -1.41196494270789       -0.41992215483333
C           -2.26619740550932       -2.81207500805645       -0.22997792657084
C           -2.76988020892925       -3.66264342197772       -1.20957109037539
C           -2.78525941577214       -5.02974901403447       -1.00241385013940
C           -2.29159071542928       -5.56504948409201        0.17537767710878
C           -1.77933994895795       -4.72148577979319        1.14755780040062
C           -1.76780565446374       -3.35373849869455        0.95057782161695
C           -3.31172227283920       -0.83554712249704       -1.16510129966656
C           -3.04647838683294        0.12428571702917       -2.13833208655504
C           -4.08179115416239        0.69012518364396       -2.85938172696047
C           -5.38807346225875        0.28945706599408       -2.63638958503776
C           -5.65411216109558       -0.68445605868408       -1.68653165575605
C           -4.62777199138920       -1.24150711960774       -0.94986754485291
C           -1.11159911303006        0.70615222926525        0.15941170387512
N           -2.27108166380007        1.41204242387902        0.41989313002910
C           -2.26617950106152        2.81214559253654        0.22992959031286
C           -1.76758251039956        3.35380980677379       -0.95054058979277
C           -1.77910657023317        4.72155422989132       -1.14753768346851
C           -2.29155680767410        5.56512057889847       -0.17546541688293
C           -2.78543734457498        5.02982165234603        1.00223733099546
C           -2.77006169959017        3.66271961382703        1.20941669411005
C           -3.31173670894650        0.83561573159324        1.16503200048748
C           -3.04650406412592       -0.12416274473335        2.13831919318296
C           -4.08183174646484       -0.69002263731780        2.85933126115797
C           -5.38812011542550       -0.28942802736769        2.63624253503550
C           -5.65414960656407        0.68443141480339        1.68632711423052
C           -4.62779258869470        1.24150150238335        0.94970028126370
N            0.01302355704214        1.37311108863497        0.22135740068502
C            1.17996932803940        0.70422403400461        0.07453524655379
C            2.40158656338227        1.38950428320218        0.11933218425149
C            3.59706984194273        0.70818303360342        0.05128838452283
C            4.85793368873360        1.47292242458154        0.05162514109094
C            5.08958706666887        2.44433928438255        1.02193437467072
C            6.26604773659458        3.17164572055207        1.02119151749469
C            7.22171774252543        2.94733379291795        0.04422597874684
C            6.99187772928634        1.99567902671501       -0.93590489522892
C            5.82015592713431        1.26182560736466       -0.93270730174039
C            5.82012595057911       -1.26194384629392        0.93284768567811
C            6.99183142916657       -1.99582253891370        0.93604197216273
H            8.14056449402513       -3.51497256400212       -0.04429243269310
H            6.43740838505495       -3.91495351206053       -1.78641472561191
H            4.34750830281115       -2.61288962030608       -1.78973364429928
H            2.38049452015313       -2.46656900989050       -0.19661184763761
H           -3.14600334739905       -3.24934246771848       -2.13413507689880
H           -3.17815371937342       -5.67851455957400       -1.77109184443335
H           -2.30212931886744       -6.63259599284256        0.33403836349422
H           -1.38965999646131       -5.12906500938784        2.06867773566279
H           -1.36604962409765       -2.70032642311477        1.71006007504832
H           -2.02254210063313        0.41107250123605       -2.33715669015745
H           -3.86217742923664        1.43766902018166       -3.60724460827171
H           -6.19304312909001        0.72877084416709       -3.20499107282260
H           -6.66910311767083       -1.00661042171353       -1.51068935753028
H           -4.83267565148978       -1.98949994248065       -0.19891097933772
H           -1.36567264417926        2.70040205150062       -1.70994503829584
H           -1.38926319167632        5.12912914152893       -2.06859055738680
H           -2.30208843305905        6.63266472474315       -0.33414138456897
H           -3.17848814712719        5.67858694754564        1.77083569305941
H           -3.14634115689848        3.24942760559948        2.13392080684105
H           -2.02256380579299       -0.41088852504149        2.33721489490186
H           -3.86222657483636       -1.43752268461768        3.60724039211884
H           -6.19310246974130       -0.72875709382629        3.20481417351771
H           -6.66914570620816        1.00652855482313        1.51041007220744
H           -4.83268753333177        1.98945195404585        0.19869922767425
H            2.38054550122720        2.46653276062009        0.19674134180962
H            4.34756352523578        2.61282060413278        1.78986384936744
H            6.43749603077610        3.91483289913015        1.78654355485076
H            8.14064411519785        3.51480709313655        0.04442563083485
H            7.72911523584123        1.82277694242995       -1.70633592560524
H            5.64030926951003        0.52683131073355       -1.70358398630278
H            5.64029922842656       -0.52694195600614        1.70372221843358
H            7.72907419244043       -1.82293837288876        1.70647187309073

          :  Hamiltonian                  GFN2-xTB          :
         :: gradient norm              0.000053794596 Eh/a0 ::
         :: HOMO-LUMO gap              1.932119506086 eV    ::
         :: SCC energy              -124.577799678795 Eh    ::
         :: -> dispersion             -0.122340656989 Eh    ::
         :: -> Gsolv                  -0.053322932395 Eh    ::
         :: repulsion energy           2.278845165656 Eh    ::

    * Orbital Energies and Occupations

         #    Occupation            Energy/Eh            Energy/eV
      -------------------------------------------------------------
         1        2.0000           -0.6898531             -18.7719
       ...           ...                  ...                  ...
       102        2.0000           -0.4187386             -11.3945
       103        2.0000           -0.4169569             -11.3460
       104        2.0000           -0.4148550             -11.2888
       105        2.0000           -0.4140024             -11.2656
       106        2.0000           -0.4124220             -11.2226
       107        2.0000           -0.4112379             -11.1904
       108        2.0000           -0.4082011             -11.1077
       109        2.0000           -0.4060698             -11.0497
       110        2.0000           -0.3978613             -10.8264
       111        2.0000           -0.3928107             -10.6889
       112        2.0000           -0.3780185             -10.2864
       113        2.0000           -0.3643529              -9.9145
       114        2.0000           -0.3595572              -9.7841 (HOMO)
       115                         -0.2885531              -7.8519 (LUMO)
       116                         -0.2577306              -7.0132
       117                         -0.2455645              -6.6822
       118                         -0.2395440              -6.5183
       119                         -0.2382379              -6.4828
       120                         -0.2380389              -6.4774
       121                         -0.2325214              -6.3272
       122                         -0.2319573              -6.3119
       123                         -0.2315523              -6.3009
       124                         -0.2309467              -6.2844
       125                         -0.2277032              -6.1961
       ...                                ...                  ...
       224                          0.6966184              18.9560
      -------------------------------------------------------------
                  HL-Gap            0.0710041 Eh            1.9321 eV

     #   Z          covCN         q      C6AA      α(0)
     1   6 C        2.920    -0.031    28.776     8.797
     2   6 C        2.918    -0.030    28.751     8.793
     3   6 C        2.925    -0.035    28.863     8.810
     4   6 C        2.978     0.012    27.743     8.640
     5   6 C        2.976     0.002    27.966     8.675
     6   6 C        2.924    -0.057    29.418     8.895
     7   6 C        2.959     0.074    26.347     8.419
     8   7 N        1.852    -0.310    28.888     7.966
     9   6 C        2.895     0.167    24.394     8.098
    10   7 N        2.757    -0.100    23.195     7.153
    11   6 C        2.929     0.075    26.321     8.414
    12   6 C        2.922    -0.046    29.139     8.852
    13   6 C        2.920    -0.029    28.723     8.789
    14   6 C        2.919    -0.035    28.872     8.811
    15   6 C        2.920    -0.029    28.725     8.789
    16   6 C        2.923    -0.038    28.945     8.823
    17   6 C        2.925     0.068    26.488     8.440
    18   6 C        2.922    -0.046    29.138     8.852
    19   6 C        2.919    -0.030    28.745     8.792
    20   6 C        2.919    -0.036    28.890     8.814
    21   6 C        2.920    -0.028    28.704     8.786
    22   6 C        2.923    -0.047    29.155     8.855
    23   6 C        2.895     0.167    24.394     8.098
    24   7 N        2.757    -0.100    23.195     7.153
    25   6 C        2.929     0.075    26.321     8.414
    26   6 C        2.923    -0.038    28.945     8.823
    27   6 C        2.920    -0.029    28.725     8.789
    28   6 C        2.919    -0.035    28.872     8.811
    29   6 C        2.920    -0.029    28.723     8.789
    30   6 C        2.922    -0.046    29.139     8.852
    31   6 C        2.925     0.068    26.488     8.440
    32   6 C        2.922    -0.046    29.138     8.852
    33   6 C        2.919    -0.030    28.745     8.792
    34   6 C        2.919    -0.036    28.890     8.814
    35   6 C        2.920    -0.028    28.704     8.786
    36   6 C        2.923    -0.047    29.155     8.855
    37   7 N        1.852    -0.310    28.888     7.966
    38   6 C        2.959     0.074    26.347     8.419
    39   6 C        2.924    -0.057    29.418     8.895
    40   6 C        2.976     0.002    27.966     8.675
    41   6 C        2.978     0.012    27.743     8.640
    42   6 C        2.925    -0.035    28.863     8.810
    43   6 C        2.918    -0.030    28.751     8.793
    44   6 C        2.920    -0.031    28.776     8.797
    45   6 C        2.919    -0.030    28.744     8.792
    46   6 C        2.924    -0.032    28.788     8.799
    47   6 C        2.924    -0.032    28.788     8.799
    48   6 C        2.919    -0.030    28.744     8.792
    49   1 H        0.926     0.037     2.486     2.466
    50   1 H        0.926     0.036     2.497     2.471
    51   1 H        0.926     0.030     2.583     2.513
    52   1 H        0.926     0.044     2.402     2.424
    53   1 H        0.926     0.033     2.540     2.492
    54   1 H        0.926     0.045     2.377     2.411
    55   1 H        0.926     0.046     2.374     2.409
    56   1 H        0.926     0.043     2.413     2.429
    57   1 H        0.926     0.024     2.670     2.555
    58   1 H        0.925     0.011     2.880     2.654
    59   1 H        0.926     0.041     2.430     2.438
    60   1 H        0.926     0.048     2.346     2.395
    61   1 H        0.926     0.049     2.330     2.387
    62   1 H        0.926     0.036     2.500     2.472
    63   1 H        0.926     0.024     2.670     2.555
    64   1 H        0.926     0.043     2.413     2.429
    65   1 H        0.926     0.046     2.374     2.409
    66   1 H        0.926     0.045     2.377     2.411
    67   1 H        0.926     0.033     2.540     2.492
    68   1 H        0.925     0.011     2.880     2.654
    69   1 H        0.926     0.041     2.430     2.438
    70   1 H        0.926     0.048     2.346     2.395
    71   1 H        0.926     0.049     2.330     2.387
    72   1 H        0.926     0.036     2.500     2.472
    73   1 H        0.926     0.044     2.402     2.424
    74   1 H        0.926     0.030     2.583     2.513
    75   1 H        0.926     0.036     2.497     2.471
    76   1 H        0.926     0.037     2.486     2.466
    77   1 H        0.926     0.036     2.505     2.475
    78   1 H        0.926     0.029     2.605     2.524
    79   1 H        0.926     0.029     2.605     2.524
    80   1 H        0.926     0.036     2.505     2.475

molecular dipole:
                 x           y           z       tot (Debye)
 q only:       -1.148      -0.000      -0.000
   full:       -1.007      -0.000      -0.000       2.560

 projected vibrational frequencies (cm⁻¹)
eigval :       -0.00    -0.00    -0.00     0.00     0.00     0.00
eigval :      -13.44     2.81    12.59    15.91    27.89    35.34
eigval :       39.04    41.88    47.93    48.83    58.01    61.80
eigval :       65.99    67.64    78.32    82.70    90.57   100.19
eigval :      120.02   143.64   157.82   160.68   191.14   200.11
eigval :      206.29   231.62   241.27   242.50   244.44   245.78
eigval :      274.99   283.54   305.96   316.80   341.44   353.41
eigval :      368.25   369.81   372.07   373.29   376.12   377.54
eigval :      385.10   386.76   418.89   445.58   452.49   457.58
eigval :      471.38   479.69   489.42   500.45   507.85   527.60
eigval :      541.17   559.46   570.41   579.59   584.10   588.38
eigval :      589.24   590.56   591.07   593.67   593.80   614.65
eigval :      648.86   650.85   658.58   661.05   661.65   668.64
eigval :      672.29   677.63   688.21   699.34   720.09   726.49
eigval :      735.24   755.78   756.19   756.83   757.69   760.35
eigval :      762.04   838.47   855.48   861.65   869.23   869.81
eigval :      873.53   874.23   874.33   875.69   880.91   890.88
eigval :      891.95   893.31   895.20   900.88   901.88   902.46
eigval :      907.20   923.84   924.03   926.44   926.61   927.57
eigval :      927.73   927.80   928.31   928.59   929.83   929.94
eigval :      930.07   932.00   958.21   972.65   981.87   996.92
eigval :     1003.40  1010.45  1015.86  1069.09  1081.57  1081.73
eigval :     1082.25  1083.67  1083.79  1084.05  1116.91  1117.88
eigval :     1121.39  1121.85  1122.92  1124.30  1171.08  1177.08
eigval :     1177.10  1178.05  1178.56  1178.58  1178.69  1190.99
eigval :     1193.42  1193.90  1194.93  1196.00  1197.09  1205.80
eigval :     1207.80  1236.87  1252.56  1262.44  1272.80  1275.17
eigval :     1277.21  1277.92  1279.62  1281.45  1290.05  1299.08
eigval :     1304.09  1309.93  1315.26  1316.65  1318.43  1319.06
eigval :     1325.48  1326.05  1346.57  1395.96  1417.38  1425.64
eigval :     1429.89  1431.52  1432.24  1436.06  1441.60  1445.08
eigval :     1466.16  1467.68  1471.03  1471.77  1473.31  1477.99
eigval :     1488.75  1501.03  1527.06  1577.72  1579.48  1579.94
eigval :     1580.57  1584.96  1585.16  1586.84  1592.03  1592.11
eigval :     1596.93  1597.37  1597.70  1599.19  3057.66  3057.74
eigval :     3066.73  3066.86  3071.52  3072.10  3076.53  3077.15
eigval :     3077.59  3077.61  3078.87  3078.88  3082.29  3082.73
eigval :     3082.80  3083.21  3086.13  3086.26  3086.38  3086.83
eigval :     3086.97  3087.34  3090.72  3090.73  3091.51  3091.52
eigval :     3094.28  3094.86  3099.30  3099.32  3103.07  3103.17

   temp. (K)  partition function   enthalpy   heat capacity  entropy
                                   cal/mol     cal/K/mol   cal/K/mol   J/K/mol
 298.15  VIB  0.282E+20            22888.641    141.824    146.108
         ROT  0.346E+08              888.752      2.981     37.480
         INT  0.978E+27            23777.393    144.805    183.588
         TR   0.148E+29             1481.254      4.968     45.120
         TOT                       25258.6473   149.7735   228.7088   956.9176

       T/K    H(0)-H(T)+PV         H(T)/Eh          T*S/Eh         G(T)/Eh
   ------------------------------------------------------------------------
    298.15    0.402522E-01    0.659233E+00    0.108667E+00    0.550566E+00
   ------------------------------------------------------------------------

         :::::::::::::::::::::::::::::::::::::::::::::::::::::
         ::                  THERMODYNAMIC                  ::
         :::::::::::::::::::::::::::::::::::::::::::::::::::::
         :: total free energy        -121.748388289308 Eh   ::
         ::.................................................::
         :: total energy             -122.298954514599 Eh   ::
         :: zero point energy           0.618980939963 Eh   ::
         :: G(RRHO) w/o ZPVE           -0.068414714671 Eh   ::
         :: G(RRHO) contrib.            0.550566225291 Eh   ::
         :::::::::::::::::::::::::::::::::::::::::::::::::::::

           -------------------------------------------------
          | TOTAL ENERGY             -122.298954514599 Eh   |
          | TOTAL ENTHALPY           -121.639721358041 Eh   |
          | TOTAL FREE ENERGY        -121.748388289308 Eh   |
          | GRADIENT NORM               0.000053778022 Eh/α |
          | HOMO-LUMO GAP               1.932119851870 eV   |
           -------------------------------------------------

 * finished run on 2025/07/18 at 16:55:02.858
