   * xtb version 6.7.1 (edcfbbe) compiled by 'albert@albert-system' on 2024-07-22

   ID    Z sym.   atoms
    1    6 C      1-7, 9, 11-23, 25-36, 38-48
    2    7 N      8, 10, 24, 37
    3    1 H      49-80

          program call               : xtb data2507/toluene/2DPA-DPQ/2DPA-DPQ_toluene_T1_crest.xyz --gfn 2 --uhf 2 --gbsa toluene --ohess vtight --parallel 40 --molden --ceasefiles --namespace data2507/toluene/2DPA-DPQ/2DPA-DPQ_toluene_T1_finalOpt
      * Solvation model:               GBSA
        Solvent                        toluene
        Solvent mass                       9.2140E+01 g/mol
          :  Hamiltonian                  GFN2-xTB          :
 * total energy  :  -122.2296283 Eh     change       -0.1622098E-08 Eh
 * total energy  :  -122.2297104 Eh     change       -0.8204330E-04 Eh
 * total energy  :  -122.2297604 Eh     change       -0.4997476E-04 Eh
 * total energy  :  -122.2297856 Eh     change       -0.2525013E-04 Eh
 * total energy  :  -122.2298071 Eh     change       -0.2148282E-04 Eh
 * total energy  :  -122.2298383 Eh     change       -0.3119136E-04 Eh
 * total energy  :  -122.2298663 Eh     change       -0.2802055E-04 Eh
 * total energy  :  -122.2298890 Eh     change       -0.2268160E-04 Eh
 * total energy  :  -122.2299083 Eh     change       -0.1929545E-04 Eh
 * total energy  :  -122.2299131 Eh     change       -0.4800208E-05 Eh
 * total energy  :  -122.2299506 Eh     change       -0.5769363E-06 Eh
 * total energy  :  -122.2299510 Eh     change       -0.4121789E-06 Eh
 * total energy  :  -122.2299516 Eh     change       -0.6032965E-06 Eh
 * total energy  :  -122.2299521 Eh     change       -0.4637836E-06 Eh
 * total energy  :  -122.2299525 Eh     change       -0.4431647E-06 Eh
 * total energy  :  -122.2299530 Eh     change       -0.4442438E-06 Eh
 * total energy  :  -122.2299534 Eh     change       -0.4415625E-06 Eh
 * total energy  :  -122.2299538 Eh     change       -0.4274054E-06 Eh
 * total energy  :  -122.2299538 Eh     change       -0.3159059E-08 Eh
   *** GEOMETRY OPTIMIZATION CONVERGED AFTER 44 ITERATIONS ***

 final structure:
================
80
 xtb: 6.7.1 (edcfbbe)
C            7.23209683498547       -2.98429949562441        0.42998292365592
C            7.04123448203126       -2.12523495205631       -0.64032864634160
C            5.88530268687582       -1.37329602414374       -0.73307658267770
C            4.89824578074153       -1.46729274098203        0.24678907598062
C            3.65498928757478       -0.68727044760609        0.14588011481456
C            2.43719082508378       -1.34911992647670        0.31673370756065
C            1.21743645842857       -0.69623710584376        0.19310096708558
N            0.05005611724404       -1.30102079774213        0.43224840700544
C           -1.10673303300788       -0.66023445127454        0.24042791850451
N           -2.28838079902816       -1.34634668259232        0.51800345781076
C           -3.25825208825631       -0.74827195685748        1.32941051508127
C           -4.61475865916180       -1.01069516140435        1.12848282848285
C           -5.56290621407553       -0.40454902537834        1.92842877474043
C           -5.18119962979715        0.47980640091563        2.92609433648302
C           -3.83646203982738        0.74390041037144        3.12963242791542
C           -2.87998582763894        0.13110485827962        2.34322801561083
C           -2.38475836550244       -2.68449616894375        0.12295646517203
C           -1.72591743031493       -3.12933442542496       -1.02346699726465
C           -1.79526610739851       -4.45619367212806       -1.40070930459533
C           -2.52213160353631       -5.36351104121781       -0.64752846803337
C           -3.16806863604559       -4.93091996594346        0.49999978614435
C           -3.10002213295567       -3.60768339559686        0.88871940848244
C           -1.10622005321904        0.66291290210325       -0.23300059551765
N           -2.28740990628791        1.35042127742622       -0.50918432254817
C           -2.38188265428660        2.68856365184636       -0.11367150911125
C           -3.09661649441888        3.61287232345206       -0.87856373644365
C           -3.16287488890601        4.93602935698319       -0.48925205999212
C           -2.51565671850156        5.36740858038852        0.65800968014179
C           -1.78922050851364        4.45897359176887        1.41026002003297
C           -1.72161067250787        3.13220578266235        1.03238724695584
C           -3.25863123857221        0.75355584605582       -1.31984355294611
C           -4.61467547144319        1.01759690089672       -1.11790607794035
C           -5.56415411261719        0.41240595296486       -1.91699895880795
C           -5.18427270919575       -0.47255412717780       -2.91482369036410
C           -3.83999895548767       -0.73819243658418       -3.11941822287998
C           -2.88219752750047       -0.12639256484041       -2.33385875791526
N            0.05110667333761        1.30216800367514       -0.42666322394375
C            1.21808643463821        0.69554541439147       -0.19023152377308
C            2.43858174693877        1.34639060772158       -0.31720203309653
C            3.65575749713068        0.68242495786786       -0.15007402768605
C            4.90015255960896        1.46006009098682       -0.25511917807148
C            5.89059424678760        1.36372585178880        0.72109890534531
C            7.04787981068749        2.11305214971442        0.62418668084469
C            7.23670555049599        2.97188589728797       -0.44667261925617
C            6.25477564964867        3.08283952872126       -1.41739369593441
C            5.09415848802385        2.33764182539361       -1.32042475491786
C            5.09425825426912       -2.34504273404915        1.31158266279941
C            6.25355867911998       -3.09281948692248        1.40440411528648
H            8.13780402026511       -3.56830238565317        0.50283136869714
H            7.79640924484546       -2.04174716376471       -1.40862696889101
H            5.73670415825599       -0.71371047345060       -1.57552559909853
H            2.42121064526345       -2.40986087364339        0.51752214575298
H           -4.91297833541833       -1.68129103039598        0.33695932797502
H           -6.60856923591193       -0.61560773380125        1.76365618953514
H           -5.92637672527318        0.95791582857088        3.54278483063956
H           -3.52779942314837        1.42335622028337        3.90995337483306
H           -1.82872520190738        0.31047260028797        2.51974732789597
H           -1.15802201057396       -2.43124948089401       -1.61870939120893
H           -1.27994955353684       -4.78074350360365       -2.29263934260748
H           -2.57866531287099       -6.39853159717110       -0.94751282150879
H           -3.72153209442096       -5.63209581911659        1.10669854362657
H           -3.58199200109909       -3.28786851734786        1.80029547744518
H           -3.57957596812158        3.29397626338045       -1.78993891130883
H           -3.71592501092588        5.63809773380294       -1.09529474895510
H           -2.57084734249387        6.40236075930579        0.95848376617380
H           -1.27288222205000        4.78256412964061        2.30194857591687
H           -1.15399054426620        2.43322390477222        1.62683885429698
H           -4.91151375706790        1.68865368155492       -0.32625592306599
H           -6.60944124619912        0.62469195255559       -1.75141854857157
H           -5.93049385419036       -0.94993420615953       -3.53081700845332
H           -3.53273541611134       -1.41812174494677       -3.89988125324609
H           -1.83128601190858       -0.30702868150037       -2.51118129876162
H            2.42381028481110        2.40715563816648       -0.51794790951240
H            5.74361012085635        0.70433775060503        1.56398567249849
H            7.80574657855696        2.02769746281272        1.38962562385592
H            8.14347431856833        3.55381388022537       -0.52282982090568
H            6.39405344228423        3.75220983044736       -2.25435542905074
H            4.33471466047518        2.41622758637393       -2.08583790170603
H            4.33744853385381       -2.42178208644701        2.07979387793375
H            6.39446265759877       -3.76231304184159        2.24099357519740

          :  Hamiltonian                  GFN2-xTB          :
         :: gradient norm              0.000042736395 Eh/a0 ::
         :: HOMO-LUMO gap              1.032714363859 eV    ::
         :: SCC energy              -124.503438781598 Eh    ::
         :: -> dispersion             -0.121753730060 Eh    ::
         :: -> Gsolv                  -0.052676842814 Eh    ::
         :: repulsion energy           2.273484949503 Eh    ::

    * Orbital Energies and Occupations

         #    Occupation            Energy/Eh            Energy/eV
      -------------------------------------------------------------
         1        2.0000           -0.6902654             -18.7831
       ...           ...                  ...                  ...
       103        2.0000           -0.4172423             -11.3537
       104        2.0000           -0.4158671             -11.3163
       105        2.0000           -0.4138998             -11.2628
       106        2.0000           -0.4129003             -11.2356
       107        2.0000           -0.4080125             -11.1026
       108        2.0000           -0.4040982             -10.9961
       109        2.0000           -0.4025276             -10.9533
       110        2.0000           -0.3904318             -10.6242
       111        2.0000           -0.3880348             -10.5590
       112        2.0000           -0.3782714             -10.2933
       113        1.9401           -0.3660354              -9.9603
       114        1.0599           -0.3608047              -9.8180
       115        1.0000           -0.2936225              -7.9899 (HOMO)
       116                         -0.2556709              -6.9572 (LUMO)
       117                         -0.2463467              -6.7034
       118                         -0.2418433              -6.5809
       119                         -0.2413369              -6.5671
       120                         -0.2376340              -6.4663
       121                         -0.2333325              -6.3493
       122                         -0.2324284              -6.3247
       123                         -0.2297513              -6.2519
       124                         -0.2261605              -6.1541
       125                         -0.2246799              -6.1139
       126                         -0.2192731              -5.9667
       ...                                ...                  ...
       224                          0.6999442              19.0464
      -------------------------------------------------------------
                  HL-Gap            0.0379516 Eh            1.0327 eV

     #   Z          covCN         q      C6AA      α(0)
     1   6 C        2.920    -0.033    28.826     8.804
     2   6 C        2.918    -0.031    28.769     8.796
     3   6 C        2.924    -0.033    28.820     8.804
     4   6 C        2.977     0.012    27.747     8.641
     5   6 C        2.975    -0.004    28.125     8.699
     6   6 C        2.924    -0.073    29.816     8.955
     7   6 C        2.938     0.085    26.117     8.381
     8   7 N        1.849    -0.282    28.174     7.867
     9   6 C        2.884     0.139    24.966     8.192
    10   7 N        2.753    -0.079    22.777     7.088
    11   6 C        2.923     0.065    26.539     8.448
    12   6 C        2.922    -0.045    29.129     8.851
    13   6 C        2.919    -0.027    28.684     8.783
    14   6 C        2.919    -0.034    28.844     8.807
    15   6 C        2.919    -0.028    28.710     8.787
    16   6 C        2.923    -0.044    29.103     8.847
    17   6 C        2.926     0.072    26.381     8.423
    18   6 C        2.923    -0.042    29.036     8.837
    19   6 C        2.919    -0.029    28.714     8.787
    20   6 C        2.919    -0.036    28.884     8.813
    21   6 C        2.920    -0.028    28.709     8.786
    22   6 C        2.922    -0.048    29.191     8.860
    23   6 C        2.884     0.139    24.966     8.192
    24   7 N        2.753    -0.079    22.777     7.088
    25   6 C        2.926     0.072    26.381     8.423
    26   6 C        2.922    -0.048    29.191     8.860
    27   6 C        2.920    -0.028    28.709     8.786
    28   6 C        2.919    -0.036    28.884     8.813
    29   6 C        2.919    -0.029    28.715     8.787
    30   6 C        2.923    -0.042    29.037     8.837
    31   6 C        2.923     0.065    26.539     8.448
    32   6 C        2.922    -0.045    29.129     8.851
    33   6 C        2.919    -0.027    28.684     8.783
    34   6 C        2.919    -0.034    28.844     8.807
    35   6 C        2.919    -0.028    28.711     8.787
    36   6 C        2.923    -0.044    29.103     8.847
    37   7 N        1.849    -0.282    28.174     7.867
    38   6 C        2.938     0.085    26.117     8.381
    39   6 C        2.924    -0.073    29.816     8.955
    40   6 C        2.975    -0.004    28.125     8.699
    41   6 C        2.977     0.012    27.747     8.641
    42   6 C        2.924    -0.033    28.820     8.804
    43   6 C        2.918    -0.031    28.769     8.796
    44   6 C        2.920    -0.033    28.826     8.804
    45   6 C        2.918    -0.031    28.781     8.798
    46   6 C        2.925    -0.036    28.904     8.817
    47   6 C        2.925    -0.036    28.904     8.817
    48   6 C        2.918    -0.031    28.781     8.797
    49   1 H        0.926     0.034     2.535     2.490
    50   1 H        0.926     0.032     2.553     2.499
    51   1 H        0.926     0.026     2.638     2.540
    52   1 H        0.926     0.039     2.468     2.457
    53   1 H        0.926     0.041     2.442     2.444
    54   1 H        0.926     0.051     2.310     2.377
    55   1 H        0.926     0.049     2.334     2.389
    56   1 H        0.926     0.043     2.403     2.424
    57   1 H        0.926     0.019     2.745     2.591
    58   1 H        0.926     0.024     2.667     2.554
    59   1 H        0.926     0.041     2.432     2.439
    60   1 H        0.926     0.045     2.382     2.414
    61   1 H        0.926     0.047     2.362     2.403
    62   1 H        0.926     0.039     2.459     2.452
    63   1 H        0.926     0.039     2.459     2.452
    64   1 H        0.926     0.047     2.362     2.403
    65   1 H        0.926     0.045     2.382     2.414
    66   1 H        0.926     0.041     2.432     2.439
    67   1 H        0.926     0.024     2.667     2.554
    68   1 H        0.926     0.041     2.442     2.444
    69   1 H        0.926     0.051     2.310     2.377
    70   1 H        0.926     0.049     2.334     2.389
    71   1 H        0.926     0.043     2.404     2.424
    72   1 H        0.926     0.019     2.745     2.591
    73   1 H        0.926     0.039     2.468     2.457
    74   1 H        0.926     0.026     2.638     2.540
    75   1 H        0.926     0.032     2.553     2.499
    76   1 H        0.926     0.034     2.535     2.490
    77   1 H        0.926     0.033     2.544     2.494
    78   1 H        0.926     0.028     2.611     2.527
    79   1 H        0.926     0.028     2.611     2.527
    80   1 H        0.926     0.033     2.544     2.494

molecular dipole:
                 x           y           z       tot (Debye)
 q only:       -2.382       0.001       0.002
   full:       -2.199       0.001       0.002       5.591

 projected vibrational frequencies (cm⁻¹)
eigval :       -0.00    -0.00    -0.00    -0.00    -0.00     0.00
eigval :       13.29    14.88    16.10    27.50    29.24    42.10
eigval :       43.15    45.40    53.28    58.67    63.26    66.50
eigval :       68.29    77.84    78.19    81.62   107.61   109.45
eigval :      124.61   142.14   158.85   161.84   191.39   200.37
eigval :      210.05   232.17   234.15   236.41   246.24   259.73
eigval :      259.99   276.58   310.00   317.78   319.97   330.86
eigval :      366.89   369.68   371.27   372.89   375.47   380.90
eigval :      388.36   390.87   407.71   416.41   452.18   467.29
eigval :      468.35   475.68   483.79   497.02   507.77   518.85
eigval :      541.91   545.44   555.59   576.06   577.33   586.70
eigval :      587.73   587.85   588.55   589.19   592.56   609.42
eigval :      616.07   638.99   647.68   656.65   657.03   661.02
eigval :      663.76   667.12   676.88   679.40   686.74   702.40
eigval :      717.09   750.49   752.53   755.55   756.51   759.52
eigval :      760.51   795.00   812.81   828.11   838.47   860.19
eigval :      863.60   873.16   873.40   874.61   878.49   886.69
eigval :      890.99   896.02   897.68   898.60   901.78   904.72
eigval :      905.17   920.74   921.31   923.41   923.58   924.30
eigval :      924.64   925.37   925.94   926.66   927.65   927.71
eigval :      932.95   934.18   956.97   973.10   978.40   997.34
eigval :     1001.47  1006.20  1010.69  1072.98  1079.79  1080.10
eigval :     1082.85  1083.94  1084.05  1086.30  1117.44  1118.43
eigval :     1118.58  1119.96  1125.31  1127.98  1154.64  1175.42
eigval :     1175.65  1176.67  1176.79  1178.50  1178.68  1185.52
eigval :     1189.20  1192.56  1195.06  1197.19  1198.18  1201.62
eigval :     1208.32  1222.02  1243.58  1247.52  1266.25  1270.42
eigval :     1272.87  1275.47  1276.09  1280.30  1283.63  1286.51
eigval :     1302.27  1303.72  1303.93  1314.83  1314.97  1317.77
eigval :     1320.56  1325.29  1327.15  1328.23  1363.07  1391.80
eigval :     1392.04  1426.56  1428.86  1429.28  1430.73  1439.65
eigval :     1439.89  1451.34  1461.87  1462.18  1462.93  1469.79
eigval :     1474.71  1477.19  1501.89  1515.74  1569.43  1569.70
eigval :     1574.00  1574.63  1576.00  1576.62  1582.20  1582.55
eigval :     1588.03  1591.65  1593.73  1595.26  3065.47  3065.50
eigval :     3068.78  3068.95  3069.10  3069.28  3074.94  3075.27
eigval :     3079.59  3079.65  3080.88  3081.37  3081.39  3082.13
eigval :     3084.07  3084.59  3085.14  3085.52  3087.78  3087.89
eigval :     3089.59  3089.71  3091.85  3091.93  3095.23  3095.48
eigval :     3096.09  3097.65  3101.17  3101.67  3103.87  3104.08

   temp. (K)  partition function   enthalpy   heat capacity  entropy
                                   cal/mol     cal/K/mol   cal/K/mol   J/K/mol
 298.15  VIB  0.101E+19            22933.741    144.063    143.836
         ROT  0.345E+08              888.752      2.981     37.472
         INT  0.348E+26            23822.494    147.044    181.309
         TR   0.148E+29             1481.254      4.968     45.120
         TOT                       25303.7477   152.0117   226.4290   947.3791

       T/K    H(0)-H(T)+PV         H(T)/Eh          T*S/Eh         G(T)/Eh
   ------------------------------------------------------------------------
    298.15    0.403241E-01    0.656754E+00    0.107584E+00    0.549170E+00
   ------------------------------------------------------------------------

         :::::::::::::::::::::::::::::::::::::::::::::::::::::
         ::                  THERMODYNAMIC                  ::
         :::::::::::::::::::::::::::::::::::::::::::::::::::::
         :: total free energy        -121.680783952109 Eh   ::
         ::.................................................::
         :: total energy             -122.229953831095 Eh   ::
         :: zero point energy           0.616429528477 Eh   ::
         :: G(RRHO) w/o ZPVE           -0.067259649492 Eh   ::
         :: G(RRHO) contrib.            0.549169878986 Eh   ::
         :::::::::::::::::::::::::::::::::::::::::::::::::::::

           -------------------------------------------------
          | TOTAL ENERGY             -122.229953831095 Eh   |
          | TOTAL ENTHALPY           -121.573200213913 Eh   |
          | TOTAL FREE ENERGY        -121.680783952109 Eh   |
          | GRADIENT NORM               0.000042596783 Eh/α |
          | HOMO-LUMO GAP               1.032715298700 eV   |
           -------------------------------------------------

 * finished run on 2025/07/18 at 17:10:51.653
