   * xtb version 6.7.1 (edcfbbe) compiled by 'albert@albert-system' on 2024-07-22

   ID    Z sym.   atoms
    1    6 C      1-7, 9, 11-23, 25-36, 38-48
    2    7 N      8, 10, 24, 37
    3    1 H      49-80

          program call               : xtb data2507/toluene/2DPA-DPQ/2DPA-DPQ_toluene_S0_crest.xyz --gfn 2 --gbsa toluene --ohess vtight --parallel 40 --molden --ceasefiles --namespace data2507/toluene/2DPA-DPQ/2DPA-DPQ_toluene_S0_finalOpt
      * Solvation model:               GBSA
        Solvent                        toluene
        Solvent mass                       9.2140E+01 g/mol
          :  Hamiltonian                  GFN2-xTB          :
 * total energy  :  -122.2987673 Eh     change       -0.2294726E-08 Eh
 * total energy  :  -122.2988389 Eh     change       -0.7160359E-04 Eh
 * total energy  :  -122.2988712 Eh     change       -0.3235629E-04 Eh
 * total energy  :  -122.2988905 Eh     change       -0.1931162E-04 Eh
 * total energy  :  -122.2989106 Eh     change       -0.2010785E-04 Eh
 * total energy  :  -122.2989518 Eh     change       -0.4113784E-04 Eh
 * total energy  :  -122.2989675 Eh     change       -0.1576007E-04 Eh
 * total energy  :  -122.2989744 Eh     change       -0.6879214E-05 Eh
 * total energy  :  -122.2989781 Eh     change       -0.3710530E-05 Eh
 * total energy  :  -122.2989816 Eh     change       -0.3519154E-05 Eh
 * total energy  :  -122.2990019 Eh     change       -0.2959722E-06 Eh
 * total energy  :  -122.2990022 Eh     change       -0.2906783E-06 Eh
 * total energy  :  -122.2990025 Eh     change       -0.2353798E-06 Eh
 * total energy  :  -122.2990026 Eh     change       -0.1766161E-06 Eh
 * total energy  :  -122.2990028 Eh     change       -0.1278818E-06 Eh
 * total energy  :  -122.2990029 Eh     change       -0.1460742E-06 Eh
 * total energy  :  -122.2990031 Eh     change       -0.1494312E-06 Eh
 * total energy  :  -122.2990032 Eh     change       -0.1186636E-06 Eh
 * total energy  :  -122.2990032 Eh     change       -0.1024503E-08 Eh
   *** GEOMETRY OPTIMIZATION CONVERGED AFTER 44 ITERATIONS ***

 final structure:
================
80
 xtb: 6.7.1 (edcfbbe)
C            7.22212888564103       -2.94558361199224       -0.14138770184882
C            6.99549714458170       -1.92910809438737       -1.05496288119906
C            5.82517537952241       -1.19488979903534       -1.00368698951868
C            4.86115582145600       -1.46971082235935       -0.03684193166982
C            3.60036423847616       -0.70656431129204        0.01087621093330
C            2.40535488721114       -1.39162176538876        0.04233699619826
C            1.18313508501267       -0.70619783186142        0.03793340312355
N            0.01696620493704       -1.38261810241159        0.15541050760901
C           -1.10783634226898       -0.71385213313830        0.12875687416559
N           -2.26631065230523       -1.42852563560096        0.36725366883375
C           -3.30461540376612       -0.87909472865074        1.13592489638099
C           -4.62141700920733       -1.27574060723833        0.90852698584789
C           -5.64573371228629       -0.74545299942636        1.66747604834266
C           -5.37685144393505        0.19217242879202        2.65242266553882
C           -4.06961589326330        0.58255844707366        2.88795607991471
C           -3.03639087345034        0.04327138558882        2.14391163277957
C           -2.26211864406909       -2.82157209564283        0.13024490690974
C           -1.77367037593107       -3.32312326227112       -1.07187550105776
C           -1.78626479128393       -4.68365753194770       -1.31389518761150
C           -2.28922001092183       -5.55940428406549       -0.36560441488515
C           -2.77276827250977       -5.06395420524181        0.83365553756553
C           -2.75688660490665       -3.70440780212738        1.08552296811588
C           -1.10925549931870        0.71085390154659       -0.12977824907418
N           -2.26898658720968        1.42309769550568       -0.36919336933741
C           -2.26738860825615        2.81635302459673       -0.13313845322486
C           -2.76188410338864        3.69770271519367       -1.08991582491242
C           -2.78017830328012        5.05741454337364       -0.83912069492202
C           -2.29946570452258        5.55444402305131        0.36063064454502
C           -1.79686272940281        4.68016048200365        1.31046284813446
C           -1.78176511601829        3.31946454068368        1.06945336926990
C           -3.30597654635667        0.87153575289888       -1.13811030827697
C           -4.62352924971931        1.26606540498281       -0.91139938925154
C           -5.64666026233080        0.73371742418976       -1.67050616319378
C           -5.37581163739293       -0.20389525424992       -2.65492682477622
C           -4.06781308731579       -0.59209222401154       -2.88985724072398
C           -3.03578726091984       -0.05073183997353       -2.14565451025050
N            0.01415440461131        1.38203072461660       -0.15550834795483
C            1.18166885378645        0.70806361100444       -0.03730161906606
C            2.40246600637828        1.39602929298539       -0.04110501236998
C            3.59889218452584        0.71345990828138       -0.00920219982442
C            4.85810780899101        1.47917634774550        0.03885489865401
C            5.82260347979350        1.20610036059335        1.00572264897915
C            6.99145698376890        1.94263411858730        1.05721952710972
C            7.21611160262320        2.95976391475706        0.14388397167384
C            6.25875664386647        3.24483265976149       -0.81549074646462
C            5.08549156483671        2.51406112189117       -0.86464244553065
C            5.09053609533873       -2.50395527024397        0.86688144550480
C            6.26528729652927       -3.23235385470390        0.81799296694735
H            8.13963669829204       -3.51409358102286       -0.17882952581756
H            7.73397871151571       -1.70604002593923       -1.81119589663648
H            5.64813431734430       -0.40936443273272       -1.72368613613349
H            2.38531340005058       -2.47132901732509        0.05923133040516
H           -4.82850876270751       -1.99536454808750        0.13093209944366
H           -6.66137495622010       -1.05998119992577        1.48188329488929
H           -6.18026073291023        0.61068235346448        3.23863348040595
H           -3.84758661610149        1.30075588324084        3.66336658425712
H           -2.01164691360942        0.32101850435208        2.35144663795038
H           -1.37891794775737       -2.64447922026513       -1.81258387964171
H           -1.40456524083670       -5.06028842426751       -2.25134878809595
H           -2.30038489303631       -6.62112971858532       -0.55935650198486
H           -3.15847758099034       -5.73810719989589        1.58389924788549
H           -3.12560348069483       -3.32195475457477        2.02622601938190
H           -3.12846105834124        3.31393640772880       -2.03092372441438
H           -3.16559349610579        5.73044486810374       -1.59052227579782
H           -2.31253547027730        6.61629793833869        0.55357333663095
H           -1.41737253686075        5.05807648114232        2.24829644333185
H           -1.38728068741295        2.64191418304565        1.81130790813608
H           -4.83211627683146        1.98569593619878       -0.13420715306141
H           -6.66290053568428        1.04661631113022       -1.48544175764215
H           -6.17829167333888       -0.62403400866862       -3.24124698965899
H           -3.84423690325293       -1.31016548056524       -3.66493735772314
H           -2.01049387854330       -0.32675942704913       -2.35273761858636
H            2.38018231342980        2.47569255811039       -0.05801030760510
H            5.64707758922804        0.42009281361814        1.72556362073325
H            7.73033951148065        1.72087941283947        1.81344818809356
H            8.13246501053869        3.53012067849974        0.18153267642110
H            6.42624623950251        4.03863745541652       -1.52913865859790
H            4.34265313935947        2.72988065062267       -1.61982938778151
H            4.34806320890900       -2.72111686225415        1.62204375642328
H            6.43433432950005       -4.02562481553449        1.53186719935908

          :  Hamiltonian                  GFN2-xTB          :
         :: gradient norm              0.000019291880 Eh/a0 ::
         :: HOMO-LUMO gap              1.937480198363 eV    ::
         :: SCC energy              -124.577798817315 Eh    ::
         :: -> dispersion             -0.122308874781 Eh    ::
         :: -> Gsolv                  -0.053400263817 Eh    ::
         :: repulsion energy           2.278795624731 Eh    ::

    * Orbital Energies and Occupations

         #    Occupation            Energy/Eh            Energy/eV
      -------------------------------------------------------------
         1        2.0000           -0.6898238             -18.7711
       ...           ...                  ...                  ...
       102        2.0000           -0.4188476             -11.3974
       103        2.0000           -0.4170272             -11.3479
       104        2.0000           -0.4149009             -11.2900
       105        2.0000           -0.4139938             -11.2653
       106        2.0000           -0.4123875             -11.2216
       107        2.0000           -0.4112152             -11.1897
       108        2.0000           -0.4082049             -11.1078
       109        2.0000           -0.4059796             -11.0473
       110        2.0000           -0.3977610             -10.8236
       111        2.0000           -0.3926531             -10.6846
       112        2.0000           -0.3780889             -10.2883
       113        2.0000           -0.3642700              -9.9123
       114        2.0000           -0.3595112              -9.7828 (HOMO)
       115                         -0.2883101              -7.8453 (LUMO)
       116                         -0.2578083              -7.0153
       117                         -0.2456187              -6.6836
       118                         -0.2396562              -6.5214
       119                         -0.2382867              -6.4841
       120                         -0.2381336              -6.4799
       121                         -0.2325632              -6.3284
       122                         -0.2320001              -6.3130
       123                         -0.2316338              -6.3031
       124                         -0.2309161              -6.2835
       125                         -0.2277170              -6.1965
       ...                                ...                  ...
       224                          0.6965953              18.9553
      -------------------------------------------------------------
                  HL-Gap            0.0712011 Eh            1.9375 eV

     #   Z          covCN         q      C6AA      α(0)
     1   6 C        2.920    -0.031    28.776     8.797
     2   6 C        2.919    -0.030    28.745     8.792
     3   6 C        2.924    -0.032    28.788     8.799
     4   6 C        2.978     0.012    27.743     8.640
     5   6 C        2.976     0.002    27.970     8.675
     6   6 C        2.924    -0.057    29.421     8.895
     7   6 C        2.959     0.074    26.349     8.419
     8   7 N        1.852    -0.311    28.899     7.968
     9   6 C        2.895     0.168    24.391     8.097
    10   7 N        2.757    -0.100    23.196     7.153
    11   6 C        2.925     0.068    26.488     8.440
    12   6 C        2.923    -0.046    29.154     8.854
    13   6 C        2.920    -0.028    28.703     8.786
    14   6 C        2.919    -0.036    28.889     8.814
    15   6 C        2.919    -0.030    28.745     8.792
    16   6 C        2.922    -0.046    29.137     8.852
    17   6 C        2.929     0.075    26.321     8.414
    18   6 C        2.923    -0.038    28.944     8.823
    19   6 C        2.920    -0.029    28.724     8.789
    20   6 C        2.919    -0.035    28.871     8.811
    21   6 C        2.920    -0.029    28.723     8.789
    22   6 C        2.922    -0.046    29.138     8.852
    23   6 C        2.895     0.168    24.391     8.097
    24   7 N        2.757    -0.100    23.196     7.153
    25   6 C        2.929     0.075    26.321     8.414
    26   6 C        2.922    -0.046    29.137     8.852
    27   6 C        2.920    -0.029    28.723     8.789
    28   6 C        2.919    -0.035    28.870     8.811
    29   6 C        2.920    -0.029    28.724     8.789
    30   6 C        2.923    -0.038    28.944     8.823
    31   6 C        2.925     0.068    26.488     8.440
    32   6 C        2.923    -0.046    29.154     8.854
    33   6 C        2.920    -0.028    28.703     8.786
    34   6 C        2.919    -0.036    28.889     8.814
    35   6 C        2.919    -0.030    28.745     8.792
    36   6 C        2.922    -0.046    29.137     8.852
    37   7 N        1.852    -0.311    28.900     7.968
    38   6 C        2.959     0.074    26.348     8.419
    39   6 C        2.924    -0.057    29.421     8.895
    40   6 C        2.976     0.002    27.970     8.675
    41   6 C        2.978     0.012    27.743     8.640
    42   6 C        2.924    -0.032    28.788     8.799
    43   6 C        2.919    -0.030    28.745     8.792
    44   6 C        2.920    -0.031    28.776     8.797
    45   6 C        2.918    -0.030    28.751     8.793
    46   6 C        2.925    -0.035    28.864     8.811
    47   6 C        2.925    -0.035    28.864     8.811
    48   6 C        2.918    -0.030    28.751     8.793
    49   1 H        0.926     0.037     2.487     2.466
    50   1 H        0.926     0.036     2.506     2.476
    51   1 H        0.926     0.029     2.604     2.524
    52   1 H        0.926     0.043     2.404     2.425
    53   1 H        0.926     0.036     2.500     2.472
    54   1 H        0.926     0.049     2.329     2.386
    55   1 H        0.926     0.048     2.345     2.395
    56   1 H        0.926     0.041     2.429     2.437
    57   1 H        0.925     0.011     2.880     2.654
    58   1 H        0.926     0.025     2.663     2.552
    59   1 H        0.926     0.043     2.411     2.428
    60   1 H        0.926     0.046     2.373     2.409
    61   1 H        0.926     0.045     2.377     2.411
    62   1 H        0.926     0.033     2.542     2.493
    63   1 H        0.926     0.033     2.542     2.493
    64   1 H        0.926     0.046     2.377     2.411
    65   1 H        0.926     0.046     2.373     2.409
    66   1 H        0.926     0.043     2.411     2.428
    67   1 H        0.926     0.025     2.663     2.552
    68   1 H        0.926     0.036     2.500     2.472
    69   1 H        0.926     0.049     2.329     2.386
    70   1 H        0.926     0.048     2.345     2.395
    71   1 H        0.926     0.041     2.429     2.437
    72   1 H        0.925     0.011     2.880     2.654
    73   1 H        0.926     0.043     2.404     2.425
    74   1 H        0.926     0.029     2.604     2.524
    75   1 H        0.926     0.036     2.506     2.476
    76   1 H        0.926     0.037     2.487     2.466
    77   1 H        0.926     0.036     2.498     2.471
    78   1 H        0.926     0.030     2.583     2.513
    79   1 H        0.926     0.030     2.583     2.513
    80   1 H        0.926     0.036     2.498     2.471

molecular dipole:
                 x           y           z       tot (Debye)
 q only:       -1.173      -0.000      -0.001
   full:       -1.031      -0.000      -0.001       2.621

 projected vibrational frequencies (cm⁻¹)
eigval :       -0.00    -0.00    -0.00     0.00     0.00     0.00
eigval :       10.28    12.73    14.68    16.27    27.76    38.32
eigval :       39.63    42.99    48.25    55.40    61.69    64.77
eigval :       66.14    69.52    78.98    84.07    88.01    96.55
eigval :      120.77   143.78   157.42   161.45   191.14   201.23
eigval :      207.58   231.51   240.42   242.10   244.91   247.79
eigval :      275.56   282.90   306.11   316.67   341.18   355.49
eigval :      370.73   372.10   373.52   374.90   376.66   378.18
eigval :      383.86   386.83   419.11   446.18   452.13   457.54
eigval :      471.10   479.38   489.58   500.25   507.88   527.85
eigval :      541.73   559.75   570.45   579.73   584.23   588.31
eigval :      589.35   590.54   591.05   593.79   593.81   614.64
eigval :      648.98   650.23   658.59   661.12   661.67   668.69
eigval :      673.41   678.31   688.03   697.50   720.10   726.30
eigval :      736.60   754.83   756.05   757.09   757.24   761.15
eigval :      762.50   838.78   854.96   861.84   868.65   869.53
eigval :      872.88   873.45   875.02   877.00   880.63   891.03
eigval :      891.58   894.26   895.59   901.44   903.46   904.44
eigval :      907.25   922.82   923.79   924.99   925.42   926.05
eigval :      926.94   927.61   927.64   929.45   929.71   931.66
eigval :      931.81   932.40   958.40   972.86   982.05   997.35
eigval :     1003.73  1010.83  1015.96  1069.53  1081.08  1081.60
eigval :     1083.29  1083.42  1083.67  1085.84  1119.48  1119.73
eigval :     1120.37  1120.47  1122.81  1123.85  1170.76  1176.80
eigval :     1177.34  1177.53  1177.92  1180.15  1180.17  1190.41
eigval :     1193.31  1193.69  1195.80  1197.63  1199.01  1206.20
eigval :     1207.80  1236.94  1252.61  1262.38  1272.63  1274.45
eigval :     1277.89  1278.40  1281.31  1281.52  1290.20  1299.16
eigval :     1304.02  1309.81  1315.27  1316.69  1318.35  1318.97
eigval :     1325.33  1325.93  1346.94  1395.57  1417.48  1426.05
eigval :     1430.31  1431.62  1432.08  1436.08  1441.44  1445.17
eigval :     1466.33  1467.61  1471.03  1471.63  1473.21  1478.36
eigval :     1489.27  1501.52  1527.14  1577.56  1579.42  1579.86
eigval :     1580.47  1584.88  1585.08  1586.52  1591.98  1592.09
eigval :     1596.85  1597.26  1597.60  1599.20  3057.48  3057.63
eigval :     3067.20  3067.32  3071.73  3072.28  3076.83  3077.36
eigval :     3077.59  3077.62  3078.08  3078.10  3082.53  3082.67
eigval :     3082.78  3083.41  3085.76  3085.87  3086.12  3086.52
eigval :     3086.74  3086.93  3091.29  3091.31  3091.59  3091.61
eigval :     3094.26  3094.83  3099.22  3099.27  3102.93  3103.07

   temp. (K)  partition function   enthalpy   heat capacity  entropy
                                   cal/mol     cal/K/mol   cal/K/mol   J/K/mol
 298.15  VIB  0.499E+19            22841.508    142.107    144.528
         ROT  0.346E+08              888.752      2.981     37.481
         INT  0.173E+27            23730.260    145.088    182.008
         TR   0.148E+29             1481.254      4.968     45.120
         TOT                       25211.5143   150.0561   227.1287   950.3064

       T/K    H(0)-H(T)+PV         H(T)/Eh          T*S/Eh         G(T)/Eh
   ------------------------------------------------------------------------
    298.15    0.401771E-01    0.659287E+00    0.107916E+00    0.551371E+00
   ------------------------------------------------------------------------

         :::::::::::::::::::::::::::::::::::::::::::::::::::::
         ::                  THERMODYNAMIC                  ::
         :::::::::::::::::::::::::::::::::::::::::::::::::::::
         :: total free energy        -121.747632261097 Eh   ::
         ::.................................................::
         :: total energy             -122.299003191404 Eh   ::
         :: zero point energy           0.619109995901 Eh   ::
         :: G(RRHO) w/o ZPVE           -0.067739065594 Eh   ::
         :: G(RRHO) contrib.            0.551370930306 Eh   ::
         :::::::::::::::::::::::::::::::::::::::::::::::::::::

           -------------------------------------------------
          | TOTAL ENERGY             -122.299003191404 Eh   |
          | TOTAL ENTHALPY           -121.639716090135 Eh   |
          | TOTAL FREE ENERGY        -121.747632261097 Eh   |
          | GRADIENT NORM               0.000019292150 Eh/α |
          | HOMO-LUMO GAP               1.937480215365 eV   |
           -------------------------------------------------

 * finished run on 2025/07/18 at 17:02:15.407
