   * xtb version 6.7.1 (edcfbbe) compiled by 'albert@albert-system' on 2024-07-22

   ID    Z sym.   atoms
    1    9 F      1
    2    6 C      2-4, 6-19, 21-23, 25-30, 32-37
    3    7 N      5, 20, 24
    4    8 O      31
    5    1 H      38-57

          program call               : xtb data2507/gas/FDQPXZ/FDQPXZ.xyz --gfn 2 --ohess vtight --parallel 40 --molden --ceasefiles --namespace data2507/gas/FDQPXZ/FDQPXZ_gas_S0_preOpt
          :  Hamiltonian                  GFN2-xTB          :
 * total energy  :   -96.2888870 Eh     change       -0.1589328E-08 Eh
 * total energy  :   -96.3005754 Eh     change       -0.1168840E-01 Eh
 * total energy  :   -96.3045516 Eh     change       -0.3976268E-02 Eh
 * total energy  :   -96.3055453 Eh     change       -0.9937250E-03 Eh
 * total energy  :   -96.3062806 Eh     change       -0.7352341E-03 Eh
 * total energy  :   -96.3064828 Eh     change       -0.2021707E-03 Eh
 * total energy  :   -96.3066264 Eh     change       -0.1436485E-03 Eh
 * total energy  :   -96.3067650 Eh     change       -0.1386189E-03 Eh
 * total energy  :   -96.3069018 Eh     change       -0.1367442E-03 Eh
 * total energy  :   -96.3070223 Eh     change       -0.1205742E-03 Eh
 * total energy  :   -96.3087460 Eh     change       -0.1304294E-05 Eh
 * total energy  :   -96.3087471 Eh     change       -0.1122821E-05 Eh
 * total energy  :   -96.3087480 Eh     change       -0.9349618E-06 Eh
 * total energy  :   -96.3087488 Eh     change       -0.7283972E-06 Eh
 * total energy  :   -96.3087494 Eh     change       -0.6485066E-06 Eh
 * total energy  :   -96.3087501 Eh     change       -0.7005268E-06 Eh
 * total energy  :   -96.3087510 Eh     change       -0.8881927E-06 Eh
 * total energy  :   -96.3087522 Eh     change       -0.1200631E-05 Eh
 * total energy  :   -96.3087522 Eh     change       -0.5193726E-08 Eh
   *** GEOMETRY OPTIMIZATION CONVERGED AFTER 94 ITERATIONS ***

 final structure:
================
57
 xtb: 6.7.1 (edcfbbe)
F           -2.82171976467783       -2.05559037691282        1.94686361363861
C           -1.82841823403216       -1.41706454050424        1.29794476877766
C           -0.53378313164816       -1.72634509101353        1.59280671486555
C            0.49788790547177       -1.03234535637477        0.93095506246615
N            1.78170352672429       -1.36410412841298        1.14564371164208
C            2.72165169353103       -0.69118425388172        0.52309954153657
C            4.09674817960356       -1.17348283800080        0.69195430193837
C            4.98123431993599       -1.22963978795984       -0.38326939584388
C            6.26718077806467       -1.70004860678591       -0.19783180788764
C            6.68532628702273       -2.11610395975099        1.05599116793783
C            5.80429352143581       -2.08072915557692        2.12445465757259
C            4.51408058529881       -1.62037170728144        1.94348308605894
C            2.39081361851946        0.43885030108603       -0.29668602177638
C            3.40716096766753        1.34542343342369       -0.84357596461480
C            4.49614488746943        1.75663417956054       -0.07795845398286
C            5.43122629107102        2.62179940640763       -0.61329347615317
C            5.29343988658150        3.08306547518430       -1.91261547116723
C            4.20251255871723        2.69258810830267       -2.67179508815352
C            3.25878687478536        1.83534314902264       -2.13880484889469
N            1.14038025751943        0.72576001881770       -0.56956322828539
C            0.16662462250553       -0.00890235458348        0.00026323833324
C           -1.18064832446123        0.26295524030967       -0.29327787023675
C           -2.18425730474032       -0.42612763253912        0.34691806052189
N           -3.53940825113782       -0.15623275058230        0.10033504970909
C           -4.37316200749635       -1.16775175516692       -0.38903933400524
C           -3.87148985842211       -2.38542849546381       -0.82882276099993
C           -4.72148629779539       -3.36898854559977       -1.31014574724810
C           -6.08140389597770       -3.14310874083086       -1.37638770154952
C           -6.59268017526975       -1.91698516630896       -0.97857189963003
C           -5.74916244358632       -0.93384991188033       -0.49540041115839
O           -6.31849350064753        0.26565744827764       -0.15146342329603
C           -5.48219871604452        1.26531202028654        0.27484213849202
C           -6.06981691065911        2.47843759741666        0.58488739700297
C           -5.29971048126100        3.53114501124597        1.05475284498578
C           -3.94130098575154        3.35633874304924        1.22361724419990
C           -3.34562017486103        2.14406073139780        0.91015502558693
C           -4.09923121518747        1.08752208483888        0.41609784927872
H           -0.29103706795638       -2.48392712463863        2.31986346251089
H            4.65554756191224       -0.92191448545783       -1.36610320715512
H            6.94656773594694       -1.74330381226594       -1.03624501507973
H            7.69411638588724       -2.47464507381771        1.19759820074211
H            6.12409715343253       -2.41508979822598        3.10041276981351
H            3.81558790479693       -1.59128601570352        2.76575662469267
H            4.59991464779569        1.41249226369616        0.94064030734738
H            6.27150761403000        2.93856502635128       -0.01335363663062
H            6.03167225929267        3.75201636827381       -2.32948611585556
H            4.08667119546791        3.05955681294088       -3.68100447680589
H            2.40133166243499        1.52648569759825       -2.71700186539277
H           -1.41016194196528        1.02540953229448       -1.02099793477390
H           -2.80813675884824       -2.56903197553307       -0.79921016210614
H           -4.30720929350244       -4.31056518235973       -1.63585276122049
H           -6.74754744749070       -3.90669571468949       -1.74580902944246
H           -7.64768333808645       -1.70189898552107       -1.03607008879418
H           -7.13637558960916        2.57400023351483        0.45880948565659
H           -5.76727450182447        4.47321170803410        1.29357622893589
H           -3.32950648345515        4.15970173106840        1.60396044683109
H           -2.28528678652870        2.02041100122223        1.06395219705359

          :  Hamiltonian                  GFN2-xTB          :
         :: gradient norm              0.000058273220 Eh/a0 ::
         :: HOMO-LUMO gap              1.139790793183 eV    ::
         :: SCC energy               -97.943699473058 Eh    ::
         :: -> dispersion             -0.078025944598 Eh    ::
         :: repulsion energy           1.634947276064 Eh    ::

    * Orbital Energies and Occupations

         #    Occupation            Energy/Eh            Energy/eV
      -------------------------------------------------------------
         1        2.0000           -0.8265090             -22.4905
       ...           ...                  ...                  ...
        76        2.0000           -0.4263032             -11.6003
        77        2.0000           -0.4257175             -11.5844
        78        2.0000           -0.4220609             -11.4849
        79        2.0000           -0.4210003             -11.4560
        80        2.0000           -0.4163347             -11.3290
        81        2.0000           -0.4145881             -11.2815
        82        2.0000           -0.4120354             -11.2121
        83        2.0000           -0.4119002             -11.2084
        84        2.0000           -0.4091224             -11.1328
        85        2.0000           -0.3965299             -10.7901
        86        2.0000           -0.3893834             -10.5957
        87        2.0000           -0.3597020              -9.7880
        88        2.0000           -0.3443391              -9.3699 (HOMO)
        89                         -0.3024526              -8.2302 (LUMO)
        90                         -0.2719861              -7.4011
        91                         -0.2373261              -6.4580
        92                         -0.2349004              -6.3920
        93                         -0.2347750              -6.3886
        94                         -0.2297133              -6.2508
        95                         -0.2286458              -6.2218
        96                         -0.2283674              -6.2142
        97                         -0.2184256              -5.9437
        98                         -0.2129329              -5.7942
        99                         -0.1953807              -5.3166
       ...                                ...                  ...
       168                          0.6862303              18.6733
      -------------------------------------------------------------
                  HL-Gap            0.0418865 Eh            1.1398 eV

     #   Z          covCN         q      C6AA      α(0)
     1   9 F        0.787    -0.213    11.369     3.983
     2   6 C        2.783     0.159    24.556     8.117
     3   6 C        2.914    -0.063    29.574     8.918
     4   6 C        2.968     0.077    26.285     8.410
     5   7 N        1.852    -0.228    26.840     7.678
     6   6 C        2.951     0.087    26.064     8.373
     7   6 C        2.982     0.008    27.829     8.653
     8   6 C        2.923    -0.029    28.719     8.788
     9   6 C        2.919    -0.028    28.689     8.783
    10   6 C        2.920    -0.027    28.669     8.780
    11   6 C        2.919    -0.027    28.677     8.782
    12   6 C        2.925    -0.025    28.637     8.776
    13   6 C        2.950     0.088    26.042     8.370
    14   6 C        2.982     0.008    27.830     8.653
    15   6 C        2.923    -0.029    28.717     8.788
    16   6 C        2.919    -0.027    28.688     8.783
    17   6 C        2.920    -0.027    28.669     8.780
    18   6 C        2.919    -0.027    28.678     8.782
    19   6 C        2.925    -0.025    28.637     8.776
    20   7 N        1.852    -0.230    26.886     7.685
    21   6 C        2.961     0.074    26.348     8.419
    22   6 C        2.923    -0.058    29.451     8.900
    23   6 C        2.915     0.053    26.815     8.491
    24   7 N        2.751    -0.058    22.356     7.022
    25   6 C        2.924     0.047    26.947     8.513
    26   6 C        2.924    -0.052    29.287     8.875
    27   6 C        2.919    -0.037    28.921     8.819
    28   6 C        2.919    -0.038    28.946     8.823
    29   6 C        2.920    -0.055    29.367     8.887
    30   6 C        2.884     0.127    25.219     8.233
    31   8 O        1.709    -0.251    18.156     5.753
    32   6 C        2.884     0.127    25.213     8.232
    33   6 C        2.920    -0.055    29.375     8.888
    34   6 C        2.919    -0.039    28.967     8.826
    35   6 C        2.919    -0.038    28.937     8.821
    36   6 C        2.923    -0.059    29.469     8.902
    37   6 C        2.921     0.043    27.045     8.528
    38   1 H        0.926     0.080     1.984     2.203
    39   1 H        0.926     0.030     2.580     2.512
    40   1 H        0.926     0.035     2.518     2.482
    41   1 H        0.926     0.036     2.504     2.475
    42   1 H        0.926     0.037     2.485     2.465
    43   1 H        0.926     0.048     2.345     2.395
    44   1 H        0.926     0.031     2.577     2.511
    45   1 H        0.926     0.035     2.516     2.480
    46   1 H        0.926     0.036     2.504     2.474
    47   1 H        0.926     0.037     2.487     2.466
    48   1 H        0.926     0.047     2.352     2.398
    49   1 H        0.926     0.070     2.081     2.256
    50   1 H        0.926     0.032     2.562     2.503
    51   1 H        0.926     0.038     2.478     2.462
    52   1 H        0.926     0.040     2.454     2.450
    53   1 H        0.926     0.052     2.299     2.371
    54   1 H        0.926     0.052     2.294     2.369
    55   1 H        0.926     0.040     2.455     2.450
    56   1 H        0.926     0.038     2.480     2.463
    57   1 H        0.926     0.036     2.505     2.475

molecular dipole:
                 x           y           z       tot (Debye)
 q only:        1.358       0.402      -0.453
   full:        1.457       0.370      -0.411       3.960

 projected vibrational frequencies (cm⁻¹)
eigval :       -0.00    -0.00     0.00     0.00     0.00     0.00
eigval :       13.37    19.68    24.57    39.99    43.92    48.84
eigval :       54.73    61.78    75.28    77.84   115.90   132.13
eigval :      138.70   147.54   167.17   203.51   217.66   246.05
eigval :      249.52   253.28   260.91   264.39   286.62   311.54
eigval :      323.35   355.40   367.12   373.78   376.52   392.21
eigval :      406.42   428.33   434.45   439.70   444.71   463.79
eigval :      474.99   496.26   509.90   520.88   524.89   533.28
eigval :      556.19   574.58   583.09   587.21   592.59   594.07
eigval :      617.63   648.58   656.40   661.27   663.64   666.84
eigval :      674.63   691.28   697.05   716.18   748.82   753.34
eigval :      765.99   777.32   778.87   779.66   794.66   845.32
eigval :      849.29   856.03   863.18   866.16   875.78   876.92
eigval :      882.50   897.83   900.61   902.55   905.84   911.52
eigval :      915.27   916.77   919.94   928.04   929.10   932.11
eigval :      932.91   943.61   975.48  1019.48  1079.20  1082.41
eigval :     1087.76  1090.76  1096.47  1099.58  1109.96  1119.39
eigval :     1120.45  1140.27  1166.50  1175.74  1181.18  1181.26
eigval :     1182.15  1186.97  1194.49  1196.64  1203.40  1207.45
eigval :     1243.70  1250.17  1263.29  1266.71  1268.72  1276.91
eigval :     1281.07  1286.66  1311.73  1319.62  1321.99  1332.04
eigval :     1339.77  1350.81  1386.41  1419.71  1422.32  1426.40
eigval :     1434.26  1436.79  1444.59  1464.98  1476.46  1477.63
eigval :     1486.78  1501.34  1511.44  1526.74  1569.45  1580.01
eigval :     1580.51  1580.93  1589.47  1593.63  1594.64  1597.04
eigval :     1602.78  3076.20  3076.54  3079.38  3079.80  3086.81
eigval :     3087.08  3087.10  3090.40  3093.90  3094.38  3094.60
eigval :     3099.62  3099.86  3099.99  3103.48  3107.23  3107.89
eigval :     3113.22  3113.96  3118.87

   temp. (K)  partition function   enthalpy   heat capacity  entropy
                                   cal/mol     cal/K/mol   cal/K/mol   J/K/mol
 298.15  VIB  0.157E+13            16272.875    104.608    100.090
         ROT  0.387E+08              888.752      2.981     37.703
         INT  0.608E+20            17161.627    107.589    137.793
         TR   0.102E+29             1481.254      4.968     44.383
         TOT                       18642.8812   112.5569   182.1762   762.2252

       T/K    H(0)-H(T)+PV         H(T)/Eh          T*S/Eh         G(T)/Eh
   ------------------------------------------------------------------------
    298.15    0.297093E-01    0.452029E+00    0.865578E-01    0.365471E+00
   ------------------------------------------------------------------------

         :::::::::::::::::::::::::::::::::::::::::::::::::::::
         ::                  THERMODYNAMIC                  ::
         :::::::::::::::::::::::::::::::::::::::::::::::::::::
         :: total free energy         -95.943281308884 Eh   ::
         ::.................................................::
         :: total energy              -96.308752196994 Eh   ::
         :: zero point energy           0.422319352437 Eh   ::
         :: G(RRHO) w/o ZPVE           -0.056848464328 Eh   ::
         :: G(RRHO) contrib.            0.365470888110 Eh   ::
         :::::::::::::::::::::::::::::::::::::::::::::::::::::

           -------------------------------------------------
          | TOTAL ENERGY              -96.308752196994 Eh   |
          | TOTAL ENTHALPY            -95.856723522286 Eh   |
          | TOTAL FREE ENERGY         -95.943281308884 Eh   |
          | GRADIENT NORM               0.000058274555 Eh/α |
          | HOMO-LUMO GAP               1.139789947627 eV   |
           -------------------------------------------------

 * finished run on 2025/07/18 at 17:11:15.918
