   * xtb version 6.7.1 (edcfbbe) compiled by 'albert@albert-system' on 2024-07-22

   ID    Z sym.   atoms
    1    9 F      1
    2    6 C      2-4, 6-19, 21-23, 25-30, 32-37
    3    7 N      5, 20, 24
    4    8 O      31
    5    1 H      38-57

          program call               : xtb data2507/gas/FDQPXZ/FDQPXZ_gas_S0_crest.xyz --gfn 2 --ohess vtight --parallel 40 --molden --ceasefiles --namespace data2507/gas/FDQPXZ/FDQPXZ_gas_S0_finalOpt
          :  Hamiltonian                  GFN2-xTB          :
 * total energy  :   -96.3088212 Eh     change       -0.1176190E-08 Eh
 * total energy  :   -96.3088218 Eh     change       -0.5682298E-06 Eh
 * total energy  :   -96.3088222 Eh     change       -0.3863376E-06 Eh
 * total energy  :   -96.3088228 Eh     change       -0.6774861E-06 Eh
 * total energy  :   -96.3088231 Eh     change       -0.2042809E-06 Eh
 * total energy  :   -96.3088231 Eh     change       -0.2566185E-07 Eh
   *** GEOMETRY OPTIMIZATION CONVERGED AFTER 6 ITERATIONS ***

 final structure:
================
57
 xtb: 6.7.1 (edcfbbe)
F           -2.53353633126712        2.43454413956860        1.05337298755128
C           -1.52185507076640        1.63023915938810        0.67180096796874
C           -0.23696202761676        2.05619241663516        0.83362657612221
C            0.81579927534444        1.19162988081391        0.47566697870689
N            2.09017753155270        1.54354819569306        0.71051251428736
C            3.05010678639939        0.72239891368812        0.35188460999792
C            4.41154171698067        1.08261914434423        0.76105622820066
C            5.30293018888635        0.11985781887425        1.23071879111893
C            6.57426093811279        0.48813410601057        1.62722170182669
C            6.97116742553314        1.81397064932845        1.55891967776421
C            6.08322367179542        2.77809493920160        1.11035293666526
C            4.80737475074764        2.41759882736851        0.72115159195842
C            2.74917690055804       -0.47792888175146       -0.37463112779828
C            3.78469420638874       -1.30069509526862       -1.00960600257925
C            4.86626608222533       -0.71875419595156       -1.66772010005880
C            5.81893914749576       -1.51604099857710       -2.27274046850394
C            5.70625429690599       -2.89634904763328       -2.22741187524468
C            4.62330107471759       -3.48005374103599       -1.59057882088912
C            3.66235060816829       -2.68805369182897       -0.99169625197095
N            1.50800079792428       -0.87484304511485       -0.52517486789427
C            0.51467049205725       -0.08402724621566       -0.07785111966367
C           -0.82322780131226       -0.48835929052624       -0.22146455812280
C           -1.84772675426799        0.35214119222459        0.14834517693985
N           -3.19343314845809       -0.02547285664170        0.02721693911072
C           -3.71181710754549       -1.10806577382500        0.74762195376233
C           -2.92563206570802       -1.90966015580186        1.56487236939602
C           -3.48103989418637       -2.96486691743984        2.27245013131890
C           -4.83160603430490       -3.23317027193393        2.18055847917647
C           -5.63468824955347       -2.42693193090261        1.38884030480397
C           -5.08733404015715       -1.36959837529693        0.68476904786962
O           -5.95565410758623       -0.59973405806947       -0.04536582945909
C           -5.42462481722859        0.42427653356373       -0.78731097171976
C           -6.29833948057078        1.15161314835373       -1.57431199407208
C           -5.82619806512149        2.17939917454511       -2.37644875830213
C           -4.47424108968213        2.45562240919969       -2.40543292616779
C           -3.59420526295264        1.72696031671669       -1.62068162225270
C           -4.05742264150165        0.72408803494651       -0.77942709527135
H           -0.01758558607927        3.02335487805198        1.25547949404723
H            4.99317243863841       -0.91247334125030        1.30220884310608
H            7.25867259340572       -0.26298679187587        1.99301917864278
H            7.96866348511999        2.09551396110873        1.86224606670170
H            6.38651488243229        3.81379264469508        1.06640872400475
H            4.10350323635259        3.15848378491294        0.37413095738118
H            4.95039772027303        0.35684760923898       -1.72007500223991
H            6.65314653753061       -1.05812889259643       -2.78339915014918
H            6.45775051357099       -3.51528910643642       -2.69479409851341
H            4.52708736133491       -4.55551534977618       -1.56368828918819
H            2.81059157066931       -3.12867220039000       -0.49654646460076
H           -1.02976951609031       -1.45862110972450       -0.64519602054493
H           -1.87142971176696       -1.70391661724508        1.66258534270487
H           -2.84454482753227       -3.57137800367532        2.89809285938456
H           -5.26781513182502       -4.05529396191674        2.72549857874256
H           -6.69672843200493       -2.59526084756647        1.30949701837579
H           -7.34553073540023        0.89646526623511       -1.54488425064499
H           -6.51572174012668        2.74683944052965       -2.98127022398286
H           -4.08962155348951        3.23769293193057       -3.04158203826972
H           -2.53735778621897        1.94131106850072       -1.66815165643335

          :  Hamiltonian                  GFN2-xTB          :
         :: gradient norm              0.000089309603 Eh/a0 ::
         :: HOMO-LUMO gap              1.162568435136 eV    ::
         :: SCC energy               -97.943797304095 Eh    ::
         :: -> dispersion             -0.078005139902 Eh    ::
         :: repulsion energy           1.634974227796 Eh    ::

    * Orbital Energies and Occupations

         #    Occupation            Energy/Eh            Energy/eV
      -------------------------------------------------------------
         1        2.0000           -0.8262169             -22.4825
       ...           ...                  ...                  ...
        76        2.0000           -0.4275276             -11.6336
        77        2.0000           -0.4246708             -11.5559
        78        2.0000           -0.4221608             -11.4876
        79        2.0000           -0.4209832             -11.4555
        80        2.0000           -0.4161317             -11.3235
        81        2.0000           -0.4150075             -11.2929
        82        2.0000           -0.4124064             -11.2222
        83        2.0000           -0.4117872             -11.2053
        84        2.0000           -0.4087613             -11.1230
        85        2.0000           -0.3959584             -10.7746
        86        2.0000           -0.3897468             -10.6055
        87        2.0000           -0.3595103              -9.7828
        88        2.0000           -0.3447493              -9.3811 (HOMO)
        89                         -0.3020259              -8.2185 (LUMO)
        90                         -0.2720922              -7.4040
        91                         -0.2377319              -6.4690
        92                         -0.2346181              -6.3843
        93                         -0.2345022              -6.3811
        94                         -0.2294787              -6.2444
        95                         -0.2289103              -6.2290
        96                         -0.2282997              -6.2124
        97                         -0.2179078              -5.9296
        98                         -0.2132829              -5.8037
        99                         -0.1957612              -5.3269
       ...                                ...                  ...
       168                          0.6864103              18.6782
      -------------------------------------------------------------
                  HL-Gap            0.0427234 Eh            1.1626 eV

     #   Z          covCN         q      C6AA      α(0)
     1   9 F        0.787    -0.213    11.373     3.984
     2   6 C        2.783     0.158    24.562     8.118
     3   6 C        2.914    -0.063    29.576     8.918
     4   6 C        2.968     0.076    26.291     8.411
     5   7 N        1.852    -0.228    26.838     7.678
     6   6 C        2.952     0.087    26.073     8.375
     7   6 C        2.982     0.008    27.830     8.654
     8   6 C        2.923    -0.029    28.722     8.789
     9   6 C        2.919    -0.028    28.690     8.784
    10   6 C        2.920    -0.027    28.669     8.780
    11   6 C        2.919    -0.027    28.678     8.782
    12   6 C        2.925    -0.025    28.639     8.776
    13   6 C        2.950     0.088    26.046     8.371
    14   6 C        2.982     0.008    27.831     8.654
    15   6 C        2.923    -0.029    28.718     8.788
    16   6 C        2.919    -0.028    28.689     8.783
    17   6 C        2.920    -0.027    28.668     8.780
    18   6 C        2.919    -0.027    28.679     8.782
    19   6 C        2.925    -0.025    28.639     8.776
    20   7 N        1.852    -0.230    26.888     7.685
    21   6 C        2.961     0.074    26.354     8.420
    22   6 C        2.923    -0.059    29.455     8.900
    23   6 C        2.915     0.052    26.824     8.493
    24   7 N        2.751    -0.057    22.334     7.019
    25   6 C        2.921     0.043    27.047     8.528
    26   6 C        2.923    -0.059    29.467     8.902
    27   6 C        2.919    -0.038    28.939     8.822
    28   6 C        2.919    -0.039    28.966     8.826
    29   6 C        2.920    -0.055    29.374     8.888
    30   6 C        2.885     0.127    25.210     8.232
    31   8 O        1.709    -0.251    18.152     5.752
    32   6 C        2.885     0.127    25.217     8.233
    33   6 C        2.920    -0.055    29.365     8.886
    34   6 C        2.919    -0.038    28.942     8.822
    35   6 C        2.919    -0.037    28.918     8.818
    36   6 C        2.924    -0.051    29.275     8.873
    37   6 C        2.924     0.047    26.948     8.513
    38   1 H        0.926     0.079     1.985     2.203
    39   1 H        0.926     0.030     2.581     2.512
    40   1 H        0.926     0.035     2.520     2.482
    41   1 H        0.926     0.036     2.506     2.475
    42   1 H        0.926     0.037     2.486     2.466
    43   1 H        0.926     0.048     2.340     2.392
    44   1 H        0.926     0.031     2.576     2.510
    45   1 H        0.926     0.035     2.517     2.481
    46   1 H        0.926     0.036     2.505     2.475
    47   1 H        0.926     0.037     2.488     2.466
    48   1 H        0.926     0.048     2.344     2.394
    49   1 H        0.926     0.070     2.085     2.258
    50   1 H        0.926     0.035     2.510     2.477
    51   1 H        0.926     0.037     2.483     2.464
    52   1 H        0.926     0.040     2.453     2.449
    53   1 H        0.926     0.052     2.292     2.368
    54   1 H        0.926     0.052     2.297     2.370
    55   1 H        0.926     0.040     2.451     2.448
    56   1 H        0.926     0.038     2.475     2.460
    57   1 H        0.926     0.032     2.555     2.500

molecular dipole:
                 x           y           z       tot (Debye)
 q only:        1.334      -0.498      -0.306
   full:        1.430      -0.453      -0.279       3.879

 projected vibrational frequencies (cm⁻¹)
eigval :       -0.00    -0.00    -0.00    -0.00     0.00     0.00
eigval :       13.57    19.80    24.38    40.05    45.12    48.12
eigval :       58.40    60.31    74.41    80.60   116.35   131.77
eigval :      138.70   147.44   171.26   203.68   216.74   245.67
eigval :      250.92   253.26   257.02   269.46   286.60   309.56
eigval :      327.92   353.55   367.25   374.00   376.36   392.78
eigval :      406.67   430.16   435.45   439.21   445.03   460.53
eigval :      472.97   504.10   509.69   514.67   522.74   535.88
eigval :      556.42   574.57   582.31   587.43   592.77   594.10
eigval :      617.78   648.76   656.13   661.17   663.06   666.80
eigval :      674.34   690.41   697.76   715.41   748.85   753.52
eigval :      765.69   776.99   778.61   779.66   794.92   845.52
eigval :      849.52   856.19   863.00   866.49   875.68   876.85
eigval :      882.97   898.06   900.81   902.54   905.73   910.83
eigval :      915.34   916.43   920.16   928.11   929.08   932.11
eigval :      932.90   943.40   975.47  1019.14  1079.24  1082.34
eigval :     1087.85  1090.92  1096.63  1099.72  1110.03  1119.36
eigval :     1120.42  1140.10  1166.54  1175.76  1181.17  1181.24
eigval :     1182.42  1187.11  1194.46  1196.68  1203.53  1207.78
eigval :     1243.89  1251.48  1263.24  1266.60  1268.74  1276.87
eigval :     1281.17  1286.94  1311.83  1319.95  1322.27  1331.95
eigval :     1339.98  1350.70  1386.35  1419.24  1422.31  1426.48
eigval :     1434.38  1437.33  1444.66  1464.89  1476.18  1477.48
eigval :     1486.42  1501.07  1511.27  1525.29  1569.53  1579.88
eigval :     1580.42  1580.85  1589.22  1593.36  1594.52  1597.02
eigval :     1602.66  3076.08  3076.43  3079.32  3079.76  3086.75
eigval :     3087.03  3087.60  3090.03  3093.88  3094.36  3095.00
eigval :     3099.80  3100.17  3100.43  3103.70  3107.02  3107.69
eigval :     3113.37  3114.05  3118.88

   temp. (K)  partition function   enthalpy   heat capacity  entropy
                                   cal/mol     cal/K/mol   cal/K/mol   J/K/mol
 298.15  VIB  0.142E+13            16260.792    104.661     99.968
         ROT  0.388E+08              888.752      2.981     37.706
         INT  0.551E+20            17149.544    107.642    137.673
         TR   0.102E+29             1481.254      4.968     44.383
         TOT                       18630.7983   112.6102   182.0563   761.7234

       T/K    H(0)-H(T)+PV         H(T)/Eh          T*S/Eh         G(T)/Eh
   ------------------------------------------------------------------------
    298.15    0.296901E-01    0.452033E+00    0.865008E-01    0.365532E+00
   ------------------------------------------------------------------------

         :::::::::::::::::::::::::::::::::::::::::::::::::::::
         ::                  THERMODYNAMIC                  ::
         :::::::::::::::::::::::::::::::::::::::::::::::::::::
         :: total free energy         -95.943291148357 Eh   ::
         ::.................................................::
         :: total energy              -96.308823076295 Eh   ::
         :: zero point energy           0.422342668404 Eh   ::
         :: G(RRHO) w/o ZPVE           -0.056810740467 Eh   ::
         :: G(RRHO) contrib.            0.365531927938 Eh   ::
         :::::::::::::::::::::::::::::::::::::::::::::::::::::

           -------------------------------------------------
          | TOTAL ENERGY              -96.308823076295 Eh   |
          | TOTAL ENTHALPY            -95.856790340969 Eh   |
          | TOTAL FREE ENERGY         -95.943291148357 Eh   |
          | GRADIENT NORM               0.000089240746 Eh/α |
          | HOMO-LUMO GAP               1.162562453036 eV   |
           -------------------------------------------------

 * finished run on 2025/07/18 at 17:13:31.590
