   * xtb version 6.7.1 (edcfbbe) compiled by 'albert@albert-system' on 2024-07-22

   ID    Z sym.   atoms
    1    9 F      1
    2    6 C      2-4, 6-19, 21-23, 25-30, 32-37
    3    7 N      5, 20, 24
    4    8 O      31
    5    1 H      38-57

          program call               : xtb data2507/gas/FDQPXZ/FDQPXZ_gas_S0_finalOpt.xtbopt.xyz --gfn 2 --spinpol --tblite --uhf 2 --ohess vtight --parallel 40 --molden --ceasefiles --namespace data2507/gas/FDQPXZ/FDQPXZ_gas_T1_preOpt
 * total energy  :   -96.2551275 Eh     change        0.3783751E-07 Eh
 * total energy  :   -96.2585285 Eh     change       -0.3400980E-02 Eh
 * total energy  :   -96.2595925 Eh     change       -0.1063961E-02 Eh
 * total energy  :   -96.2597523 Eh     change       -0.1597870E-03 Eh
 * total energy  :   -96.2598569 Eh     change       -0.1046760E-03 Eh
 * total energy  :   -96.2598939 Eh     change       -0.3696462E-04 Eh
 * total energy  :   -96.2599427 Eh     change       -0.4875923E-04 Eh
 * total energy  :   -96.2599962 Eh     change       -0.5353121E-04 Eh
 * total energy  :   -96.2600347 Eh     change       -0.3847182E-04 Eh
 * total energy  :   -96.2600527 Eh     change       -0.1807693E-04 Eh
 * total energy  :   -96.2601170 Eh     change       -0.8363023E-06 Eh
 * total energy  :   -96.2601178 Eh     change       -0.7511836E-06 Eh
 * total energy  :   -96.2601184 Eh     change       -0.6208801E-06 Eh
 * total energy  :   -96.2601191 Eh     change       -0.6642660E-06 Eh
 * total energy  :   -96.2601197 Eh     change       -0.6105275E-06 Eh
 * total energy  :   -96.2601202 Eh     change       -0.5338182E-06 Eh
 * total energy  :   -96.2601206 Eh     change       -0.4354805E-06 Eh
 * total energy  :   -96.2601210 Eh     change       -0.3502388E-06 Eh
 * total energy  :   -96.2601210 Eh     change       -0.2725272E-08 Eh
   *** GEOMETRY OPTIMIZATION CONVERGED AFTER 44 ITERATIONS ***

 final structure:
================
57
 xtb: 6.7.1 (edcfbbe)
F           -2.54919292116544        2.33811600105600        1.30465181872211
C           -1.54690176435284        1.55067512850887        0.84971842309435
C           -0.23774834529376        1.95613603355205        1.04275449108254
C            0.80944889273659        1.15001927804964        0.60005086784411
N            2.08468478765572        1.46480633054482        0.79564094750251
C            3.08150890006304        0.68673240889986        0.37094177621635
C            4.43989883396278        1.06987853633709        0.75386500903725
C            5.37753750098547        0.12543135850775        1.17123002075299
C            6.64332884666298        0.52457066803649        1.55289248261755
C            6.99141451208678        1.86607272692902        1.53143876716864
C            6.05762874863892        2.81196082330256        1.14097556035970
C            4.78888359040830        2.42041698479994        0.76021760096885
C            2.78057892531665       -0.46615040039659       -0.37727087211356
C            3.80165253734587       -1.29218986574463       -1.02390240751903
C            4.88736430965973       -0.72174914936883       -1.68735297903598
C            5.81964465182580       -1.52624777581624       -2.31275800938142
C            5.68147926090299       -2.90526940436093       -2.29154552319611
C            4.59292637368154       -3.47743257133923       -1.65393939840324
C            3.65483537056778       -2.67877426136077       -1.02880763981824
N            1.51069488884649       -0.82785423699870       -0.54087516873022
C            0.49870992722937       -0.09058832703438       -0.07854683014826
C           -0.82977094432450       -0.45426297929065       -0.25492074581140
C           -1.86617178137669        0.36011312088734        0.21070900898971
N           -3.21827757526460       -0.02204932220062        0.03707370871695
C           -3.75039801143325       -1.07021681067664        0.77594406900494
C           -2.98302221783719       -1.81568205507043        1.66584044230472
C           -3.54797910146091       -2.85713128767214        2.38149529345864
C           -4.88673453427122       -3.16888526926340        2.22753563390632
C           -5.66968186388956       -2.42578317768697        1.35868812510262
C           -5.11317098037404       -1.38222952164070        0.63989750715891
O           -5.94468217421724       -0.67792069680251       -0.18715537784994
C           -5.40577500102290        0.35942244027738       -0.89927677264384
C           -6.25469168830197        1.06502426309904       -1.73362099018832
C           -5.76645929619799        2.11161168058121       -2.49922971461610
C           -4.42398187802279        2.43939908045254       -2.43724180559557
C           -3.56879824916278        1.73865314546135       -1.60512380867326
C           -4.04660055413557        0.70066590317617       -0.81158563298640
H           -0.02464153688048        2.87908105996836        1.55475950978189
H            5.10745258119480       -0.91945411922799        1.20904645667511
H            7.36170775574177       -0.21482834790352        1.87537042532257
H            7.98371975800675        2.17290983193346        1.82702806618729
H            6.31966200071887        3.85998680555949        1.13459296874036
H            4.05462675957810        3.15139115064220        0.45692053170858
H            4.99157237620833        0.35255670543203       -1.72161426496991
H            6.65696553135552       -1.07501725004904       -2.82454905128503
H            6.41551312865264       -3.53049642655480       -2.77784948287256
H            4.47425976414387       -4.55117668578851       -1.64504811281703
H            2.80228336198340       -3.11642231533962       -0.53164925565457
H           -1.05877022300542       -1.37057640976066       -0.77429357641729
H           -1.94081284648223       -1.57271657211121        1.79829223057098
H           -2.93319327698575       -3.42246290099378        3.06447641213541
H           -5.32746206676742       -3.98071287672838        2.78399953243248
H           -6.71891064378544       -2.63551365756291        1.22635943195406
H           -7.29325905940230        0.77764290973666       -1.76879935249514
H           -6.43460922002464        2.66021648167016       -3.14390228734687
H           -4.03271246389683        3.24471390125289       -3.03915768759437
H           -2.52153091675558        1.99456972802675       -1.56976275319479

 projected vibrational frequencies (cm⁻¹)
eigval :       -0.00    -0.00     0.00     0.00     0.00     0.00
eigval :       12.88    18.01    24.54    39.68    42.84    46.36
eigval :       51.80    59.13    76.63    79.25   110.84   133.49
eigval :      136.42   144.18   165.01   209.40   215.09   245.41
eigval :      246.83   251.35   255.07   257.21   266.64   304.71
eigval :      323.97   336.83   360.50   372.63   378.82   392.99
eigval :      410.38   429.60   431.97   438.90   442.12   452.66
eigval :      470.44   500.90   504.04   520.41   523.34   529.61
eigval :      550.25   571.56   579.20   582.44   589.66   590.32
eigval :      614.98   621.80   631.25   658.18   665.45   666.66
eigval :      668.10   670.21   675.47   691.54   714.99   733.11
eigval :      757.23   760.08   776.87   777.45   790.86   791.43
eigval :      802.08   839.70   856.13   864.73   865.44   872.33
eigval :      874.06   897.80   898.79   899.86   901.40   912.13
eigval :      916.01   916.35   918.30   923.26   926.58   927.39
eigval :      929.31   931.04   974.63  1005.32  1079.67  1082.38
eigval :     1085.23  1086.69  1092.73  1101.14  1112.73  1118.98
eigval :     1119.90  1142.52  1168.19  1174.96  1180.92  1180.96
eigval :     1182.56  1184.28  1194.18  1197.09  1205.80  1207.46
eigval :     1227.74  1240.34  1257.62  1262.08  1267.74  1274.72
eigval :     1279.43  1283.47  1308.45  1312.91  1316.27  1319.21
eigval :     1324.20  1327.43  1347.02  1372.48  1395.91  1415.99
eigval :     1421.76  1430.63  1430.90  1443.32  1458.52  1465.21
eigval :     1470.40  1479.52  1489.08  1510.58  1522.89  1562.06
eigval :     1569.38  1573.15  1574.16  1582.09  1589.77  1590.23
eigval :     1591.77  3074.61  3074.83  3077.70  3078.24  3086.89
eigval :     3087.67  3092.55  3093.49  3093.86  3094.01  3096.39
eigval :     3096.92  3101.52  3103.00  3108.31  3109.98  3111.63
eigval :     3114.82  3115.40  3125.58

   temp. (K)  partition function   enthalpy   heat capacity  entropy
                                   cal/mol     cal/K/mol   cal/K/mol   J/K/mol
 298.15  VIB  0.256E+13            16462.869    105.567    101.267
         ROT  0.391E+08              888.752      2.981     37.721
         INT  0.999E+20            17351.621    108.548    138.988
         TR   0.102E+29             1481.254      4.968     44.383
         TOT                       18832.8749   113.5163   183.3705   767.2224

       T/K    H(0)-H(T)+PV         H(T)/Eh          T*S/Eh         G(T)/Eh
   ------------------------------------------------------------------------
    298.15    0.300121E-01    0.449921E+00    0.871253E-01    0.362796E+00
   ------------------------------------------------------------------------

         :::::::::::::::::::::::::::::::::::::::::::::::::::::
         ::                  THERMODYNAMIC                  ::
         :::::::::::::::::::::::::::::::::::::::::::::::::::::
         :: total free energy         -95.897325141373 Eh   ::
         ::.................................................::
         :: total energy              -96.260120992836 Eh   ::
         :: zero point energy           0.419909017513 Eh   ::
         :: G(RRHO) w/o ZPVE           -0.057113166050 Eh   ::
         :: G(RRHO) contrib.            0.362795851463 Eh   ::
         :::::::::::::::::::::::::::::::::::::::::::::::::::::

           -------------------------------------------------
          | TOTAL ENERGY              -96.260120992836 Eh   |
          | TOTAL ENTHALPY            -95.810199878867 Eh   |
          | TOTAL FREE ENERGY         -95.897325141373 Eh   |
          | GRADIENT NORM               0.000031530117 Eh/α |
           -------------------------------------------------

 * finished run on 2025/07/18 at 17:13:37.162
