   * xtb version 6.7.1 (edcfbbe) compiled by 'albert@albert-system' on 2024-07-22

   ID    Z sym.   atoms
    1    9 F      1
    2    6 C      2-4, 6-19, 21-23, 25-30, 32-37
    3    7 N      5, 20, 24
    4    8 O      31
    5    1 H      38-57

          program call               : xtb data2507/gas/FDQPXZ/FDQPXZ_gas_T1_crest.xyz --gfn 2 --spinpol --tblite --uhf 2 --ohess vtight --parallel 40 --molden --ceasefiles --namespace data2507/gas/FDQPXZ/FDQPXZ_gas_T1_finalOpt
 * total energy  :   -96.2600674 Eh     change       -0.3310309E-07 Eh
 * total energy  :   -96.2600921 Eh     change       -0.2462785E-04 Eh
 * total energy  :   -96.2600992 Eh     change       -0.7170130E-05 Eh
 * total energy  :   -96.2601019 Eh     change       -0.2711422E-05 Eh
 * total energy  :   -96.2601051 Eh     change       -0.3200241E-05 Eh
 * total energy  :   -96.2601075 Eh     change       -0.2403913E-05 Eh
 * total energy  :   -96.2601097 Eh     change       -0.2123749E-05 Eh
 * total energy  :   -96.2601108 Eh     change       -0.1135513E-05 Eh
 * total energy  :   -96.2601114 Eh     change       -0.6201493E-06 Eh
 * total energy  :   -96.2601123 Eh     change       -0.8375008E-06 Eh
 * total energy  :   -96.2601157 Eh     change       -0.5256812E-06 Eh
 * total energy  :   -96.2601163 Eh     change       -0.5976015E-06 Eh
 * total energy  :   -96.2601169 Eh     change       -0.5503467E-06 Eh
 * total energy  :   -96.2601175 Eh     change       -0.6148316E-06 Eh
 * total energy  :   -96.2601182 Eh     change       -0.6956730E-06 Eh
 * total energy  :   -96.2601187 Eh     change       -0.5487092E-06 Eh
 * total energy  :   -96.2601191 Eh     change       -0.3486708E-06 Eh
 * total energy  :   -96.2601194 Eh     change       -0.3265693E-06 Eh
 * total energy  :   -96.2601194 Eh     change       -0.7968950E-08 Eh
   *** GEOMETRY OPTIMIZATION CONVERGED AFTER 22 ITERATIONS ***

 final structure:
================
57
 xtb: 6.7.1 (edcfbbe)
F           -2.54232097625922        2.40860025623898        1.17389822668504
C           -1.54132513768932        1.59475902154547        0.76508793077444
C           -0.23115254938903        2.00421851198484        0.94176369293149
C            0.81365283472389        1.17270066902669        0.54248985722189
N            2.08965002104125        1.49198700850692        0.72558409565811
C            3.08448527216501        0.69158862425300        0.33975480065395
C            4.44354757042240        1.08785359718963        0.70643573779643
C            5.37759202486952        0.16057627971792        1.16808485023200
C            6.64414765596332        0.57284663603498        1.53282163018437
C            6.99657666964470        1.91085250490339        1.45015998937072
C            6.06633687288247        2.84077270256298        1.01538058288602
C            4.79680626263083        2.43616275704463        0.65128513420957
C            2.78086417220085       -0.49404845554412       -0.35438070782455
C            3.79957625178862       -1.34953208150678       -0.96521508123328
C            4.88763397962053       -0.81044128832943       -1.65080724978954
C            5.81721600292311       -1.64293490704469       -2.24261658704632
C            5.67385774848922       -3.01946085989628       -2.16596492752463
C            4.58286623937395       -3.56134721934664       -1.50644414128712
C            3.64763697914564       -2.73467060746400       -0.91432499978174
N            1.50999017320837       -0.85997660077479       -0.50067174068406
C            0.49984406065176       -0.09884776773384       -0.07460606881591
C           -0.82972098041840       -0.46740298310703       -0.23324121943428
C           -1.86333349131254        0.37389002353518        0.18783720713233
N           -3.21759784253028       -0.00906891559029        0.02966220152651
C           -3.76683799177652       -0.99355773578435        0.83954995387011
C           -3.01167793413947       -1.68565399829248        1.78136968620014
C           -3.59370330742010       -2.66422706233734        2.56851984394805
C           -4.93718324295536       -2.96483445948384        2.43452668657174
C           -5.70748325190595       -2.27440047172693        1.51246758740353
C           -5.13394166143340       -1.29396231696247        0.72184628340417
O           -5.95260546630484       -0.63881525818588       -0.15698877793231
C           -5.39597983070310        0.33539800340967       -0.94107174166965
C           -6.23098129086945        0.99110155847624       -1.82846427693360
C           -5.72393804370963        1.97186678135778       -2.66575092175344
C           -4.37704055059266        2.28407309935527       -2.62097804302125
C           -3.53569291340143        1.63341029354425       -1.73580051212320
C           -4.03218084660445        0.66219902205752       -0.87233335132198
H           -0.01538822135629        2.95117004857780        1.40663087501182
H            5.10407196078825       -0.88063766510583        1.25322043733278
H            7.35980132302655       -0.15318713381068        1.88986637429044
H            7.98955859252640        2.22778592341672        1.73250927749903
H            6.33176876417771        3.88655746113388        0.96121123421921
H            4.06518136062429        3.15467856211609        0.31379530803114
H            4.99571891552824        0.26117888589768       -1.72888683987141
H            6.65637693391125       -1.21576100293773       -2.77175365300906
H            6.40566863632782       -3.66649296762730       -2.62640043278917
H            4.46002500276161       -4.63340661000491       -1.45462887876830
H            2.79317823084804       -3.14870438184527       -0.40050963602818
H           -1.06140694198020       -1.40859127342569       -0.70467368464888
H           -1.96573067880229       -1.45014967805913        1.89723122899163
H           -2.98869863037848       -3.18902503160221        3.29142367175766
H           -5.39131693860587       -3.72739269226902        3.04709199960259
H           -6.75962692732329       -2.47720914392698        1.39311070684435
H           -7.27375876963131        0.71783631058161       -1.84761427866525
H           -6.38126477508450        2.48180641168873       -3.35194858475701
H           -3.97160137570194        3.03783297894143       -3.27778719366492
H           -2.48489753428724        1.87609617192780       -1.71253895166223

 projected vibrational frequencies (cm⁻¹)
eigval :       -0.00    -0.00     0.00     0.00     0.00     0.00
eigval :       11.83    18.08    24.56    39.39    41.74    45.80
eigval :       51.53    58.96    76.84    79.12   110.38   133.47
eigval :      136.36   143.89   164.23   209.26   215.10   245.53
eigval :      246.79   251.20   254.85   257.35   266.43   304.94
eigval :      323.93   336.71   360.71   372.53   378.76   393.23
eigval :      410.12   429.33   431.66   438.85   441.76   452.52
eigval :      470.69   501.01   503.97   520.35   523.37   529.50
eigval :      550.37   571.63   579.24   582.89   589.64   590.43
eigval :      614.96   621.91   631.78   658.11   665.45   666.60
eigval :      668.13   670.02   675.62   691.47   715.06   732.74
eigval :      757.09   760.04   776.58   777.31   791.00   791.68
eigval :      801.36   839.38   856.17   864.40   865.05   872.16
eigval :      873.90   897.66   898.59   899.69   901.24   912.38
eigval :      915.83   916.13   917.97   923.41   926.42   927.10
eigval :      929.10   930.83   974.84  1006.05  1080.11  1082.27
eigval :     1085.31  1086.42  1092.25  1100.67  1112.70  1119.36
eigval :     1120.02  1141.65  1167.77  1174.65  1180.46  1180.58
eigval :     1182.24  1183.63  1193.88  1196.89  1206.31  1206.90
eigval :     1227.83  1240.04  1257.04  1262.44  1267.36  1274.81
eigval :     1279.12  1283.12  1308.05  1312.62  1316.26  1319.14
eigval :     1324.32  1327.41  1346.79  1372.29  1395.89  1415.93
eigval :     1421.63  1430.41  1430.62  1443.21  1458.30  1465.93
eigval :     1469.98  1478.87  1489.23  1510.87  1522.87  1562.03
eigval :     1569.26  1573.13  1574.08  1582.11  1589.80  1590.19
eigval :     1591.89  3074.42  3074.61  3077.50  3078.06  3086.81
eigval :     3087.52  3092.35  3093.32  3093.57  3093.72  3096.36
eigval :     3096.65  3101.41  3102.87  3108.09  3110.13  3111.17
eigval :     3114.85  3115.36  3125.53

   temp. (K)  partition function   enthalpy   heat capacity  entropy
                                   cal/mol     cal/K/mol   cal/K/mol   J/K/mol
 298.15  VIB  0.293E+13            16470.409    105.530    101.378
         ROT  0.391E+08              888.752      2.981     37.721
         INT  0.114E+21            17359.161    108.511    139.099
         TR   0.102E+29             1481.254      4.968     44.383
         TOT                       18840.4149   113.4794   183.4823   767.6901

       T/K    H(0)-H(T)+PV         H(T)/Eh          T*S/Eh         G(T)/Eh
   ------------------------------------------------------------------------
    298.15    0.300241E-01    0.449889E+00    0.871784E-01    0.362710E+00
   ------------------------------------------------------------------------

         :::::::::::::::::::::::::::::::::::::::::::::::::::::
         ::                  THERMODYNAMIC                  ::
         :::::::::::::::::::::::::::::::::::::::::::::::::::::
         :: total free energy         -95.897409058101 Eh   ::
         ::.................................................::
         :: total energy              -96.260119423435 Eh   ::
         :: zero point energy           0.419864636649 Eh   ::
         :: G(RRHO) w/o ZPVE           -0.057154271315 Eh   ::
         :: G(RRHO) contrib.            0.362710365334 Eh   ::
         :::::::::::::::::::::::::::::::::::::::::::::::::::::

           -------------------------------------------------
          | TOTAL ENERGY              -96.260119423435 Eh   |
          | TOTAL ENTHALPY            -95.810230674540 Eh   |
          | TOTAL FREE ENERGY         -95.897409058101 Eh   |
          | GRADIENT NORM               0.000053046621 Eh/α |
           -------------------------------------------------

 * finished run on 2025/07/18 at 17:16:41.545
