   * xtb version 6.7.1 (edcfbbe) compiled by 'albert@albert-system' on 2024-07-22

   ID    Z sym.   atoms
    1    7 N      1, 5, 20
    2    6 C      2-4, 6-19, 21-37
    3    1 H      38-58

          program call               : xtb data2507/gas/3TPAFM/3TPAFM_gas_T1_crest.xyz --gfn 2 --spinpol --tblite --uhf 2 --ohess vtight --parallel 40 --molden --ceasefiles --namespace data2507/gas/3TPAFM/3TPAFM_gas_T1_finalOpt
 * total energy  :   -92.1441304 Eh     change       -0.1766205E-07 Eh
 * total energy  :   -92.1441537 Eh     change       -0.2328390E-04 Eh
 * total energy  :   -92.1441612 Eh     change       -0.7499338E-05 Eh
 * total energy  :   -92.1441468 Eh     change        0.1443333E-04 Eh
 * total energy  :   -92.1441614 Eh     change       -0.1461872E-04 Eh
 * total energy  :   -92.1441583 Eh     change        0.3069003E-05 Eh
 * total energy  :   -92.1441640 Eh     change       -0.5709667E-05 Eh
 * total energy  :   -92.1441646 Eh     change       -0.5390953E-06 Eh
 * total energy  :   -92.1441650 Eh     change       -0.4533028E-06 Eh
 * total energy  :   -92.1441659 Eh     change       -0.8959216E-06 Eh
 * total energy  :   -92.1441807 Eh     change       -0.4733543E-06 Eh
 * total energy  :   -92.1441811 Eh     change       -0.4021381E-06 Eh
 * total energy  :   -92.1441815 Eh     change       -0.4199808E-06 Eh
 * total energy  :   -92.1441820 Eh     change       -0.4996199E-06 Eh
 * total energy  :   -92.1441826 Eh     change       -0.5796710E-06 Eh
 * total energy  :   -92.1441830 Eh     change       -0.4659702E-06 Eh
 * total energy  :   -92.1441834 Eh     change       -0.3707577E-06 Eh
 * total energy  :   -92.1441834 Eh     change        0.7928307E-08 Eh
 * total energy  :   -92.1441834 Eh     change       -0.2637059E-07 Eh
   *** GEOMETRY OPTIMIZATION CONVERGED AFTER 45 ITERATIONS ***

 final structure:
================
58
 xtb: 6.7.1 (edcfbbe)
N            5.78927037194319        3.95990724954956       -0.27978606202015
C            5.99639332914827        2.82917498438655       -0.16551168811359
C            6.30521697485307        1.47980902875698       -0.02761103331804
C            7.67110190570067        1.23950151243296        0.08166815519259
N            8.81408497817567        1.09888906239305        0.17032768144542
C            5.31576751929255        0.44552767948660       -0.00283446566724
C            5.56620797488925       -0.97655315843677        0.01612380061786
C            6.74657074092084       -1.70905723577204        0.01417628662750
C            6.67469248799392       -3.09445512490646        0.03081907903504
C            5.45266836836236       -3.75518582588024        0.04874256387553
C            4.26413568265731       -3.04094626023677        0.04970461969396
C            4.31724841214205       -1.65720260589876        0.03259510538434
C            3.27582058868233       -0.66493059575825        0.03237820147210
C            1.90898592452114       -0.77743051338566        0.04288098246938
C            1.11064979038057        0.37742866963053        0.01408438919183
C           -0.33146782809650        0.28406125873694        0.00970470417659
C           -1.12808431745345        1.26459601418245       -0.60735707893364
C           -2.49722122091121        1.17540853290184       -0.61708678488810
C           -3.14833459291360        0.09861032029984        0.00077970134610
N           -4.53107326011748        0.00920793236447       -0.00119399173673
C           -5.16190587118801       -1.24208802084142       -0.01905920685808
C           -6.32063647742119       -1.45478737714480        0.72784851792970
C           -6.94461614903586       -2.68664882973473        0.70139062235914
C           -6.42487126926081       -3.71960716449240       -0.06251471782059
C           -5.27427692072229       -3.51183420867526       -0.80646611998265
C           -4.64439794553829       -2.28276662840002       -0.79071695280185
C           -5.31739883657444        1.16942985451131        0.01529904265393
C           -6.49197407683995        1.23178700129855       -0.73446934947899
C           -7.26876068544119        2.37353011440131       -0.70980671519926
C           -6.88746397909590        3.46454202565269        0.05503345837124
C           -5.72154167295080        3.40596327761200        0.80183127104014
C           -4.93939587681704        2.26769542491545        0.78802912791558
C           -2.36573656307059       -0.88489485110894        0.62204407107462
C           -0.99683256705672       -0.79309783314737        0.62115454803238
C            1.74951383649264        1.64787746679605       -0.00417093271303
C            3.10891899256347        1.78337505198797        0.00749069480811
C            3.91794780899693        0.63016958075696        0.00951407659265
H            7.70744098567322       -1.21965745025802        0.00005799953400
H            7.58870793164785       -3.66979674793596        0.02829362611332
H            5.42981597221626       -4.83498170170260        0.06079538331855
H            3.31393474056750       -3.55535443989145        0.06321859488067
H            1.44912806814240       -1.75448426375450        0.02882748963272
H           -0.65558279716514        2.08296494205973       -1.12779338024920
H           -3.08408567466777        1.92528533963432       -1.12684113895237
H           -6.71846569162257       -0.65286807883048        1.33206412883256
H           -7.83805401031526       -2.84311369245264        1.28674521039250
H           -6.91464921434390       -4.68087714123532       -0.07908149568077
H           -4.86886112983619       -4.30953682476050       -1.41037933226525
H           -3.75729796091921       -2.11497945637642       -1.38347152031347
H           -6.78218461888460        0.38563349707742       -1.33967273573607
H           -8.17341132142758        2.41424532022899       -1.29743495329932
H           -7.49628317975501        4.35520157806068        0.06997024206044
H           -5.42287569805523        4.24909322237467        1.40616303062727
H           -4.03944058420887        2.21523319167734        1.38278412794063
H           -2.85264243318677       -1.70534549009195        1.12848560088996
H           -0.42366407870213       -1.54271387278445        1.14438974703155
H            1.13565650782036        2.53545290085538        0.01864439061453
H            3.55578101021086        2.76467135297090        0.01586537395314

 projected vibrational frequencies (cm⁻¹)
eigval :       -0.00    -0.00    -0.00     0.00     0.00     0.00
eigval :       -0.53    13.77    16.32    24.27    43.41    49.87
eigval :       56.41    68.65    70.83    77.53   101.23   107.07
eigval :      114.15   122.50   133.49   159.32   168.77   189.75
eigval :      216.49   220.69   227.34   236.03   266.77   304.07
eigval :      308.30   323.81   353.85   363.95   371.45   376.95
eigval :      378.57   384.74   390.49   404.09   406.61   421.26
eigval :      429.99   436.04   456.30   482.90   494.04   512.87
eigval :      514.40   541.07   570.73   578.84   582.24   586.42
eigval :      590.04   591.07   594.18   604.05   612.87   639.49
eigval :      660.13   665.21   679.86   687.09   694.62   704.12
eigval :      724.06   758.54   760.71   765.74   802.99   812.58
eigval :      825.03   853.28   860.44   864.22   873.44   874.20
eigval :      894.96   898.30   899.40   901.72   906.86   909.62
eigval :      909.75   915.13   917.62   919.05   926.33   929.07
eigval :      929.97   930.86   931.33   978.76   996.35  1004.13
eigval :     1015.61  1051.83  1076.59  1081.21  1082.17  1109.60
eigval :     1121.30  1123.11  1138.44  1151.74  1172.26  1179.32
eigval :     1179.46  1181.70  1188.48  1192.14  1199.64  1212.67
eigval :     1217.61  1230.37  1236.95  1251.27  1261.44  1272.28
eigval :     1275.54  1278.80  1292.97  1300.34  1316.38  1321.09
eigval :     1325.38  1328.38  1335.56  1350.63  1380.71  1402.42
eigval :     1422.09  1431.88  1437.84  1440.99  1454.16  1461.57
eigval :     1462.40  1463.51  1482.96  1506.31  1517.57  1545.82
eigval :     1556.01  1567.75  1572.43  1576.41  1584.88  1587.19
eigval :     1593.20  2216.11  2293.55  3070.16  3079.58  3081.20
eigval :     3083.30  3083.42  3083.70  3084.65  3084.86  3085.49
eigval :     3089.50  3090.83  3091.70  3092.29  3095.75  3096.37
eigval :     3100.58  3103.17  3104.61  3104.93  3116.81  3118.00

   temp. (K)  partition function   enthalpy   heat capacity  entropy
                                   cal/mol     cal/K/mol   cal/K/mol   J/K/mol
 298.15  VIB  0.234E+13            16743.128    107.377    103.388
         ROT  0.497E+08              888.752      2.981     38.197
         INT  0.116E+21            17631.880    110.358    141.585
         TR   0.991E+28             1481.254      4.968     44.321
         TOT                       19113.1339   115.3265   185.9054   777.8282

       T/K    H(0)-H(T)+PV         H(T)/Eh          T*S/Eh         G(T)/Eh
   ------------------------------------------------------------------------
    298.15    0.304587E-01    0.462870E+00    0.883297E-01    0.374541E+00
   ------------------------------------------------------------------------

         :::::::::::::::::::::::::::::::::::::::::::::::::::::
         ::                  THERMODYNAMIC                  ::
         :::::::::::::::::::::::::::::::::::::::::::::::::::::
         :: total free energy         -91.769642854898 Eh   ::
         ::.................................................::
         :: total energy              -92.144183500350 Eh   ::
         :: zero point energy           0.432411588188 Eh   ::
         :: G(RRHO) w/o ZPVE           -0.057870942736 Eh   ::
         :: G(RRHO) contrib.            0.374540645451 Eh   ::
         :::::::::::::::::::::::::::::::::::::::::::::::::::::

           -------------------------------------------------
          | TOTAL ENERGY              -92.144183500350 Eh   |
          | TOTAL ENTHALPY            -91.681313194539 Eh   |
          | TOTAL FREE ENERGY         -91.769642854898 Eh   |
          | GRADIENT NORM               0.000063112973 Eh/α |
           -------------------------------------------------

 * finished run on 2025/07/20 at 08:03:48.296
