   * xtb version 6.7.1 (edcfbbe) compiled by 'albert@albert-system' on 2024-07-22

   ID    Z sym.   atoms
    1    7 N      1, 5, 20
    2    6 C      2-4, 6-19, 21-37
    3    1 H      38-58

          program call               : xtb data2507/gas/3TPAFM/3TPAFM_gas_S0_finalOpt.xtbopt.xyz --gfn 2 --spinpol --tblite --uhf 2 --ohess vtight --parallel 40 --molden --ceasefiles --namespace data2507/gas/3TPAFM/3TPAFM_gas_T1_preOpt
 * total energy  :   -92.1371122 Eh     change       -0.3309168E-08 Eh
 * total energy  :   -92.1425884 Eh     change       -0.5476255E-02 Eh
 * total energy  :   -92.1438579 Eh     change       -0.1269445E-02 Eh
 * total energy  :   -92.1438836 Eh     change       -0.2571811E-04 Eh
 * total energy  :   -92.1439675 Eh     change       -0.8387054E-04 Eh
 * total energy  :   -92.1440041 Eh     change       -0.3659611E-04 Eh
 * total energy  :   -92.1440288 Eh     change       -0.2475764E-04 Eh
 * total energy  :   -92.1440497 Eh     change       -0.2084489E-04 Eh
 * total energy  :   -92.1440635 Eh     change       -0.1383745E-04 Eh
 * total energy  :   -92.1440770 Eh     change       -0.1349818E-04 Eh
 * total energy  :   -92.1441910 Eh     change        0.3589162E-06 Eh
 * total energy  :   -92.1441905 Eh     change        0.5333082E-06 Eh
 * total energy  :   -92.1441899 Eh     change        0.6184362E-06 Eh
 * total energy  :   -92.1441891 Eh     change        0.7585798E-06 Eh
 * total energy  :   -92.1441882 Eh     change        0.8658350E-06 Eh
 * total energy  :   -92.1441915 Eh     change       -0.3221448E-05 Eh
 * total energy  :   -92.1441922 Eh     change       -0.7261403E-06 Eh
 * total energy  :   -92.1441924 Eh     change       -0.1647526E-06 Eh
 * total energy  :   -92.1441924 Eh     change       -0.7892169E-07 Eh
   *** GEOMETRY OPTIMIZATION CONVERGED AFTER 113 ITERATIONS ***

 final structure:
================
58
 xtb: 6.7.1 (edcfbbe)
N            5.78055055658989       -3.91548788815647        0.71099557899783
C            5.99251833053180       -2.80613916127290        0.46804501179839
C            6.30057453510292       -1.48197091541655        0.17538259253362
C            7.65719465355968       -1.25993284293730       -0.03546267678861
N            8.79215101316850       -1.12927721409499       -0.20555515109967
C            5.31228683927845       -0.44738192329864        0.10046203175185
C            5.56535748322916        0.97136849374421        0.02305673095013
C            6.74762143866287        1.70101183827704        0.01030843897138
C            6.67881117142759        3.08449260724099       -0.06424478746421
C            5.45829287675675        3.74538604268559       -0.12390619590179
C            4.26791859798491        3.03368878484466       -0.10875938012685
C            4.31775315809626        1.65218030776885       -0.03377269058908
C            3.27466253493631        0.66112080057255       -0.00175029447237
C            1.90808283974614        0.77327067202834       -0.02768931392892
C            1.10907518206318       -0.37984152482392        0.03921790281028
C           -0.33345895926918       -0.28584390138667        0.02540837846908
C           -0.99170274085228        0.76563898293500       -0.63581427170767
C           -2.36056168544785        0.85817213818265       -0.65343730509073
C           -3.14986705727697       -0.09866325610054       -0.00012045245996
N           -4.53254538538244       -0.00761123014359       -0.01413326247514
C           -5.32062291673887       -1.16649887944247        0.00952659832133
C           -6.50154933530117       -1.19699643708411        0.75122759964393
C           -7.27988252932329       -2.33785328049230        0.76630594291527
C           -6.89389782126208       -3.45943181605948        0.04955371106675
C           -5.72172642753544       -3.43253838436454       -0.68921715090534
C           -4.93794842147920       -2.29559024930856       -0.71494200915224
C           -5.16134590434684        1.24428558619897       -0.05206938944958
C           -6.31291967216020        1.42853913057703       -0.81733577179160
C           -6.93474044514633        2.66145380326518       -0.84615050723284
C           -6.41985983832423        3.72355563377375       -0.11986299132571
C           -5.27646498375925        3.54407489510343        0.64231978457286
C           -4.64890384918591        2.31435827249730        0.68182455593594
C           -2.50579108334711       -1.15003938404794        0.66667981535635
C           -1.13655747321498       -1.24023230816258        0.67369397672451
C            1.74623484053864       -1.64823280578107        0.11177116018949
C            3.10603398265294       -1.78412322359862        0.11740791785781
C            3.91456022687271       -0.63166159448213        0.08156864579140
H            7.70689427658854        1.21024239277665        0.05765664779774
H            7.59371503856399        3.65834638985207       -0.07345106653279
H            5.43761573900428        4.82380665420226       -0.18068641537788
H            3.31922436473216        3.54898425054755       -0.15497954322702
H            1.44833841851538        1.75003552180084       -0.05658979893435
H           -0.41290720547972        1.49325114387665       -1.18335945133670
H           -2.84177058266179        1.65789535169271       -1.19709978970866
H           -6.79551510851063       -0.32663171751631        1.31913761758867
H           -8.18944781961616       -2.35364026087274        1.34751796542621
H           -7.50390533348194       -4.34926041253578        0.06566194578116
H           -5.41936081098800       -4.29981164361586       -1.25641303594895
H           -4.03293290903657       -2.26837468294137       -1.30368479228741
H           -6.70688252130713        0.60354538701731       -1.39231641705873
H           -7.82255288098470        2.79562534744153       -1.44543845208911
H           -6.90782540338092        4.68552194888251       -0.14655952280809
H           -4.87496375363327        4.36479584649019        1.21731763049204
H           -3.76748997994209        2.16920272943634        1.28886519515963
H           -3.09814923182057       -1.87860190696954        1.20041686546264
H           -0.66969528580225       -2.03727704548392        1.23103872382862
H            1.13216823509251       -2.53595468753338        0.11708247770575
H            3.55322293431352       -2.76495363085125        0.14984243295465

 projected vibrational frequencies (cm⁻¹)
eigval :       -0.00    -0.00    -0.00    -0.00     0.00     0.00
eigval :       10.22    13.86    16.84    24.31    43.22    49.85
eigval :       56.63    68.14    70.90    77.81   101.01   106.67
eigval :      113.03   122.18   133.33   158.42   169.53   188.67
eigval :      215.29   221.33   228.47   236.19   267.46   304.23
eigval :      308.37   323.89   353.77   365.19   370.76   376.93
eigval :      378.51   384.70   390.43   403.61   406.82   421.53
eigval :      430.12   436.90   456.02   482.80   494.29   513.10
eigval :      513.88   541.24   570.48   579.00   582.27   586.24
eigval :      589.56   591.23   594.26   604.06   612.99   639.54
eigval :      660.13   665.22   679.89   687.02   694.67   704.20
eigval :      724.34   758.50   760.71   766.03   803.69   812.88
eigval :      825.34   853.26   860.94   864.53   873.37   874.23
eigval :      895.11   898.25   899.43   901.87   906.99   909.71
eigval :      910.64   915.58   917.70   919.27   926.39   928.98
eigval :      929.80   930.77   931.26   978.91   996.67  1004.22
eigval :     1016.20  1052.49  1076.35  1081.30  1082.30  1109.48
eigval :     1121.39  1123.17  1137.82  1151.29  1172.92  1179.31
eigval :     1179.43  1180.26  1188.85  1192.11  1199.73  1213.43
eigval :     1218.15  1230.91  1237.94  1251.49  1261.36  1272.34
eigval :     1275.60  1278.82  1292.50  1300.47  1316.34  1320.52
eigval :     1325.34  1328.31  1335.21  1350.81  1381.69  1402.26
eigval :     1422.02  1432.14  1438.14  1441.16  1454.00  1461.50
eigval :     1462.73  1463.82  1483.53  1506.99  1518.43  1545.44
eigval :     1556.69  1568.31  1572.58  1576.57  1585.04  1587.47
eigval :     1593.35  2214.57  2293.18  3070.02  3079.50  3081.18
eigval :     3083.20  3083.20  3083.50  3084.44  3084.74  3085.30
eigval :     3089.25  3090.66  3091.57  3092.15  3095.52  3096.10
eigval :     3100.33  3102.79  3104.48  3104.97  3114.25  3115.20

   temp. (K)  partition function   enthalpy   heat capacity  entropy
                                   cal/mol     cal/K/mol   cal/K/mol   J/K/mol
 298.15  VIB  0.477E+14            17321.369    108.357    108.509
         ROT  0.497E+08              888.752      2.981     38.196
         INT  0.237E+22            18210.121    111.338    146.705
         TR   0.991E+28             1481.254      4.968     44.321
         TOT                       19691.3748   116.3061   191.0260   799.2529

       T/K    H(0)-H(T)+PV         H(T)/Eh          T*S/Eh         G(T)/Eh
   ------------------------------------------------------------------------
    298.15    0.313802E-01    0.463819E+00    0.907626E-01    0.373056E+00
   ------------------------------------------------------------------------

         :::::::::::::::::::::::::::::::::::::::::::::::::::::
         ::                  THERMODYNAMIC                  ::
         :::::::::::::::::::::::::::::::::::::::::::::::::::::
         :: total free energy         -91.771136466530 Eh   ::
         ::.................................................::
         :: total energy              -92.144192439736 Eh   ::
         :: zero point energy           0.432438398458 Eh   ::
         :: G(RRHO) w/o ZPVE           -0.059382425252 Eh   ::
         :: G(RRHO) contrib.            0.373055973206 Eh   ::
         :::::::::::::::::::::::::::::::::::::::::::::::::::::

           -------------------------------------------------
          | TOTAL ENERGY              -92.144192439736 Eh   |
          | TOTAL ENTHALPY            -91.680373838133 Eh   |
          | TOTAL FREE ENERGY         -91.771136466530 Eh   |
          | GRADIENT NORM               0.000078136966 Eh/α |
           -------------------------------------------------

 * finished run on 2025/07/20 at 08:00:45.311
