   * xtb version 6.7.1 (edcfbbe) compiled by 'albert@albert-system' on 2024-07-22

   ID    Z sym.   atoms
    1    7 N      1, 5, 20
    2    6 C      2-4, 6-19, 21-37
    3    1 H      38-58

          program call               : xtb data2507/gas/3TPAFM/3TPAFM_gas_S0_crest.xyz --gfn 2 --ohess vtight --parallel 40 --molden --ceasefiles --namespace data2507/gas/3TPAFM/3TPAFM_gas_S0_finalOpt
          :  Hamiltonian                  GFN2-xTB          :
 * total energy  :   -92.2006555 Eh     change       -0.2958387E-08 Eh
 * total energy  :   -92.2006547 Eh     change        0.7730489E-06 Eh
 * total energy  :   -92.2006561 Eh     change       -0.1373878E-05 Eh
 * total energy  :   -92.2006558 Eh     change        0.2939678E-06 Eh
 * total energy  :   -92.2006572 Eh     change       -0.1380300E-05 Eh
 * total energy  :   -92.2006580 Eh     change       -0.8599847E-06 Eh
 * total energy  :   -92.2006592 Eh     change       -0.1125733E-05 Eh
 * total energy  :   -92.2006599 Eh     change       -0.7771781E-06 Eh
 * total energy  :   -92.2006605 Eh     change       -0.5854882E-06 Eh
 * total energy  :   -92.2006612 Eh     change       -0.7025772E-06 Eh
 * total energy  :   -92.2006651 Eh     change       -0.9108571E-06 Eh
 * total energy  :   -92.2006661 Eh     change       -0.1021681E-05 Eh
 * total energy  :   -92.2006667 Eh     change       -0.6347471E-06 Eh
 * total energy  :   -92.2006670 Eh     change       -0.3257649E-06 Eh
 * total energy  :   -92.2006674 Eh     change       -0.3592729E-06 Eh
 * total energy  :   -92.2006679 Eh     change       -0.5096191E-06 Eh
 * total energy  :   -92.2006682 Eh     change       -0.2590730E-06 Eh
 * total energy  :   -92.2006683 Eh     change       -0.1014477E-06 Eh
 * total energy  :   -92.2006683 Eh     change       -0.2428578E-08 Eh
   *** GEOMETRY OPTIMIZATION CONVERGED AFTER 22 ITERATIONS ***

 final structure:
================
58
 xtb: 6.7.1 (edcfbbe)
N            5.84312894617642       -3.95716069634386       -0.07410373618982
C            6.01091783924742       -2.82204747456699       -0.04669806665830
C            6.29434999654642       -1.43991312450138       -0.01196267914538
C            7.68450433024183       -1.19837540554546       -0.00009887453249
N            8.82482505266904       -1.06745912405928        0.00761077899601
C            5.34069913334163       -0.46122636895980        0.00844345904199
C            5.57092937294639        0.98232956594334        0.04785799689659
C            6.74182452070816        1.72018471654976        0.07092206433083
C            6.65322038265141        3.10650610658824        0.10945346104243
C            5.42441393463082        3.74489861288222        0.12459747970934
C            4.24211270523720        3.01383078444356        0.10072313639217
C            4.31968614347558        1.63763462397896        0.06239079752038
C            3.27510635744585        0.62187104006681        0.02811395034765
C            1.90581528103903        0.74332521635303        0.02426217689446
C            1.11480193380321       -0.41333971684235       -0.00492744835362
C           -0.34448171687910       -0.30884105965999       -0.00491546839459
C           -0.99201458487843        0.70886757106869       -0.70804917725693
C           -2.36539229100390        0.80656530281834       -0.71765551868945
C           -3.14784949922076       -0.10623692274193       -0.00543458166760
N           -4.53537933597318       -0.00635874266791       -0.00597811611189
C           -5.32788224653571       -1.16162156054263        0.05525898988224
C           -6.50121198430093       -1.17081606768822        0.80797599253239
C           -7.28486216905495       -2.30733248234660        0.85894041683341
C           -6.91004906701617       -3.44942300784940        0.17038314034469
C           -5.74382564407711       -3.44540976825117       -0.57719844233548
C           -4.95769318554461       -2.31130295817954       -0.64114856410178
C           -5.15502834098546        1.24957484233424       -0.06750098341573
C           -6.31653188311064        1.42537006196940       -0.81829489217094
C           -6.93037332971751        2.66183094591376       -0.86936985645678
C           -6.39566517895769        3.73962711903393       -0.18273280472407
C           -5.24072756462631        3.57008472612852        0.56313964316789
C           -4.62394809701521        2.33569075522148        0.62706313048548
C           -2.50470978251368       -1.12192924783222        0.70715547781205
C           -1.13166230339838       -1.22271331320895        0.69840003128967
C            1.73851448792717       -1.66248878642297       -0.03339023625436
C            3.11696237902985       -1.79282409686846       -0.03455320522972
C            3.89788210965553       -0.64743256861950       -0.00260033853821
H            7.70859900781370        1.24313336593990        0.05954098243059
H            7.55983919499562        3.69214016432555        0.12797162970377
H            5.38345413041543        4.82367660904447        0.15519127054696
H            3.28593492894215        3.51502553209593        0.11269699369686
H            1.44024377348966        1.71632308339075        0.06884288773123
H           -0.41078205215218        1.40972706867384       -1.28895964098537
H           -2.84775145091691        1.58676987204607       -1.28785979849984
H           -6.79023915661374       -0.28347855821543        1.35199853257115
H           -8.19047624610912       -2.30302948722048        1.44728924908313
H           -7.52320711781715       -4.33647704552677        0.21524510071283
H           -5.44774355673683       -4.32923393854546       -1.12267413507305
H           -4.05489938209738       -2.30590914767799       -1.23435226742201
H           -6.73003377509615        0.58773944241237       -1.36066849790581
H           -7.82848717603994        2.78596875951866       -1.45612292863661
H           -6.87648107708992        4.70487506295505       -0.22744788999394
H           -4.82120320089501        4.40322090520477        1.10758390634034
H           -3.73045008370916        2.20208079652285        1.21938282586736
H           -3.09437321741081       -1.82514655428717        1.27649188891872
H           -0.65663647157524       -2.00024279618313        1.27788869418640
H            1.12961364281415       -2.55262989794969       -0.07942714672347
H            3.56173240712558       -2.77467250121603       -0.06431177904152

          :  Hamiltonian                  GFN2-xTB          :
         :: gradient norm              0.000089793200 Eh/a0 ::
         :: HOMO-LUMO gap              0.922130359152 eV    ::
         :: SCC energy               -94.028822930854 Eh    ::
         :: -> dispersion             -0.078218555851 Eh    ::
         :: repulsion energy           1.828154665163 Eh    ::

    * Orbital Energies and Occupations

         #    Occupation            Energy/Eh            Energy/eV
      -------------------------------------------------------------
         1        2.0000           -0.6803776             -18.5140
       ...           ...                  ...                  ...
        74        2.0000           -0.4326742             -11.7737
        75        2.0000           -0.4314828             -11.7412
        76        2.0000           -0.4282395             -11.6530
        77        2.0000           -0.4234435             -11.5225
        78        2.0000           -0.4223477             -11.4927
        79        2.0000           -0.4183887             -11.3849
        80        2.0000           -0.4161260             -11.3234
        81        2.0000           -0.4145995             -11.2818
        82        2.0000           -0.4134784             -11.2513
        83        2.0000           -0.4125624             -11.2264
        84        2.0000           -0.4030631             -10.9679
        85        2.0000           -0.3960005             -10.7757
        86        2.0000           -0.3587427              -9.7619 (HOMO)
        87                         -0.3248550              -8.8398 (LUMO)
        88                         -0.2618094              -7.1242
        89                         -0.2557100              -6.9582
        90                         -0.2387708              -6.4973
        91                         -0.2364509              -6.4342
        92                         -0.2349945              -6.3945
        93                         -0.2311559              -6.2901
        94                         -0.2310281              -6.2866
        95                         -0.2297306              -6.2513
        96                         -0.2121271              -5.7723
        97                         -0.2116142              -5.7583
       ...                                ...                  ...
       169                          1.1679490              31.7815
      -------------------------------------------------------------
                  HL-Gap            0.0338877 Eh            0.9221 eV

     #   Z          covCN         q      C6AA      α(0)
     1   7 N        0.911    -0.234    26.132     7.393
     2   6 C        1.937     0.124    28.035     8.551
     3   6 C        2.946     0.010    27.784     8.645
     4   6 C        1.936     0.124    28.040     8.551
     5   7 N        0.911    -0.234    26.134     7.394
     6   6 C        3.031     0.034    27.221     8.558
     7   6 C        3.052    -0.002    28.025     8.682
     8   6 C        2.913    -0.026    28.655     8.778
     9   6 C        2.921    -0.028    28.697     8.785
    10   6 C        2.921    -0.023    28.590     8.768
    11   6 C        2.913    -0.030    28.737     8.790
    12   6 C        3.053     0.005    27.851     8.655
    13   6 C        3.051     0.004    27.878     8.659
    14   6 C        2.918    -0.036    28.886     8.813
    15   6 C        2.977     0.018    27.599     8.617
    16   6 C        2.976     0.000    28.018     8.683
    17   6 C        2.924    -0.032    28.809     8.802
    18   6 C        2.920    -0.049    29.215     8.864
    19   6 C        2.923     0.067    26.506     8.443
    20   7 N        2.752    -0.071    22.611     7.062
    21   6 C        2.925     0.064    26.559     8.451
    22   6 C        2.922    -0.046    29.145     8.853
    23   6 C        2.920    -0.028    28.710     8.787
    24   6 C        2.919    -0.036    28.905     8.816
    25   6 C        2.920    -0.028    28.712     8.787
    26   6 C        2.922    -0.046    29.149     8.854
    27   6 C        2.925     0.065    26.554     8.451
    28   6 C        2.922    -0.046    29.145     8.853
    29   6 C        2.920    -0.028    28.710     8.787
    30   6 C        2.919    -0.037    28.912     8.818
    31   6 C        2.920    -0.029    28.719     8.788
    32   6 C        2.922    -0.047    29.156     8.855
    33   6 C        2.920    -0.048    29.203     8.862
    34   6 C        2.924    -0.032    28.808     8.802
    35   6 C        2.925    -0.036    28.886     8.814
    36   6 C        2.911    -0.027    28.673     8.781
    37   6 C        3.051    -0.007    28.142     8.700
    38   1 H        0.926     0.049     2.336     2.390
    39   1 H        0.926     0.041     2.429     2.437
    40   1 H        0.926     0.039     2.456     2.451
    41   1 H        0.926     0.037     2.488     2.467
    42   1 H        0.926     0.038     2.471     2.458
    43   1 H        0.926     0.035     2.514     2.480
    44   1 H        0.926     0.035     2.519     2.482
    45   1 H        0.926     0.033     2.545     2.494
    46   1 H        0.926     0.034     2.528     2.487
    47   1 H        0.926     0.033     2.539     2.492
    48   1 H        0.926     0.034     2.524     2.484
    49   1 H        0.926     0.033     2.543     2.494
    50   1 H        0.926     0.033     2.540     2.492
    51   1 H        0.926     0.034     2.529     2.487
    52   1 H        0.926     0.033     2.545     2.495
    53   1 H        0.926     0.033     2.537     2.491
    54   1 H        0.926     0.032     2.552     2.498
    55   1 H        0.926     0.036     2.508     2.476
    56   1 H        0.926     0.037     2.485     2.465
    57   1 H        0.926     0.041     2.430     2.437
    58   1 H        0.926     0.048     2.349     2.397

molecular dipole:
                 x           y           z       tot (Debye)
 q only:       -2.544       1.463       0.032
   full:       -2.877       1.828       0.039       8.665

 projected vibrational frequencies (cm⁻¹)
eigval :       -0.00    -0.00     0.00     0.00     0.00     0.00
eigval :       13.81    16.61    22.92    38.92    45.08    48.80
eigval :       55.35    65.33    69.33    74.04   101.10   108.03
eigval :      114.43   126.44   132.79   159.67   168.32   192.56
eigval :      217.50   222.33   227.61   237.14   270.47   304.70
eigval :      310.42   331.92   353.63   374.55   378.04   380.37
eigval :      389.25   394.49   395.17   407.72   425.48   433.35
eigval :      444.83   449.85   457.04   486.74   493.19   511.80
eigval :      541.18   561.14   583.38   583.59   585.18   591.86
eigval :      593.14   595.98   607.17   614.31   633.63   643.82
eigval :      660.42   666.68   684.97   693.62   708.71   717.56
eigval :      730.22   757.82   761.00   779.57   810.05   818.31
eigval :      836.35   866.61   875.20   875.95   876.57   877.26
eigval :      893.82   894.47   899.38   910.10   911.73   914.64
eigval :      918.40   921.07   926.55   927.52   928.33   929.60
eigval :      929.76   929.97   932.54   983.65  1005.36  1009.38
eigval :     1030.04  1075.48  1080.61  1082.91  1083.90  1114.60
eigval :     1121.63  1123.61  1143.31  1151.52  1177.82  1180.51
eigval :     1180.62  1186.80  1195.01  1195.95  1198.22  1201.44
eigval :     1216.59  1220.14  1236.96  1249.82  1271.43  1274.80
eigval :     1278.28  1281.37  1298.74  1311.63  1317.46  1322.86
eigval :     1326.22  1328.03  1335.77  1368.56  1405.59  1417.51
eigval :     1430.26  1436.19  1442.37  1453.75  1462.94  1470.62
eigval :     1474.82  1498.06  1548.50  1550.94  1564.51  1577.88
eigval :     1581.57  1583.67  1584.60  1594.08  1596.40  1601.28
eigval :     1612.32  2330.86  2361.45  3077.15  3078.05  3078.47
eigval :     3079.14  3079.26  3080.96  3082.18  3086.84  3087.45
eigval :     3088.12  3089.98  3090.48  3090.93  3092.39  3092.77
eigval :     3095.07  3097.67  3099.07  3099.53  3119.09  3121.61

   temp. (K)  partition function   enthalpy   heat capacity  entropy
                                   cal/mol     cal/K/mol   cal/K/mol   J/K/mol
 298.15  VIB  0.126E+14            17113.859    107.506    106.724
         ROT  0.496E+08              888.752      2.981     38.195
         INT  0.624E+21            18002.611    110.487    144.919
         TR   0.991E+28             1481.254      4.968     44.321
         TOT                       19483.8651   115.4547   189.2398   791.7793

       T/K    H(0)-H(T)+PV         H(T)/Eh          T*S/Eh         G(T)/Eh
   ------------------------------------------------------------------------
    298.15    0.310495E-01    0.466174E+00    0.899139E-01    0.376260E+00
   ------------------------------------------------------------------------

         :::::::::::::::::::::::::::::::::::::::::::::::::::::
         ::                  THERMODYNAMIC                  ::
         :::::::::::::::::::::::::::::::::::::::::::::::::::::
         :: total free energy         -91.824407907874 Eh   ::
         ::.................................................::
         :: total energy              -92.200668265743 Eh   ::
         :: zero point energy           0.435124779749 Eh   ::
         :: G(RRHO) w/o ZPVE           -0.058864421881 Eh   ::
         :: G(RRHO) contrib.            0.376260357869 Eh   ::
         :::::::::::::::::::::::::::::::::::::::::::::::::::::

           -------------------------------------------------
          | TOTAL ENERGY              -92.200668265743 Eh   |
          | TOTAL ENTHALPY            -91.734493970616 Eh   |
          | TOTAL FREE ENERGY         -91.824407907874 Eh   |
          | GRADIENT NORM               0.000089900622 Eh/α |
          | HOMO-LUMO GAP               0.922132471637 eV   |
           -------------------------------------------------

 * finished run on 2025/07/20 at 08:00:35.721
