   * xtb version 6.7.1 (edcfbbe) compiled by 'albert@albert-system' on 2024-07-22

   ID    Z sym.   atoms
    1    7 N      1, 5, 20
    2    6 C      2-4, 6-19, 21-37
    3    1 H      38-58

          program call               : xtb data2507/gas/3TPAFM/3TPAFM.xyz --gfn 2 --ohess vtight --parallel 40 --molden --ceasefiles --namespace data2507/gas/3TPAFM/3TPAFM_gas_S0_preOpt
          :  Hamiltonian                  GFN2-xTB          :
 * total energy  :   -92.1817191 Eh     change       -0.4381064E-08 Eh
 * total energy  :   -92.1928596 Eh     change       -0.1114054E-01 Eh
 * total energy  :   -92.1971191 Eh     change       -0.4259446E-02 Eh
 * total energy  :   -92.1983788 Eh     change       -0.1259759E-02 Eh
 * total energy  :   -92.1989201 Eh     change       -0.5413141E-03 Eh
 * total energy  :   -92.1986164 Eh     change        0.3037055E-03 Eh
 * total energy  :   -92.1991573 Eh     change       -0.5408757E-03 Eh
 * total energy  :   -92.1992098 Eh     change       -0.5247300E-04 Eh
 * total energy  :   -92.1992616 Eh     change       -0.5182138E-04 Eh
 * total energy  :   -92.1994060 Eh     change       -0.1444241E-03 Eh
 * total energy  :   -92.2003967 Eh     change       -0.4145903E-06 Eh
 * total energy  :   -92.2003965 Eh     change        0.1642700E-06 Eh
 * total energy  :   -92.2003962 Eh     change        0.3028100E-06 Eh
 * total energy  :   -92.2003984 Eh     change       -0.2199985E-05 Eh
 * total energy  :   -92.2003994 Eh     change       -0.9526504E-06 Eh
 * total energy  :   -92.2003997 Eh     change       -0.3429438E-06 Eh
 * total energy  :   -92.2004004 Eh     change       -0.6281248E-06 Eh
 * total energy  :   -92.2004008 Eh     change       -0.4405739E-06 Eh
 * total energy  :   -92.2004009 Eh     change       -0.9439724E-07 Eh
   *** GEOMETRY OPTIMIZATION CONVERGED AFTER 53 ITERATIONS ***

 final structure:
================
58
 xtb: 6.7.1 (edcfbbe)
N            6.33041622484784        0.29002835724026       -4.37051021936520
C            6.53918586379065        0.20727328239032       -3.24493310408829
C            6.87312442080701        0.10396999630385       -1.87754429903155
C            8.27119400805056        0.06822593890731       -1.68935380571372
N            9.41545134727260        0.04407296345629       -1.60274666758908
C            5.95651668923792        0.04419875851054       -0.86580804099078
C            6.23991130401886       -0.06825662196795        0.56434328830675
C            7.43726509164035       -0.13395024927119        1.25571584185220
C            7.40004597064770       -0.24142564537347        2.64069545586485
C            6.19574635707855       -0.28282287270794        3.32309618167575
C            4.98724636372857       -0.21657572578816        2.63899055336825
C            5.01380947177383       -0.10931568995115        1.26452775875202
C            3.93241239020409       -0.01876151681188        0.29160192150708
C            2.56848523334954       -0.01573611485980        0.46406705719266
C            1.73555056814518        0.07331036157857       -0.65943807467554
C            0.28020324843068        0.06561623703760       -0.50033311102670
C           -0.32938981966847        0.72317650305097        0.56932669555596
C           -1.69796822545915        0.71638799695247        0.72383435742480
C           -2.51212454967009        0.03805242143397       -0.18676463128617
N           -3.89481638151064        0.01973569261877       -0.02952584103209
C           -4.63467879469592       -1.11091260445248       -0.40411848281238
C           -4.13569696347292       -2.39206680443421       -0.17245444989051
C           -4.87186442392842       -3.50137780380840       -0.54073996488142
C           -6.11466046555090       -3.35324163169985       -1.13447934435804
C           -6.61671800653466       -2.08231116496065       -1.36161884606506
C           -5.88454779108254       -0.96662296706457       -1.00448099890727
C           -4.56150672186766        1.12847614642939        0.51067369201915
C           -4.16374469984049        2.42336901379848        0.18039804781836
C           -4.82669526502493        3.51115770817895        0.71465108773747
C           -5.89681546239824        3.32757992930564        1.57502572491619
C           -6.29922394145701        2.04281923346923        1.90117767127309
C           -5.63752000006283        0.94853599743232        1.37866098584027
C           -1.90693713405336       -0.62365045519018       -1.25841450965149
C           -0.53850615195437       -0.60401435923674       -1.41126715289928
C            2.31235565539346        0.16431316736947       -1.92770815090969
C            3.68516265991923        0.16825438474453       -2.10914258472224
C            4.50768653739440        0.07359452147749       -0.99691396594213
H            8.38569427385611       -0.10288232320323        0.74397347432658
H            8.32770362128854       -0.29355408820762        3.19023176662350
H            6.19473559909405       -0.36793543800469        4.39971578082424
H            4.05032581945912       -0.24947497162063        3.17444253335496
H            2.13886507838830       -0.10761249939428        1.45020439586566
H            0.27758123702176        1.26552517007826        1.27928963842132
H           -2.14986310163095        1.23200204016318        1.55837786204986
H           -3.17186771489157       -2.50954737302440        0.30112243300142
H           -4.47567535428453       -4.48861907579479       -0.35405705977667
H           -6.68831889478981       -4.22257791097026       -1.41738631896732
H           -7.58288143824490       -1.95762268554112       -1.82775727958030
H           -6.27363782869266        0.02395100958165       -1.18938023222084
H           -3.33715115431203        2.56825911562590       -0.49985524165209
H           -4.51080307664554        4.50931286066748        0.44944813110727
H           -6.41433752775560        4.18011520741855        1.98762759835062
H           -7.13014815392439        1.89051528497247        2.57402887864672
H           -5.94735921728396       -0.05274050257838        1.64001184594114
H           -2.52262504936275       -1.14881505680808       -1.97359248363633
H           -0.09300817662197       -1.13396870159695       -2.23993523809813
H            1.67092850870873        0.25694053328404       -2.79100314953597
H            4.09348894313776        0.24762702085044       -3.10400041031458

          :  Hamiltonian                  GFN2-xTB          :
         :: gradient norm              0.000169158585 Eh/a0 ::
         :: HOMO-LUMO gap              0.903137305745 eV    ::
         :: SCC energy               -94.028464144880 Eh    ::
         :: -> dispersion             -0.078150026428 Eh    ::
         :: repulsion energy           1.828063254252 Eh    ::

    * Orbital Energies and Occupations

         #    Occupation            Energy/Eh            Energy/eV
      -------------------------------------------------------------
         1        2.0000           -0.6807254             -18.5235
       ...           ...                  ...                  ...
        74        2.0000           -0.4324636             -11.7679
        75        2.0000           -0.4311664             -11.7326
        76        2.0000           -0.4278032             -11.6411
        77        2.0000           -0.4245947             -11.5538
        78        2.0000           -0.4228525             -11.5064
        79        2.0000           -0.4182809             -11.3820
        80        2.0000           -0.4157457             -11.3130
        81        2.0000           -0.4149192             -11.2905
        82        2.0000           -0.4130312             -11.2392
        83        2.0000           -0.4120911             -11.2136
        84        2.0000           -0.4031333             -10.9698
        85        2.0000           -0.3959197             -10.7735
        86        2.0000           -0.3583827              -9.7521 (HOMO)
        87                         -0.3251933              -8.8490 (LUMO)
        88                         -0.2620713              -7.1313
        89                         -0.2555725              -6.9545
        90                         -0.2383714              -6.4864
        91                         -0.2362029              -6.4274
        92                         -0.2353482              -6.4042
        93                         -0.2311767              -6.2906
        94                         -0.2309309              -6.2840
        95                         -0.2294325              -6.2432
        96                         -0.2123746              -5.7790
        97                         -0.2118259              -5.7641
       ...                                ...                  ...
       169                          1.1676136              31.7724
      -------------------------------------------------------------
                  HL-Gap            0.0331894 Eh            0.9031 eV

     #   Z          covCN         q      C6AA      α(0)
     1   7 N        0.911    -0.234    26.123     7.392
     2   6 C        1.937     0.124    28.034     8.551
     3   6 C        2.946     0.011    27.780     8.645
     4   6 C        1.936     0.124    28.039     8.551
     5   7 N        0.911    -0.234    26.125     7.392
     6   6 C        3.031     0.034    27.218     8.557
     7   6 C        3.052    -0.002    28.025     8.682
     8   6 C        2.913    -0.026    28.654     8.778
     9   6 C        2.921    -0.028    28.696     8.785
    10   6 C        2.921    -0.023    28.588     8.768
    11   6 C        2.913    -0.029    28.736     8.790
    12   6 C        3.053     0.005    27.850     8.655
    13   6 C        3.051     0.004    27.877     8.659
    14   6 C        2.918    -0.036    28.884     8.813
    15   6 C        2.977     0.018    27.593     8.616
    16   6 C        2.976     0.000    28.017     8.682
    17   6 C        2.924    -0.032    28.809     8.802
    18   6 C        2.920    -0.049    29.215     8.864
    19   6 C        2.923     0.067    26.504     8.442
    20   7 N        2.752    -0.071    22.623     7.064
    21   6 C        2.925     0.064    26.556     8.451
    22   6 C        2.922    -0.047    29.156     8.855
    23   6 C        2.920    -0.029    28.716     8.788
    24   6 C        2.919    -0.037    28.910     8.817
    25   6 C        2.920    -0.028    28.710     8.787
    26   6 C        2.922    -0.046    29.146     8.853
    27   6 C        2.925     0.064    26.556     8.451
    28   6 C        2.922    -0.047    29.155     8.855
    29   6 C        2.920    -0.029    28.716     8.788
    30   6 C        2.919    -0.037    28.913     8.818
    31   6 C        2.920    -0.029    28.713     8.787
    32   6 C        2.922    -0.046    29.151     8.854
    33   6 C        2.920    -0.048    29.201     8.862
    34   6 C        2.924    -0.032    28.808     8.802
    35   6 C        2.925    -0.035    28.882     8.813
    36   6 C        2.911    -0.027    28.672     8.780
    37   6 C        3.051    -0.007    28.139     8.700
    38   1 H        0.926     0.049     2.335     2.390
    39   1 H        0.926     0.042     2.428     2.437
    40   1 H        0.926     0.040     2.454     2.450
    41   1 H        0.926     0.037     2.486     2.466
    42   1 H        0.926     0.039     2.468     2.457
    43   1 H        0.926     0.035     2.516     2.481
    44   1 H        0.926     0.035     2.520     2.483
    45   1 H        0.926     0.032     2.554     2.499
    46   1 H        0.926     0.034     2.533     2.489
    47   1 H        0.926     0.033     2.543     2.494
    48   1 H        0.926     0.034     2.528     2.487
    49   1 H        0.926     0.033     2.541     2.493
    50   1 H        0.926     0.033     2.546     2.495
    51   1 H        0.926     0.034     2.532     2.488
    52   1 H        0.926     0.033     2.546     2.495
    53   1 H        0.926     0.034     2.532     2.489
    54   1 H        0.926     0.033     2.546     2.495
    55   1 H        0.926     0.036     2.508     2.476
    56   1 H        0.926     0.037     2.487     2.466
    57   1 H        0.926     0.042     2.427     2.436
    58   1 H        0.926     0.048     2.347     2.396

molecular dipole:
                 x           y           z       tot (Debye)
 q only:       -2.430      -0.102       1.566
   full:       -2.748      -0.124       1.943       8.559

 projected vibrational frequencies (cm⁻¹)
eigval :       -0.00    -0.00    -0.00    -0.00     0.00     0.00
eigval :       12.97    15.68    25.34    37.18    44.87    49.37
eigval :       58.26    65.30    67.58    73.42   102.32   110.81
eigval :      114.19   129.38   132.90   156.33   165.68   190.55
eigval :      211.69   223.38   235.38   240.64   266.00   301.94
eigval :      307.96   343.31   350.48   371.93   377.66   378.37
eigval :      380.86   387.32   394.28   416.68   429.70   433.34
eigval :      442.53   449.72   457.33   486.42   494.29   511.95
eigval :      541.83   561.05   580.97   583.72   585.18   590.95
eigval :      592.35   600.93   607.52   613.91   632.64   643.70
eigval :      660.40   666.70   684.31   693.59   708.61   717.57
eigval :      730.32   757.78   761.02   779.61   809.81   817.97
eigval :      837.65   867.81   875.27   875.95   876.62   878.32
eigval :      893.68   894.37   899.47   909.76   911.81   915.23
eigval :      918.35   920.99   925.62   927.59   928.32   929.40
eigval :      929.98   930.40   933.19   983.71  1005.25  1009.46
eigval :     1030.17  1075.61  1080.65  1082.92  1083.89  1114.57
eigval :     1121.64  1123.65  1143.26  1151.58  1177.82  1180.51
eigval :     1180.61  1186.55  1195.06  1195.72  1198.05  1201.31
eigval :     1216.51  1219.92  1236.88  1249.74  1271.22  1274.53
eigval :     1278.35  1281.39  1298.35  1311.48  1317.64  1322.54
eigval :     1326.16  1328.12  1335.41  1368.71  1405.37  1416.67
eigval :     1430.16  1436.12  1442.33  1453.72  1462.94  1470.80
eigval :     1474.83  1497.89  1549.50  1551.89  1565.07  1577.87
eigval :     1581.61  1583.90  1585.24  1594.16  1596.57  1601.57
eigval :     1612.21  2331.09  2361.68  3077.49  3077.66  3078.25
eigval :     3079.05  3079.15  3081.09  3082.39  3086.80  3087.36
eigval :     3088.23  3089.83  3090.63  3090.84  3092.45  3092.75
eigval :     3095.14  3097.78  3099.04  3099.40  3118.89  3121.59

   temp. (K)  partition function   enthalpy   heat capacity  entropy
                                   cal/mol     cal/K/mol   cal/K/mol   J/K/mol
 298.15  VIB  0.130E+14            17116.942    107.537    106.777
         ROT  0.498E+08              888.752      2.981     38.202
         INT  0.646E+21            18005.694    110.518    144.978
         TR   0.991E+28             1481.254      4.968     44.321
         TOT                       19486.9481   115.4857   189.2991   792.0273

       T/K    H(0)-H(T)+PV         H(T)/Eh          T*S/Eh         G(T)/Eh
   ------------------------------------------------------------------------
    298.15    0.310544E-01    0.466174E+00    0.899421E-01    0.376232E+00
   ------------------------------------------------------------------------

         :::::::::::::::::::::::::::::::::::::::::::::::::::::
         ::                  THERMODYNAMIC                  ::
         :::::::::::::::::::::::::::::::::::::::::::::::::::::
         :: total free energy         -91.824168987599 Eh   ::
         ::.................................................::
         :: total energy              -92.200400890624 Eh   ::
         :: zero point energy           0.435119566896 Eh   ::
         :: G(RRHO) w/o ZPVE           -0.058887663871 Eh   ::
         :: G(RRHO) contrib.            0.376231903024 Eh   ::
         :::::::::::::::::::::::::::::::::::::::::::::::::::::

           -------------------------------------------------
          | TOTAL ENERGY              -92.200400890624 Eh   |
          | TOTAL ENTHALPY            -91.734226895278 Eh   |
          | TOTAL FREE ENERGY         -91.824168987599 Eh   |
          | GRADIENT NORM               0.000168917087 Eh/α |
          | HOMO-LUMO GAP               0.903129897433 eV   |
           -------------------------------------------------

 * finished run on 2025/07/20 at 07:58:09.720
