   * xtb version 6.7.1 (edcfbbe) compiled by 'albert@albert-system' on 2024-07-22

   ID    Z sym.   atoms
    1    6 C      1-4, 6-14, 18-33
    2    7 N      5, 17
    3   16 S      15, 16
    4    1 H      34-51

          program call               : xtb data2507/toluene/PID-3/PID-3_toluene_S0_crest.xyz --gfn 2 --gbsa toluene --ohess vtight --parallel 40 --molden --ceasefiles --namespace data2507/toluene/PID-3/PID-3_toluene_S0_finalOpt
      * Solvation model:               GBSA
        Solvent                        toluene
        Solvent mass                       9.2140E+01 g/mol
          :  Hamiltonian                  GFN2-xTB          :
 * total energy  :   -83.6882529 Eh     change       -0.2115314E-08 Eh
 * total energy  :   -83.6882781 Eh     change       -0.2519499E-04 Eh
 * total energy  :   -83.6882865 Eh     change       -0.8384336E-05 Eh
 * total energy  :   -83.6882885 Eh     change       -0.1972602E-05 Eh
 * total energy  :   -83.6882906 Eh     change       -0.2129532E-05 Eh
 * total energy  :   -83.6882930 Eh     change       -0.2406120E-05 Eh
 * total energy  :   -83.6882961 Eh     change       -0.3111943E-05 Eh
 * total energy  :   -83.6882983 Eh     change       -0.2150311E-05 Eh
 * total energy  :   -83.6882991 Eh     change       -0.7868925E-06 Eh
 * total energy  :   -83.6882989 Eh     change        0.1948235E-06 Eh
 * total energy  :   -83.6883010 Eh     change       -0.6440604E-06 Eh
 * total energy  :   -83.6883015 Eh     change       -0.5110829E-06 Eh
 * total energy  :   -83.6883019 Eh     change       -0.3765682E-06 Eh
 * total energy  :   -83.6883022 Eh     change       -0.2677612E-06 Eh
 * total energy  :   -83.6883024 Eh     change       -0.1967537E-06 Eh
 * total energy  :   -83.6883025 Eh     change       -0.1668935E-06 Eh
 * total energy  :   -83.6883027 Eh     change       -0.1618926E-06 Eh
 * total energy  :   -83.6883028 Eh     change       -0.1604529E-06 Eh
 * total energy  :   -83.6883028 Eh     change       -0.1975579E-08 Eh
   *** GEOMETRY OPTIMIZATION CONVERGED AFTER 22 ITERATIONS ***

 final structure:
================
51
 xtb: 6.7.1 (edcfbbe)
C            1.23447643641684        4.06338199091290       -0.03578668653309
C            0.90003766234888        3.46557733001266        1.16844812359073
C            0.23531024875965        2.25251010845050        1.18157090224904
C           -0.09644917796498        1.63934928259560       -0.02159012286408
N           -0.76364441250309        0.39071520638528       -0.01470742598408
C           -0.15046722566072       -0.84136705049258       -0.01664495422010
C            1.25748482602922       -1.07655539343381       -0.01811182128692
C            1.84437364830960       -2.32112707481424       -0.03061820208291
C            3.24124093240495       -2.27880889503172       -0.02088468397569
C            3.74831823283287       -1.00135162229546       -0.00014919787366
C            5.11146224224510       -0.58344143703811        0.01864650504531
C            5.60815595671940        0.69555738419309        0.04373281859756
C            7.01420694747740        0.74252053702871        0.06045189179310
C            7.58134507918502       -0.49262321172433        0.04783816470580
S            6.40773762010870       -1.74910532676569        0.01502810868967
S            2.46314220597655        0.17583494252277        0.00558446107857
N           -1.02405484034439       -1.82918118429059       -0.01239510638906
C           -2.24591621638805       -1.24144439259381       -0.00654144630997
C           -3.52165888041307       -1.87434073369986        0.00270154451046
C           -3.64025112078710       -3.26849238230093        0.00506760229150
C           -4.87861524875264       -3.86107161639728        0.01610955022857
C           -6.01911718029225       -3.06030868157107        0.02530363978087
C           -5.91472502272137       -1.68859871704013        0.02270219223906
C           -4.66715480686144       -1.04498707616158        0.01106194869502
C           -4.52735536364585        0.40213134177000        0.00743369588144
C           -5.64351624098253        1.25122153341546        0.01372617029531
C           -5.51880719663705        2.62088780723157        0.00961044317562
C           -4.25755748583349        3.20900127956190       -0.00145509184328
C           -3.13806721649728        2.41375625912385       -0.00777014654136
C           -3.24386299006116        1.01518492437080       -0.00293652377438
C           -2.11662625861023        0.14806677802295       -0.00810404772701
C            0.23820632340636        2.23684032181166       -1.23176917686060
C            0.90288948226354        3.45001559969499       -1.23293008548504
H            1.75391687582251        5.00958957060287       -0.04136631377911
H            1.15699244364135        3.94272539727637        2.10199125273321
H           -0.03215082112928        1.77570918542350        2.11331152722940
H            1.25688509693062       -3.22054421086219       -0.04556724614111
H            3.86942298948123       -3.15202118419993       -0.02814605561486
H            4.97243564823200        1.56353586626847        0.05039386219287
H            7.58030536553999        1.65661143568068        0.08105498373410
H            8.62174298924879       -0.75031770167953        0.05574840987795
H           -2.73206690364274       -3.85188028514601       -0.00177124079917
H           -4.97215902732377       -4.93710582812321        0.01804009610198
H           -6.99635504025105       -3.52126880282195        0.03457785721336
H           -6.82492488759638       -1.11056674460753        0.03023902327936
H           -6.63632543846625        0.83158678435717        0.02182361086249
H           -6.40311601339907        3.24114074191729        0.01485211050737
H           -4.15806983098693        4.28433059740612       -0.00517311959667
H           -2.16050828466191        2.86883668924536       -0.01663160217798
H           -0.02690605343048        1.74806924445462       -2.15798009710677
H            1.16195346696403        3.91499569035421       -2.17202820771380

          :  Hamiltonian                  GFN2-xTB          :
         :: gradient norm              0.000032982383 Eh/a0 ::
         :: HOMO-LUMO gap              1.990686567280 eV    ::
         :: SCC energy               -85.155740182814 Eh    ::
         :: -> dispersion             -0.075163172065 Eh    ::
         :: -> Gsolv                  -0.037322107120 Eh    ::
         :: repulsion energy           1.467437338445 Eh    ::

    * Orbital Energies and Occupations

         #    Occupation            Energy/Eh            Energy/eV
      -------------------------------------------------------------
         1        2.0000           -0.7385827             -20.0979
       ...           ...                  ...                  ...
        66        2.0000           -0.4274918             -11.6326
        67        2.0000           -0.4236884             -11.5291
        68        2.0000           -0.4217730             -11.4770
        69        2.0000           -0.4196136             -11.4183
        70        2.0000           -0.4190073             -11.4018
        71        2.0000           -0.4101551             -11.1609
        72        2.0000           -0.4061806             -11.0527
        73        2.0000           -0.4031261             -10.9696
        74        2.0000           -0.4017977             -10.9335
        75        2.0000           -0.3857408             -10.4965
        76        2.0000           -0.3838429             -10.4449
        77        2.0000           -0.3832754             -10.4295
        78        2.0000           -0.3597535              -9.7894 (HOMO)
        79                         -0.2865971              -7.7987 (LUMO)
        80                         -0.2529743              -6.8838
        81                         -0.2517083              -6.8493
        82                         -0.2465628              -6.7093
        83                         -0.2416615              -6.5759
        84                         -0.2377504              -6.4695
        85                         -0.2143909              -5.8339
        86                         -0.2116111              -5.7582
        87                         -0.2028504              -5.5198
        88                         -0.1926807              -5.2431
        89                         -0.1911138              -5.2005
       ...                                ...                  ...
       160                          0.7231908              19.6790
      -------------------------------------------------------------
                  HL-Gap            0.0731564 Eh            1.9907 eV

     #   Z          covCN         q      C6AA      α(0)
     1   6 C        2.920    -0.026    28.659     8.779
     2   6 C        2.920    -0.024    28.606     8.771
     3   6 C        2.921    -0.035    28.870     8.811
     4   6 C        2.917     0.067    26.506     8.442
     5   7 N        2.838    -0.057    22.338     7.020
     6   6 C        3.208     0.139    24.412     8.045
     7   6 C        2.990     0.009    27.815     8.651
     8   6 C        3.103    -0.043    28.937     8.815
     9   6 C        3.096    -0.049    29.095     8.840
    10   6 C        3.021     0.023    27.467     8.597
    11   6 C        3.024     0.019    27.570     8.613
    12   6 C        3.108    -0.050    29.089     8.836
    13   6 C        3.105    -0.041    28.884     8.806
    14   6 C        2.940    -0.018    28.470     8.751
    15  16 S        2.323    -0.031   142.326    20.079
    16  16 S        2.339    -0.063   143.663    20.173
    17   7 N        1.895    -0.325    29.281     8.022
    18   6 C        3.203     0.063    26.035     8.313
    19   6 C        2.985    -0.004    28.107     8.696
    20   6 C        2.921    -0.033    28.820     8.804
    21   6 C        2.917    -0.031    28.783     8.798
    22   6 C        2.917    -0.034    28.838     8.806
    23   6 C        2.921    -0.036    28.898     8.815
    24   6 C        2.978    -0.004    28.123     8.699
    25   6 C        2.979    -0.001    28.043     8.686
    26   6 C        2.922    -0.035    28.864     8.810
    27   6 C        2.916    -0.033    28.828     8.805
    28   6 C        2.917    -0.032    28.793     8.799
    29   6 C        2.919    -0.040    29.004     8.832
    30   6 C        2.978    -0.006    28.158     8.704
    31   6 C        3.078     0.025    27.366     8.577
    32   6 C        2.921    -0.035    28.872     8.811
    33   6 C        2.920    -0.024    28.606     8.771
    34   1 H        0.926     0.052     2.299     2.371
    35   1 H        0.926     0.051     2.305     2.374
    36   1 H        0.926     0.041     2.430     2.438
    37   1 H        0.926     0.055     2.264     2.353
    38   1 H        0.926     0.050     2.320     2.382
    39   1 H        0.926     0.044     2.397     2.421
    40   1 H        0.926     0.046     2.376     2.411
    41   1 H        0.926     0.052     2.290     2.366
    42   1 H        0.926     0.043     2.413     2.429
    43   1 H        0.926     0.034     2.533     2.489
    44   1 H        0.926     0.034     2.533     2.489
    45   1 H        0.926     0.037     2.495     2.470
    46   1 H        0.926     0.039     2.465     2.455
    47   1 H        0.926     0.035     2.520     2.482
    48   1 H        0.926     0.034     2.533     2.489
    49   1 H        0.926     0.029     2.593     2.518
    50   1 H        0.926     0.041     2.433     2.439
    51   1 H        0.926     0.051     2.306     2.375

molecular dipole:
                 x           y           z       tot (Debye)
 q only:        0.695       1.405      -0.001
   full:        0.644       1.709      -0.000       4.641

 projected vibrational frequencies (cm⁻¹)
eigval :       -0.00    -0.00     0.00     0.00     0.00     0.00
eigval :       15.55    19.90    27.87    33.68    42.21    51.91
eigval :       54.14    68.20    77.17    83.14   104.77   130.51
eigval :      151.80   159.21   201.72   204.68   224.51   239.52
eigval :      261.18   261.95   291.09   331.88   341.44   369.72
eigval :      379.59   395.77   400.07   404.81   431.39   435.74
eigval :      452.69   458.48   487.09   494.53   517.25   522.54
eigval :      532.76   538.91   565.06   584.03   588.08   598.56
eigval :      628.09   642.51   649.41   665.88   670.09   674.87
eigval :      680.03   698.85   717.17   721.24   728.28   732.61
eigval :      735.01   758.96   764.79   781.04   782.14   802.54
eigval :      807.65   833.67   847.39   849.48   862.82   864.00
eigval :      869.93   874.43   898.69   906.85   913.56   922.91
eigval :      923.99   924.65   925.95   928.94   938.66   979.59
eigval :     1016.69  1052.63  1067.97  1072.16  1077.79  1080.54
eigval :     1084.41  1105.53  1114.31  1116.61  1144.59  1164.13
eigval :     1167.89  1176.01  1178.75  1182.32  1183.25  1186.51
eigval :     1207.11  1214.69  1250.45  1254.27  1272.89  1280.72
eigval :     1287.17  1310.28  1314.32  1333.06  1336.93  1344.83
eigval :     1366.78  1374.14  1403.58  1416.57  1428.86  1430.22
eigval :     1430.60  1438.35  1441.82  1472.81  1484.13  1512.32
eigval :     1518.34  1535.71  1557.04  1561.02  1567.79  1580.88
eigval :     1590.96  1592.07  1602.18  3069.33  3074.84  3080.90
eigval :     3080.91  3081.86  3085.32  3088.02  3093.17  3096.66
eigval :     3098.92  3101.90  3110.25  3114.91  3121.51  3126.74
eigval :     3131.70  3148.09  3162.78

   temp. (K)  partition function   enthalpy   heat capacity  entropy
                                   cal/mol     cal/K/mol   cal/K/mol   J/K/mol
 298.15  VIB  0.281E+12            14827.439     93.914     92.008
         ROT  0.299E+08              888.752      2.981     37.186
         INT  0.838E+19            15716.191     96.895    129.194
         TR   0.950E+28             1481.254      4.968     44.238
         TOT                       17197.4452   101.8635   173.4318   725.6388

       T/K    H(0)-H(T)+PV         H(T)/Eh          T*S/Eh         G(T)/Eh
   ------------------------------------------------------------------------
    298.15    0.274059E-01    0.401469E+00    0.824031E-01    0.319065E+00
   ------------------------------------------------------------------------

         :::::::::::::::::::::::::::::::::::::::::::::::::::::
         ::                  THERMODYNAMIC                  ::
         :::::::::::::::::::::::::::::::::::::::::::::::::::::
         :: total free energy         -83.369237406651 Eh   ::
         ::.................................................::
         :: total energy              -83.688302847269 Eh   ::
         :: zero point energy           0.374062631825 Eh   ::
         :: G(RRHO) w/o ZPVE           -0.054997191207 Eh   ::
         :: G(RRHO) contrib.            0.319065440618 Eh   ::
         :::::::::::::::::::::::::::::::::::::::::::::::::::::

           -------------------------------------------------
          | TOTAL ENERGY              -83.688302847269 Eh   |
          | TOTAL ENTHALPY            -83.286834342106 Eh   |
          | TOTAL FREE ENERGY         -83.369237406651 Eh   |
          | GRADIENT NORM               0.000032986450 Eh/α |
          | HOMO-LUMO GAP               1.990686578418 eV   |
           -------------------------------------------------

 * finished run on 2025/07/20 at 00:18:33.651
