   * xtb version 6.7.1 (edcfbbe) compiled by 'albert@albert-system' on 2024-07-22

   ID    Z sym.   atoms
    1    6 C      1-4, 6-14, 18-33
    2    7 N      5, 17
    3   16 S      15, 16
    4    1 H      34-51

          program call               : xtb data2507/toluene/PID-3/PID-3.xyz --gfn 2 --gbsa toluene --ohess vtight --parallel 40 --molden --ceasefiles --namespace data2507/toluene/PID-3/PID-3_toluene_S0_preOpt
      * Solvation model:               GBSA
        Solvent                        toluene
        Solvent mass                       9.2140E+01 g/mol
          :  Hamiltonian                  GFN2-xTB          :
 * total energy  :   -83.6676901 Eh     change       -0.3642526E-08 Eh
 * total energy  :   -83.6772359 Eh     change       -0.9545823E-02 Eh
 * total energy  :   -83.6796805 Eh     change       -0.2444606E-02 Eh
 * total energy  :   -83.6801879 Eh     change       -0.5074272E-03 Eh
 * total energy  :   -83.6805746 Eh     change       -0.3866710E-03 Eh
 * total energy  :   -83.6808613 Eh     change       -0.2867100E-03 Eh
 * total energy  :   -83.6812381 Eh     change       -0.3767508E-03 Eh
 * total energy  :   -83.6816707 Eh     change       -0.4326341E-03 Eh
 * total energy  :   -83.6820941 Eh     change       -0.4234091E-03 Eh
 * total energy  :   -83.6824973 Eh     change       -0.4032081E-03 Eh
 * total energy  :   -83.6864940 Eh     change       -0.1193282E-05 Eh
 * total energy  :   -83.6864946 Eh     change       -0.6016799E-06 Eh
 * total energy  :   -83.6864949 Eh     change       -0.2882664E-06 Eh
 * total energy  :   -83.6864952 Eh     change       -0.3072288E-06 Eh
 * total energy  :   -83.6864955 Eh     change       -0.3288052E-06 Eh
 * total energy  :   -83.6864958 Eh     change       -0.2742427E-06 Eh
 * total energy  :   -83.6864960 Eh     change       -0.2691626E-06 Eh
 * total energy  :   -83.6864963 Eh     change       -0.2766576E-06 Eh
 * total energy  :   -83.6864963 Eh     change       -0.5673414E-08 Eh
   *** GEOMETRY OPTIMIZATION CONVERGED AFTER 68 ITERATIONS ***

 final structure:
================
51
 xtb: 6.7.1 (edcfbbe)
C            1.63948310866186        3.90971226075531       -0.04267733377417
C            1.28139082340465        3.32253389734196        1.15986293902141
C            0.62748258475902        2.10364313948170        1.17087812331744
C            0.33082387519969        1.47380672256243       -0.03283062182015
N           -0.31971627413409        0.21620898573669       -0.02702874320059
C            0.31198222403284       -1.00616983813101       -0.00237310674473
C            1.72374676575806       -1.21508067597111        0.02701126515985
C            2.33709543472958       -2.44741365669642        0.02846189532344
C            3.73181390983468       -2.37649296624758        0.07054810311305
C            4.21167800519444       -1.08667442397799        0.10274572149128
C            5.56940682102194       -0.64754430753413        0.15324713513072
C            6.70970136499982       -1.41374628285185        0.16468995774880
C            7.88872186556190       -0.64874544671251        0.22247095992933
C            7.64770723316600        0.68888933432802        0.25466518199632
S            5.96716376124915        1.04707870218972        0.21506688574726
S            2.90232051553556        0.05986937723852        0.07761909471845
N           -0.54630661646616       -2.00738676508137       -0.00427535497011
C           -1.77691062208309       -1.43815539166202       -0.03010813841149
C           -3.04337893117301       -2.08947524532197       -0.03740817555895
C           -3.14217734624062       -3.48504026370283       -0.01708705193147
C           -4.37187093652698       -4.09551101507060       -0.02086862467668
C           -5.52377679667951       -3.31154389702085       -0.04513013653190
C           -5.43892573699637       -1.93864186774989       -0.06597995361698
C           -4.20077794512884       -1.27701512608908       -0.06321444814407
C           -4.08217925413133        0.17184242314643       -0.08475038876102
C           -5.21022442222960        1.00453484946983       -0.11620373398415
C           -5.10490980617993        2.37570597204936       -0.13607052257344
C           -3.85228347043935        2.98204569718528       -0.12554041478534
C           -2.72168009534728        2.20323635216126       -0.09580607511417
C           -2.80782331741875        0.80347170560756       -0.07521484627883
C           -1.66838903354000       -0.04692022842622       -0.04541359498075
C            0.68811242039243        2.06118821217223       -1.24146098089198
C            1.34146966176081        3.28048497172111       -1.24029986691589
H            2.15201307549670        4.85947917086620       -0.04651786137931
H            1.51230640692048        3.81192392543836        2.09375876087693
H            0.34234696805674        1.63427502124363        2.10122389644805
H            1.76921783662045       -3.35919886266392        0.00039608862264
H            4.36912916357237       -3.24167006681942        0.07829168959094
H            6.69793940650909       -2.48771357544725        0.13210305406230
H            8.87548587843068       -1.07619372255171        0.23918338380348
H            8.35425398185327        1.49367098097532        0.29938976740856
H           -2.22574428845890       -4.05515403199366        0.00203111440918
H           -4.44981187152427       -5.17270832471653       -0.00500258852115
H           -6.49438087616250       -3.78649307457464       -0.04754068684189
H           -6.35724169503287       -1.37380576917131       -0.08375434140094
H           -6.19688852585030        0.57063521531129       -0.12591018338607
H           -5.99786854735788        2.98302207648487       -0.15987248593438
H           -3.76815156719760        4.05859157571394       -0.14069624396217
H           -1.75068941137941        2.67221770302718       -0.08850402864107
H            0.45009655398440        1.55922736891986       -2.16808571955130
H            1.61921774098109        3.73719818508701       -2.17801876464936

          :  Hamiltonian                  GFN2-xTB          :
         :: gradient norm              0.000049597921 Eh/a0 ::
         :: HOMO-LUMO gap              1.991878347672 eV    ::
         :: SCC energy               -85.153610322675 Eh    ::
         :: -> dispersion             -0.075407674819 Eh    ::
         :: -> Gsolv                  -0.037369315758 Eh    ::
         :: repulsion energy           1.467114000212 Eh    ::

    * Orbital Energies and Occupations

         #    Occupation            Energy/Eh            Energy/eV
      -------------------------------------------------------------
         1        2.0000           -0.7378672             -20.0784
       ...           ...                  ...                  ...
        66        2.0000           -0.4270382             -11.6203
        67        2.0000           -0.4220696             -11.4851
        68        2.0000           -0.4207616             -11.4495
        69        2.0000           -0.4191768             -11.4064
        70        2.0000           -0.4183658             -11.3843
        71        2.0000           -0.4094229             -11.1410
        72        2.0000           -0.4054557             -11.0330
        73        2.0000           -0.4027166             -10.9585
        74        2.0000           -0.4007004             -10.9036
        75        2.0000           -0.3852879             -10.4842
        76        2.0000           -0.3833113             -10.4304
        77        2.0000           -0.3827489             -10.4151
        78        2.0000           -0.3592036              -9.7744 (HOMO)
        79                         -0.2860034              -7.7825 (LUMO)
        80                         -0.2524645              -6.8699
        81                         -0.2512620              -6.8372
        82                         -0.2451019              -6.6696
        83                         -0.2399822              -6.5302
        84                         -0.2367411              -6.4421
        85                         -0.2204225              -5.9980
        86                         -0.2109644              -5.7406
        87                         -0.1926448              -5.2421
        88                         -0.1915280              -5.2117
        89                         -0.1897117              -5.1623
       ...                                ...                  ...
       160                          0.7236600              19.6918
      -------------------------------------------------------------
                  HL-Gap            0.0732002 Eh            1.9919 eV

     #   Z          covCN         q      C6AA      α(0)
     1   6 C        2.920    -0.025    28.639     8.776
     2   6 C        2.920    -0.024    28.594     8.769
     3   6 C        2.921    -0.035    28.870     8.811
     4   6 C        2.917     0.066    26.514     8.444
     5   7 N        2.838    -0.057    22.337     7.020
     6   6 C        3.209     0.139    24.404     8.043
     7   6 C        2.989     0.008    27.830     8.654
     8   6 C        3.105    -0.044    28.950     8.816
     9   6 C        3.098    -0.051    29.134     8.846
    10   6 C        3.020     0.022    27.481     8.599
    11   6 C        3.021     0.018    27.573     8.613
    12   6 C        3.109    -0.051    29.124     8.842
    13   6 C        3.107    -0.042    28.893     8.807
    14   6 C        2.940    -0.019    28.474     8.752
    15  16 S        2.351    -0.027   142.188    20.069
    16  16 S        2.367    -0.056   143.372    20.153
    17   7 N        1.895    -0.326    29.295     8.024
    18   6 C        3.203     0.063    26.038     8.313
    19   6 C        2.985    -0.004    28.108     8.697
    20   6 C        2.921    -0.033    28.823     8.804
    21   6 C        2.917    -0.032    28.786     8.798
    22   6 C        2.917    -0.034    28.841     8.807
    23   6 C        2.921    -0.036    28.899     8.816
    24   6 C        2.978    -0.004    28.124     8.699
    25   6 C        2.979    -0.001    28.045     8.687
    26   6 C        2.922    -0.035    28.865     8.810
    27   6 C        2.916    -0.033    28.829     8.805
    28   6 C        2.917    -0.032    28.792     8.799
    29   6 C        2.919    -0.040    29.002     8.831
    30   6 C        2.978    -0.006    28.158     8.704
    31   6 C        3.078     0.025    27.364     8.576
    32   6 C        2.921    -0.035    28.873     8.812
    33   6 C        2.920    -0.024    28.594     8.769
    34   1 H        0.926     0.052     2.289     2.366
    35   1 H        0.926     0.051     2.301     2.372
    36   1 H        0.926     0.041     2.436     2.441
    37   1 H        0.926     0.054     2.265     2.353
    38   1 H        0.926     0.047     2.358     2.401
    39   1 H        0.926     0.042     2.418     2.432
    40   1 H        0.926     0.046     2.375     2.410
    41   1 H        0.926     0.053     2.286     2.364
    42   1 H        0.926     0.042     2.417     2.431
    43   1 H        0.926     0.033     2.537     2.491
    44   1 H        0.926     0.034     2.537     2.491
    45   1 H        0.926     0.036     2.496     2.471
    46   1 H        0.926     0.039     2.468     2.457
    47   1 H        0.926     0.035     2.521     2.483
    48   1 H        0.926     0.034     2.532     2.488
    49   1 H        0.926     0.030     2.588     2.516
    50   1 H        0.926     0.041     2.439     2.442
    51   1 H        0.926     0.051     2.303     2.373

molecular dipole:
                 x           y           z       tot (Debye)
 q only:        0.767       1.253      -0.003
   full:        0.837       1.143      -0.013       3.601

 projected vibrational frequencies (cm⁻¹)
eigval :       -0.00    -0.00     0.00     0.00     0.00     0.00
eigval :       15.34    21.54    29.38    34.39    41.31    47.18
eigval :       55.14    69.01    76.57    83.59    97.54   132.00
eigval :      159.25   170.94   200.06   202.93   225.86   237.66
eigval :      261.43   263.07   291.86   342.51   351.44   362.72
eigval :      370.15   396.34   400.79   403.33   430.26   436.09
eigval :      450.36   457.88   487.55   493.01   517.18   523.08
eigval :      532.79   538.90   565.37   584.37   588.09   605.38
eigval :      625.33   640.84   649.66   653.26   667.23   669.99
eigval :      679.59   696.96   716.98   722.52   731.42   732.12
eigval :      732.93   759.31   765.81   781.68   782.48   796.37
eigval :      800.74   843.12   845.28   848.01   863.07   871.17
eigval :      874.66   886.77   898.99   907.83   914.26   924.00
eigval :      925.74   925.89   926.43   929.59   938.68   979.80
eigval :     1016.70  1053.04  1068.53  1075.85  1078.14  1078.89
eigval :     1084.39  1106.11  1114.62  1116.67  1144.91  1161.69
eigval :     1166.98  1175.36  1175.86  1179.94  1183.12  1187.08
eigval :     1206.24  1213.05  1250.92  1255.26  1273.10  1281.10
eigval :     1290.06  1310.68  1319.48  1336.32  1339.49  1347.01
eigval :     1365.18  1374.60  1404.08  1416.97  1427.32  1429.54
eigval :     1430.23  1434.20  1439.14  1472.06  1483.06  1512.61
eigval :     1517.31  1533.59  1552.93  1559.28  1566.62  1581.17
eigval :     1590.97  1592.24  1602.31  3070.03  3074.82  3080.65
eigval :     3080.87  3081.97  3085.32  3088.89  3093.83  3096.28
eigval :     3098.80  3103.25  3110.01  3114.97  3124.49  3134.60
eigval :     3141.00  3147.91  3163.58

   temp. (K)  partition function   enthalpy   heat capacity  entropy
                                   cal/mol     cal/K/mol   cal/K/mol   J/K/mol
 298.15  VIB  0.259E+12            14816.105     93.840     91.827
         ROT  0.285E+08              888.752      2.981     37.096
         INT  0.740E+19            15704.857     96.821    128.923
         TR   0.950E+28             1481.254      4.968     44.238
         TOT                       17186.1111   101.7889   173.1602   724.5022

       T/K    H(0)-H(T)+PV         H(T)/Eh          T*S/Eh         G(T)/Eh
   ------------------------------------------------------------------------
    298.15    0.273878E-01    0.401530E+00    0.822740E-01    0.319256E+00
   ------------------------------------------------------------------------

         :::::::::::::::::::::::::::::::::::::::::::::::::::::
         ::                  THERMODYNAMIC                  ::
         :::::::::::::::::::::::::::::::::::::::::::::::::::::
         :: total free energy         -83.367240293462 Eh   ::
         ::.................................................::
         :: total energy              -83.686496322736 Eh   ::
         :: zero point energy           0.374142204058 Eh   ::
         :: G(RRHO) w/o ZPVE           -0.054886174784 Eh   ::
         :: G(RRHO) contrib.            0.319256029274 Eh   ::
         :::::::::::::::::::::::::::::::::::::::::::::::::::::

           -------------------------------------------------
          | TOTAL ENERGY              -83.686496322736 Eh   |
          | TOTAL ENTHALPY            -83.284966307354 Eh   |
          | TOTAL FREE ENERGY         -83.367240293462 Eh   |
          | GRADIENT NORM               0.000049601856 Eh/α |
          | HOMO-LUMO GAP               1.991878297875 eV   |
           -------------------------------------------------

 * finished run on 2025/07/20 at 00:16:30.526
