   * xtb version 6.7.1 (edcfbbe) compiled by 'albert@albert-system' on 2024-07-22

   ID    Z sym.   atoms
    1    6 C      1-4, 6-14, 18-33
    2    7 N      5, 17
    3   16 S      15, 16
    4    1 H      34-51

          program call               : xtb data2507/toluene/PID-3/PID-3_toluene_T1_crest.xyz --gfn 2 --uhf 2 --gbsa toluene --ohess vtight --parallel 40 --molden --ceasefiles --namespace data2507/toluene/PID-3/PID-3_toluene_T1_finalOpt
      * Solvation model:               GBSA
        Solvent                        toluene
        Solvent mass                       9.2140E+01 g/mol
          :  Hamiltonian                  GFN2-xTB          :
 * total energy  :   -83.6216789 Eh     change       -0.1783846E-08 Eh
 * total energy  :   -83.6217057 Eh     change       -0.2688006E-04 Eh
 * total energy  :   -83.6217162 Eh     change       -0.1045358E-04 Eh
 * total energy  :   -83.6217193 Eh     change       -0.3115029E-05 Eh
 * total energy  :   -83.6217226 Eh     change       -0.3305396E-05 Eh
 * total energy  :   -83.6217261 Eh     change       -0.3491158E-05 Eh
 * total energy  :   -83.6217296 Eh     change       -0.3476959E-05 Eh
 * total energy  :   -83.6217323 Eh     change       -0.2747089E-05 Eh
 * total energy  :   -83.6217338 Eh     change       -0.1485613E-05 Eh
 * total energy  :   -83.6217349 Eh     change       -0.1072182E-05 Eh
 * total energy  :   -83.6217624 Eh     change       -0.1129387E-05 Eh
 * total energy  :   -83.6217634 Eh     change       -0.9550274E-06 Eh
 * total energy  :   -83.6217643 Eh     change       -0.9330507E-06 Eh
 * total energy  :   -83.6217655 Eh     change       -0.1197838E-05 Eh
 * total energy  :   -83.6217667 Eh     change       -0.1191758E-05 Eh
 * total energy  :   -83.6217676 Eh     change       -0.8732167E-06 Eh
 * total energy  :   -83.6217681 Eh     change       -0.4759151E-06 Eh
 * total energy  :   -83.6217683 Eh     change       -0.2803342E-06 Eh
 * total energy  :   -83.6217683 Eh     change       -0.5929735E-08 Eh
   *** GEOMETRY OPTIMIZATION CONVERGED AFTER 44 ITERATIONS ***

 final structure:
================
51
 xtb: 6.7.1 (edcfbbe)
C            1.17018709305661        4.12607079090716        0.00033364710575
C            0.86797954249295        3.50421254940437        1.20071834257433
C            0.22108973622821        2.28150946459348        1.20687767913530
C           -0.12492630276461        1.68258091504575        0.00070760987949
N           -0.77337303582115        0.42505330780734        0.00024995790930
C           -0.11784940691991       -0.80940631328775       -0.01171839664141
C            1.24981708786818       -1.01629221795340       -0.02202045648250
C            1.86444158802865       -2.30250550370222       -0.03268796146447
C            3.22032755059788       -2.26816216924772       -0.04188947271901
C            3.76686513564811       -0.95440087384972       -0.03879908924480
C            5.09296473926431       -0.57516015763251       -0.04410188984576
C            5.63204009463552        0.72381483467237       -0.04067384319849
C            7.01850456983478        0.73916764609496       -0.04719172650541
C            7.57947947840106       -0.51553670731533       -0.05562276757502
S            6.39562388561541       -1.76735606558714       -0.05596575716312
S            2.47082495917131        0.24946299179374       -0.02422875816173
N           -1.00261588599702       -1.82329245793036       -0.01324401176533
C           -2.21225497869776       -1.25809752320853       -0.00268773445346
C           -3.48100959726399       -1.90839709706856       -0.00109154582041
C           -3.57209331934730       -3.30390863790043       -0.01260846781494
C           -4.79995505196904       -3.92212448696981       -0.01229906195108
C           -5.95399802827286       -3.14320107469330       -0.00010992139257
C           -5.87600153504567       -1.76763242180556        0.01160018297555
C           -4.64242283874079       -1.10034150523455        0.01139311345387
C           -4.53110303255083        0.34962710791147        0.02329637114183
C           -5.66043679758601        1.17645253468249        0.03794087247970
C           -5.56205281404499        2.55032597787310        0.04957633168951
C           -4.31142341680120        3.16458767286014        0.04750095966818
C           -3.17725749694931        2.39328863644460        0.03343455860950
C           -3.25413080731759        0.98808868929135        0.02076845543137
C           -2.11327386857347        0.15383828057113        0.00630307056640
C            0.17842998541401        2.30382610581766       -1.20567648086162
C            0.82529313311143        3.52647528568026       -1.19994016330161
H            1.67696408794240        5.07915380803289        0.00017100094141
H            1.13836910610958        3.96894039213355        2.13675572970458
H           -0.01873678092981        1.78514035433173        2.13588361704609
H            1.25468622222868       -3.18700939541751       -0.03280585512178
H            3.86239788451854       -3.13112869151612       -0.05059548437928
H            5.00137442542689        1.59443087966846       -0.03373342151029
H            7.60871274138623        1.63884781105299       -0.04577288579143
H            8.61808915463708       -0.77850303625097       -0.06152246535437
H           -2.65228061329562       -3.86852691792553       -0.02183878793044
H           -4.87144558907626       -4.99944399370240       -0.02138038769737
H           -6.92278995607370       -3.62139535138833        0.00025274269108
H           -6.79732276750142       -1.20797608365675        0.02071835403721
H           -6.64546980963232        0.73908776063866        0.04064074254363
H           -6.45829230119720        3.15259049959602        0.06039185754772
H           -4.23444141330564        4.24148238176808        0.05679358897758
H           -2.20798106502934        2.86542816083458        0.03220852033480
H           -0.09453954960246        1.82460439852527       -2.13455870114368
H            1.06225856278907        4.00850548601127       -2.13629251155692

          :  Hamiltonian                  GFN2-xTB          :
         :: gradient norm              0.000041705280 Eh/a0 ::
         :: HOMO-LUMO gap              0.962225876354 eV    ::
         :: SCC energy               -85.076483347513 Eh    ::
         :: -> dispersion             -0.075043178167 Eh    ::
         :: -> Gsolv                  -0.037452518610 Eh    ::
         :: repulsion energy           1.454714999811 Eh    ::

    * Orbital Energies and Occupations

         #    Occupation            Energy/Eh            Energy/eV
      -------------------------------------------------------------
         1        2.0000           -0.7298775             -19.8610
       ...           ...                  ...                  ...
        67        2.0000           -0.4243425             -11.5469
        68        2.0000           -0.4231770             -11.5152
        69        2.0000           -0.4225332             -11.4977
        70        2.0000           -0.4190669             -11.4034
        71        2.0000           -0.4128718             -11.2348
        72        2.0000           -0.4075643             -11.0904
        73        2.0000           -0.4027938             -10.9606
        74        2.0000           -0.3997390             -10.8775
        75        2.0000           -0.3896515             -10.6030
        76        2.0000           -0.3867778             -10.5248
        77        2.0000           -0.3830387             -10.4230
        78        1.0000           -0.3528139              -9.6006
        79        1.0000           -0.2934183              -7.9843 (HOMO)
        80                         -0.2580571              -7.0221 (LUMO)
        81                         -0.2558525              -6.9621
        82                         -0.2456829              -6.6854
        83                         -0.2406065              -6.5472
        84                         -0.2392876              -6.5113
        85                         -0.2162194              -5.8836
        86                         -0.2148615              -5.8467
        87                         -0.2014087              -5.4806
        88                         -0.1971353              -5.3643
        89                         -0.1909586              -5.1962
        90                         -0.1606847              -4.3725
       ...                                ...                  ...
       160                          0.7196158              19.5817
      -------------------------------------------------------------
                  HL-Gap            0.0353612 Eh            0.9622 eV

     #   Z          covCN         q      C6AA      α(0)
     1   6 C        2.920    -0.026    28.651     8.778
     2   6 C        2.920    -0.024    28.599     8.770
     3   6 C        2.921    -0.034    28.851     8.808
     4   6 C        2.915     0.068    26.478     8.438
     5   7 N        2.823    -0.064    22.475     7.041
     6   6 C        3.179     0.137    24.639     8.104
     7   6 C        2.982     0.010    27.778     8.645
     8   6 C        3.046    -0.037    28.881     8.814
     9   6 C        3.039    -0.043    29.039     8.839
    10   6 C        3.016     0.026    27.414     8.589
    11   6 C        3.019     0.024    27.443     8.593
    12   6 C        3.072    -0.054    29.259     8.869
    13   6 C        3.080    -0.036    28.794     8.797
    14   6 C        2.936    -0.018    28.468     8.751
    15  16 S        2.272    -0.061   143.600    20.169
    16  16 S        2.241    -0.128   146.449    20.368
    17   7 N        1.885    -0.325    29.289     8.023
    18   6 C        3.181     0.079    25.829     8.296
    19   6 C        2.984    -0.006    28.158     8.704
    20   6 C        2.922    -0.028    28.704     8.786
    21   6 C        2.916    -0.030    28.755     8.793
    22   6 C        2.917    -0.029    28.732     8.790
    23   6 C        2.921    -0.034    28.846     8.808
    24   6 C        2.977    -0.001    28.049     8.687
    25   6 C        2.978     0.001    27.992     8.679
    26   6 C        2.921    -0.033    28.812     8.802
    27   6 C        2.916    -0.030    28.745     8.792
    28   6 C        2.915    -0.030    28.760     8.794
    29   6 C        2.919    -0.036    28.901     8.816
    30   6 C        2.976    -0.008    28.218     8.713
    31   6 C        3.056     0.039    27.073     8.533
    32   6 C        2.921    -0.034    28.853     8.809
    33   6 C        2.920    -0.024    28.600     8.770
    34   1 H        0.926     0.051     2.303     2.373
    35   1 H        0.926     0.051     2.309     2.376
    36   1 H        0.926     0.041     2.435     2.440
    37   1 H        0.926     0.054     2.267     2.355
    38   1 H        0.926     0.049     2.337     2.391
    39   1 H        0.926     0.041     2.441     2.443
    40   1 H        0.926     0.043     2.411     2.428
    41   1 H        0.926     0.049     2.338     2.391
    42   1 H        0.926     0.047     2.357     2.401
    43   1 H        0.926     0.039     2.466     2.456
    44   1 H        0.926     0.040     2.455     2.450
    45   1 H        0.926     0.042     2.423     2.434
    46   1 H        0.926     0.043     2.403     2.424
    47   1 H        0.926     0.040     2.453     2.449
    48   1 H        0.926     0.038     2.478     2.462
    49   1 H        0.926     0.033     2.542     2.493
    50   1 H        0.926     0.041     2.436     2.441
    51   1 H        0.926     0.051     2.309     2.376

molecular dipole:
                 x           y           z       tot (Debye)
 q only:       -0.685       1.324       0.011
   full:       -0.695       1.622       0.013       4.485

 projected vibrational frequencies (cm⁻¹)
eigval :       -0.00    -0.00    -0.00    -0.00    -0.00    -0.00
eigval :       13.10    16.49    28.58    32.70    34.11    54.07
eigval :       58.43    70.56    81.54    92.70   103.15   123.41
eigval :      150.67   151.97   175.58   203.92   223.21   238.94
eigval :      246.34   260.01   267.16   323.70   332.96   369.59
eigval :      371.57   377.43   393.38   402.50   405.84   429.33
eigval :      434.80   446.76   451.14   485.57   503.68   516.38
eigval :      516.68   526.83   539.83   571.72   584.32   585.05
eigval :      620.30   623.72   639.22   650.40   659.80   663.06
eigval :      670.70   673.23   676.90   693.08   700.82   711.21
eigval :      729.98   747.39   758.64   762.37   778.33   779.89
eigval :      780.03   818.38   834.16   844.32   849.65   860.69
eigval :      870.27   872.24   899.51   906.36   906.59   915.29
eigval :      921.01   924.74   924.86   929.44   932.41   976.98
eigval :     1004.95  1042.60  1063.62  1071.05  1077.84  1082.27
eigval :     1088.17  1102.25  1104.92  1114.68  1119.72  1143.36
eigval :     1153.68  1161.61  1175.94  1178.36  1179.82  1181.85
eigval :     1186.55  1206.38  1225.89  1246.49  1252.77  1265.51
eigval :     1272.75  1281.96  1300.49  1310.13  1324.91  1333.41
eigval :     1335.88  1353.79  1386.02  1394.05  1412.90  1418.81
eigval :     1428.76  1429.89  1443.52  1468.97  1473.92  1498.45
eigval :     1511.76  1514.11  1535.92  1546.62  1562.84  1576.41
eigval :     1580.38  1589.14  1590.41  3074.46  3079.37  3080.95
eigval :     3081.69  3085.78  3087.99  3089.20  3092.86  3099.42
eigval :     3101.66  3102.07  3112.38  3117.46  3119.33  3125.15
eigval :     3133.64  3147.57  3165.27

   temp. (K)  partition function   enthalpy   heat capacity  entropy
                                   cal/mol     cal/K/mol   cal/K/mol   J/K/mol
 298.15  VIB  0.597E+12            15140.892     95.600     94.021
         ROT  0.301E+08              888.752      2.981     37.199
         INT  0.179E+20            16029.644     98.581    131.219
         TR   0.950E+28             1481.254      4.968     44.238
         TOT                       17510.8983   103.5494   175.4569   734.1115

       T/K    H(0)-H(T)+PV         H(T)/Eh          T*S/Eh         G(T)/Eh
   ------------------------------------------------------------------------
    298.15    0.279054E-01    0.399029E+00    0.833652E-01    0.315664E+00
   ------------------------------------------------------------------------

         :::::::::::::::::::::::::::::::::::::::::::::::::::::
         ::                  THERMODYNAMIC                  ::
         :::::::::::::::::::::::::::::::::::::::::::::::::::::
         :: total free energy         -83.306104595982 Eh   ::
         ::.................................................::
         :: total energy              -83.621768349686 Eh   ::
         :: zero point energy           0.371123581860 Eh   ::
         :: G(RRHO) w/o ZPVE           -0.055459828156 Eh   ::
         :: G(RRHO) contrib.            0.315663753704 Eh   ::
         :::::::::::::::::::::::::::::::::::::::::::::::::::::

           -------------------------------------------------
          | TOTAL ENERGY              -83.621768349686 Eh   |
          | TOTAL ENTHALPY            -83.222739375069 Eh   |
          | TOTAL FREE ENERGY         -83.306104595982 Eh   |
          | GRADIENT NORM               0.000041745997 Eh/α |
          | HOMO-LUMO GAP               0.962227557379 eV   |
           -------------------------------------------------

 * finished run on 2025/07/20 at 00:20:40.980
