   * xtb version 6.7.1 (edcfbbe) compiled by 'albert@albert-system' on 2024-07-22

   ID    Z sym.   atoms
    1    6 C      1-4, 6-14, 18-33
    2    7 N      5, 17
    3   16 S      15, 16
    4    1 H      34-51

          program call               : xtb data2507/toluene/PID-3/PID-3_toluene_S0_finalOpt.xtbopt.xyz --gfn 2 --uhf 2 --gbsa toluene --ohess vtight --parallel 40 --molden --ceasefiles --namespace data2507/toluene/PID-3/PID-3_toluene_T1_preOpt
      * Solvation model:               GBSA
        Solvent                        toluene
        Solvent mass                       9.2140E+01 g/mol
          :  Hamiltonian                  GFN2-xTB          :
 * total energy  :   -83.6123118 Eh     change       -0.3547783E-08 Eh
 * total energy  :   -83.6196364 Eh     change       -0.7324605E-02 Eh
 * total energy  :   -83.6216361 Eh     change       -0.1999753E-02 Eh
 * total energy  :   -83.6216935 Eh     change       -0.5733306E-04 Eh
 * total energy  :   -83.6217203 Eh     change       -0.2682658E-04 Eh
 * total energy  :   -83.6217285 Eh     change       -0.8253101E-05 Eh
 * total energy  :   -83.6217353 Eh     change       -0.6810250E-05 Eh
 * total energy  :   -83.6217425 Eh     change       -0.7200319E-05 Eh
 * total energy  :   -83.6217493 Eh     change       -0.6721371E-05 Eh
 * total energy  :   -83.6217549 Eh     change       -0.5586683E-05 Eh
 * total energy  :   -83.6217657 Eh     change       -0.1477517E-05 Eh
 * total energy  :   -83.6217670 Eh     change       -0.1303979E-05 Eh
 * total energy  :   -83.6217683 Eh     change       -0.1343711E-05 Eh
 * total energy  :   -83.6217698 Eh     change       -0.1452572E-05 Eh
 * total energy  :   -83.6217712 Eh     change       -0.1432652E-05 Eh
 * total energy  :   -83.6217722 Eh     change       -0.9524070E-06 Eh
 * total energy  :   -83.6217725 Eh     change       -0.3335953E-06 Eh
 * total energy  :   -83.6217727 Eh     change       -0.1320081E-06 Eh
 * total energy  :   -83.6217727 Eh     change       -0.1259622E-08 Eh
   *** GEOMETRY OPTIMIZATION CONVERGED AFTER 22 ITERATIONS ***

 final structure:
================
51
 xtb: 6.7.1 (edcfbbe)
C            1.20604802446299        4.11714049877358       -0.01119341816866
C            0.86609518184272        3.51437012948527        1.18890267842289
C            0.20940621521225        2.29697165448595        1.19388458312774
C           -0.10832754718768        1.68398107023453       -0.01302919903745
N           -0.76810767584950        0.43235293254741       -0.01339109038456
C           -0.12445762054454       -0.80836825506394       -0.01205575886382
C            1.24118413597993       -1.02838384418278       -0.01205507394574
C            1.84353590824898       -2.32041514918732       -0.00996019486482
C            3.19969518795735       -2.29900966813282       -0.00373644012605
C            3.75875707811345       -0.99051000807761       -0.00043012008146
C            5.08850438462836       -0.62432037901074        0.00991024345079
C            5.64062084386025        0.66915031715398        0.01623684822329
C            7.02713982975963        0.67052855243154        0.02912912756818
C            7.57549091042546       -0.58976763119704        0.03240550095477
S            6.37915180255579       -1.82957014185910        0.01962763298052
S            2.47418317997905        0.22571054452284       -0.00844466174938
N           -1.01891727922540       -1.81371782170992       -0.00727687658456
C           -2.22311187422032       -1.23689314261302       -0.00382106730080
C           -3.49810236914395       -1.87484633126354        0.00592036275713
C           -3.60275239379207       -3.26943617163049        0.01413976521374
C           -4.83654025129140       -3.87560554958323        0.02706786864641
C           -5.98292598287789       -3.08540108674001        0.03236670688613
C           -5.89159963171639       -1.71064161726865        0.02363453695292
C           -4.65163051075861       -1.05546034914839        0.00963900020922
C           -4.52636745244643        0.39337719310542       -0.00098279384351
C           -5.64769131250707        1.23116297842695       -0.00424105432407
C           -5.53606771353047        2.60402768959909       -0.01560137853205
C           -4.27956408106772        3.20610353646991       -0.02441193155367
C           -3.15289393898820        2.42379345102222       -0.02149106740530
C           -3.24329566753681        1.01939781013747       -0.00967907059308
C           -2.11055608459748        0.17404131653797       -0.00803954173956
C            0.23316551648224        2.28585680735471       -1.21901967500776
C            0.88957195673798        3.50348554942604       -1.21211895933601
H            1.71991002990576        5.06643045929060       -0.01045886513631
H            1.11418929649070        3.99001857608385        2.12564523414313
H           -0.06006973478988        1.81543468824021        2.12259104355070
H            1.22544091908440       -3.19911095403665       -0.01259493475270
H            3.83349310133301       -3.16810454816389       -0.00073961195927
H            5.01881360190974        1.54612644146176        0.01186873315340
H            7.62627112857127        1.56427004846504        0.03598585588427
H            8.61135526628424       -0.86327888365088        0.04143813352213
H           -2.68853156822119       -3.84311056693465        0.01048535818626
H           -4.91857805514384       -4.95218555198875        0.03365087792687
H           -6.95624680555466       -3.55414096235590        0.04341992734586
H           -6.80742124290404       -1.14197634488688        0.02865919563660
H           -6.63693194936950        0.80342713957360        0.00140575820382
H           -6.42647246966006        3.21497581751721       -0.01791613255198
H           -4.19206510694973        4.28218949992305       -0.03381294417301
H           -2.17915492935411        2.88655431919397       -0.02893639964305
H           -0.01786311745297        1.79588920366656       -2.14846982582668
H            1.15589871977276        3.97078753129576       -2.14805208361809

          :  Hamiltonian                  GFN2-xTB          :
         :: gradient norm              0.000026903800 Eh/a0 ::
         :: HOMO-LUMO gap              0.962320618803 eV    ::
         :: SCC energy               -85.076487387336 Eh    ::
         :: -> dispersion             -0.075040409059 Eh    ::
         :: -> Gsolv                  -0.037460035965 Eh    ::
         :: repulsion energy           1.454714733994 Eh    ::

    * Orbital Energies and Occupations

         #    Occupation            Energy/Eh            Energy/eV
      -------------------------------------------------------------
         1        2.0000           -0.7298782             -19.8610
       ...           ...                  ...                  ...
        67        2.0000           -0.4243448             -11.5470
        68        2.0000           -0.4231782             -11.5153
        69        2.0000           -0.4225345             -11.4977
        70        2.0000           -0.4190668             -11.4034
        71        2.0000           -0.4128661             -11.2347
        72        2.0000           -0.4075639             -11.0904
        73        2.0000           -0.4027984             -10.9607
        74        2.0000           -0.3997385             -10.8774
        75        2.0000           -0.3896514             -10.6030
        76        2.0000           -0.3867756             -10.5247
        77        2.0000           -0.3830415             -10.4231
        78        1.0000           -0.3528147              -9.6006
        79        1.0000           -0.2934206              -7.9844 (HOMO)
        80                         -0.2580559              -7.0221 (LUMO)
        81                         -0.2558520              -6.9621
        82                         -0.2456920              -6.6856
        83                         -0.2406096              -6.5473
        84                         -0.2392875              -6.5113
        85                         -0.2162275              -5.8838
        86                         -0.2148624              -5.8467
        87                         -0.2014110              -5.4807
        88                         -0.1971336              -5.3643
        89                         -0.1909600              -5.1963
        90                         -0.1606857              -4.3725
       ...                                ...                  ...
       160                          0.7196139              19.5817
      -------------------------------------------------------------
                  HL-Gap            0.0353647 Eh            0.9623 eV

     #   Z          covCN         q      C6AA      α(0)
     1   6 C        2.920    -0.026    28.651     8.778
     2   6 C        2.920    -0.024    28.600     8.770
     3   6 C        2.921    -0.034    28.852     8.808
     4   6 C        2.915     0.068    26.478     8.438
     5   7 N        2.823    -0.064    22.474     7.041
     6   6 C        3.179     0.137    24.639     8.104
     7   6 C        2.982     0.010    27.778     8.645
     8   6 C        3.046    -0.037    28.881     8.814
     9   6 C        3.039    -0.043    29.040     8.839
    10   6 C        3.016     0.026    27.414     8.589
    11   6 C        3.019     0.024    27.444     8.593
    12   6 C        3.072    -0.054    29.259     8.869
    13   6 C        3.080    -0.036    28.794     8.797
    14   6 C        2.936    -0.018    28.468     8.751
    15  16 S        2.272    -0.061   143.600    20.169
    16  16 S        2.241    -0.128   146.448    20.368
    17   7 N        1.885    -0.325    29.289     8.023
    18   6 C        3.181     0.079    25.829     8.296
    19   6 C        2.984    -0.006    28.158     8.704
    20   6 C        2.922    -0.028    28.704     8.786
    21   6 C        2.916    -0.030    28.755     8.793
    22   6 C        2.917    -0.029    28.732     8.790
    23   6 C        2.921    -0.034    28.846     8.808
    24   6 C        2.977    -0.001    28.049     8.687
    25   6 C        2.978     0.001    27.992     8.679
    26   6 C        2.921    -0.033    28.812     8.802
    27   6 C        2.916    -0.030    28.745     8.792
    28   6 C        2.915    -0.030    28.760     8.794
    29   6 C        2.919    -0.036    28.901     8.816
    30   6 C        2.976    -0.008    28.218     8.713
    31   6 C        3.056     0.039    27.073     8.533
    32   6 C        2.921    -0.034    28.852     8.808
    33   6 C        2.920    -0.024    28.599     8.770
    34   1 H        0.926     0.051     2.303     2.373
    35   1 H        0.926     0.051     2.309     2.376
    36   1 H        0.926     0.041     2.436     2.441
    37   1 H        0.926     0.054     2.267     2.355
    38   1 H        0.926     0.049     2.337     2.391
    39   1 H        0.926     0.041     2.442     2.443
    40   1 H        0.926     0.043     2.411     2.428
    41   1 H        0.926     0.049     2.338     2.391
    42   1 H        0.926     0.047     2.357     2.401
    43   1 H        0.926     0.039     2.466     2.456
    44   1 H        0.926     0.040     2.455     2.450
    45   1 H        0.926     0.042     2.423     2.434
    46   1 H        0.926     0.043     2.403     2.424
    47   1 H        0.926     0.040     2.453     2.449
    48   1 H        0.926     0.038     2.478     2.462
    49   1 H        0.926     0.033     2.542     2.493
    50   1 H        0.926     0.041     2.435     2.440
    51   1 H        0.926     0.051     2.309     2.376

molecular dipole:
                 x           y           z       tot (Debye)
 q only:       -0.674       1.331       0.002
   full:       -0.680       1.629       0.003       4.487

 projected vibrational frequencies (cm⁻¹)
eigval :       -0.00     0.00     0.00     0.00     0.00     0.00
eigval :       14.73    17.42    31.18    33.52    34.13    54.68
eigval :       58.75    71.50    81.76    93.26   103.25   123.45
eigval :      150.78   152.34   175.89   204.00   223.30   239.08
eigval :      246.50   260.09   267.29   323.65   333.25   368.75
eigval :      371.56   377.46   393.53   402.51   406.00   429.41
eigval :      435.01   446.94   451.31   485.56   503.84   516.25
eigval :      516.77   526.72   539.91   571.72   584.44   585.06
eigval :      620.52   623.72   639.19   650.35   659.85   662.92
eigval :      670.22   673.38   676.90   692.99   700.75   711.08
eigval :      730.23   747.27   758.21   761.59   778.00   779.57
eigval :      779.74   818.34   833.45   844.26   849.52   860.67
eigval :      869.67   871.92   898.78   905.63   906.55   914.59
eigval :      920.41   923.77   924.42   928.26   932.42   976.93
eigval :     1004.99  1042.32  1063.24  1070.67  1077.85  1082.26
eigval :     1088.14  1102.03  1104.46  1114.46  1119.75  1143.36
eigval :     1153.68  1162.56  1175.88  1178.22  1179.95  1182.35
eigval :     1186.23  1206.32  1225.88  1246.23  1252.48  1265.55
eigval :     1272.88  1281.99  1300.27  1310.12  1324.76  1333.37
eigval :     1335.87  1353.80  1386.02  1393.75  1412.88  1418.57
eigval :     1428.72  1429.88  1443.49  1468.93  1473.97  1498.43
eigval :     1511.70  1514.06  1535.89  1546.58  1562.84  1576.31
eigval :     1580.37  1589.09  1590.43  3074.43  3079.49  3081.16
eigval :     3081.52  3085.75  3087.90  3089.35  3093.04  3099.55
eigval :     3101.59  3102.03  3112.44  3117.63  3119.14  3125.17
eigval :     3133.75  3147.18  3165.27

   temp. (K)  partition function   enthalpy   heat capacity  entropy
                                   cal/mol     cal/K/mol   cal/K/mol   J/K/mol
 298.15  VIB  0.439E+12            15128.993     95.693     93.773
         ROT  0.301E+08              888.752      2.981     37.199
         INT  0.132E+20            16017.745     98.673    130.972
         TR   0.950E+28             1481.254      4.968     44.238
         TOT                       17498.9992   103.6416   175.2098   733.0777

       T/K    H(0)-H(T)+PV         H(T)/Eh          T*S/Eh         G(T)/Eh
   ------------------------------------------------------------------------
    298.15    0.278864E-01    0.399006E+00    0.832478E-01    0.315759E+00
   ------------------------------------------------------------------------

         :::::::::::::::::::::::::::::::::::::::::::::::::::::
         ::                  THERMODYNAMIC                  ::
         :::::::::::::::::::::::::::::::::::::::::::::::::::::
         :: total free energy         -83.306013999452 Eh   ::
         ::.................................................::
         :: total energy              -83.621772657211 Eh   ::
         :: zero point energy           0.371120048527 Eh   ::
         :: G(RRHO) w/o ZPVE           -0.055361390768 Eh   ::
         :: G(RRHO) contrib.            0.315758657759 Eh   ::
         :::::::::::::::::::::::::::::::::::::::::::::::::::::

           -------------------------------------------------
          | TOTAL ENERGY              -83.621772657211 Eh   |
          | TOTAL ENTHALPY            -83.222766178338 Eh   |
          | TOTAL FREE ENERGY         -83.306013999452 Eh   |
          | GRADIENT NORM               0.000026920771 Eh/α |
          | HOMO-LUMO GAP               0.962321651595 eV   |
           -------------------------------------------------

 * finished run on 2025/07/20 at 00:18:36.026
