   * xtb version 6.7.1 (edcfbbe) compiled by 'albert@albert-system' on 2024-07-22

   ID    Z sym.   atoms
    1    8 O      1, 3, 15, 16, 24, 25, 33, 34
    2    6 C      2, 4-14, 17-23, 26-32, 35-38
    3    1 H      39-60

          program call               : xtb data2507/toluene/H4TCPE/H4TCPE.xyz --gfn 2 --gbsa toluene --ohess vtight --parallel 40 --molden --ceasefiles --namespace data2507/toluene/H4TCPE/H4TCPE_toluene_S0_preOpt
      * Solvation model:               GBSA
        Solvent                        toluene
        Solvent mass                       9.2140E+01 g/mol
          :  Hamiltonian                  GFN2-xTB          :
 * total energy  :  -108.0590431 Eh     change       -0.6633201E-09 Eh
 * total energy  :  -108.0727428 Eh     change       -0.1369972E-01 Eh
 * total energy  :  -108.0782491 Eh     change       -0.5506272E-02 Eh
 * total energy  :  -108.0797552 Eh     change       -0.1506131E-02 Eh
 * total energy  :  -108.0803108 Eh     change       -0.5556546E-03 Eh
 * total energy  :  -108.0805125 Eh     change       -0.2016150E-03 Eh
 * total energy  :  -108.0806368 Eh     change       -0.1243394E-03 Eh
 * total energy  :  -108.0807345 Eh     change       -0.9770632E-04 Eh
 * total energy  :  -108.0808111 Eh     change       -0.7656557E-04 Eh
 * total energy  :  -108.0808715 Eh     change       -0.6042713E-04 Eh
 * total energy  :  -108.0812413 Eh     change       -0.1257187E-05 Eh
 * total energy  :  -108.0812421 Eh     change       -0.7902882E-06 Eh
 * total energy  :  -108.0812425 Eh     change       -0.3947096E-06 Eh
 * total energy  :  -108.0812428 Eh     change       -0.3041131E-06 Eh
 * total energy  :  -108.0812431 Eh     change       -0.2918027E-06 Eh
 * total energy  :  -108.0812434 Eh     change       -0.3176097E-06 Eh
 * total energy  :  -108.0812437 Eh     change       -0.2927780E-06 Eh
 * total energy  :  -108.0812438 Eh     change       -0.1351264E-06 Eh
 * total energy  :  -108.0812438 Eh     change       -0.6418617E-09 Eh
   *** GEOMETRY OPTIMIZATION CONVERGED AFTER 40 ITERATIONS ***

 final structure:
================
60
 xtb: 6.7.1 (edcfbbe)
O            6.63948383014008       -0.18237991234753       -1.44917078325305
C            5.82419389941673        0.71371876281174       -1.37915242864112
O            6.19703675766318        1.98781821094095       -1.19205894683541
C            4.36612501260283        0.53187944826688       -1.48600436647002
C            3.86016376392912       -0.75301815868751       -1.68168505952116
C            2.49917486382949       -0.95415685569972       -1.78107303520807
C            1.61182432467227        0.11601879979017       -1.69146153733974
C            0.13356099872834       -0.11701969079315       -1.80549362981370
C           -0.59665942478895       -0.16480178704719       -0.43136121684249
C            0.10637321315191       -1.26004999332557        0.35416022546499
C            1.31465869107007       -1.00988242245371        1.00328873609256
C            1.99451496147821       -2.01939466484777        1.65461451067260
C            1.48655890260812       -3.31713293666630        1.65372950191617
C            2.18128266140199       -4.42365234524486        2.33682954863017
O            1.80450148591731       -5.57675560812989        2.34041167074940
O            3.29703291614152       -4.04617773548070        2.97498661167073
C            0.29560246135924       -3.58105079179764        0.97943175912047
C           -0.38035245246273       -2.56454727829777        0.33514042661465
C           -0.61628982612084        1.18949745737306        0.26973383644030
C           -0.44546457797256        1.30563624550282        1.64742946682372
C           -0.53718119858606        2.53237738328766        2.27401303703000
C           -0.82377733040448        3.68113853899489        1.53995002745110
C           -0.91250925167607        4.97584453861797        2.23913536451999
O           -0.74854570140000        5.12893299210390        3.43124544385350
O           -1.19704536382188        6.00520430451598        1.43006657318419
C           -1.04231918594134        3.56906776252644        0.16839463356438
C           -0.94785259388812        2.33813072182660       -0.44821501551905
C           -2.08340884607070       -0.47915909794459       -0.58899908303661
C           -2.73673723530163       -0.52274764630504       -1.81545316972615
C           -4.09574794673637       -0.77004845340050       -1.88733976304862
C           -4.83448586164632       -0.97736646739563       -0.72623260126894
C           -6.28395629350703       -1.24499974245854       -0.76386390924939
O           -6.97503812494794       -1.43983775537927        0.21375909765833
O           -6.79646926090683       -1.25749343129845       -2.00162981385306
C           -4.18644757390532       -0.93139722681215        0.50876032281366
C           -2.83310982642721       -0.68271000058041        0.57118066602123
C            2.12483065748194        1.39824433560021       -1.51055651442728
C            3.48479326300874        1.60942230443409       -1.40368919519352
H            7.16402861475433        2.05174273001678       -1.12909020167910
H            4.55362219666155       -1.57785390001842       -1.75071294113394
H            2.11918913615118       -1.95373209113526       -1.93166571866671
H           -0.29553570170552        0.67025334731610       -2.42204635084788
H           -0.03312773054400       -1.07862573015210       -2.29291107696825
H            1.73172305762541       -0.01513548845890        1.00344910353107
H            2.92467590159455       -1.81113789024396        2.15926089025158
H            3.71728319303304       -4.80915807129713        3.40443428966073
H           -0.08276670716042       -4.59236193172596        0.97108235435605
H           -1.29760865515897       -2.79203404852469       -0.18600356766595
H           -0.24036563046207        0.43341132777904        2.24775618844249
H           -0.39453013366393        2.62016931265792        3.34080048054089
H           -1.24574435709991        6.83220950012861        1.93678199866754
H           -1.29218852505046        4.44857879475461       -0.40399507658253
H           -1.15350036595544        2.28077130600513       -1.50525537610660
H           -2.19980581863578       -0.37286283075907       -2.73701880811123
H           -4.59124253906619       -0.80433944450430       -2.84488555788105
H           -7.75025424522375       -1.43806480979829       -1.97276330856306
H           -4.76518138442094       -1.09317530304554        1.40572161616468
H           -2.34541477061956       -0.65103930108135        1.53299059313924
H            1.45342883127764        2.24050912301835       -1.44918026336538
H            3.87500084557959        2.60472359488446       -1.25957265821007

          :  Hamiltonian                  GFN2-xTB          :
         :: gradient norm              0.000094733564 Eh/a0 ::
         :: HOMO-LUMO gap              3.242591137440 eV    ::
         :: SCC energy              -109.620046117493 Eh    ::
         :: -> dispersion             -0.080529913757 Eh    ::
         :: -> Gsolv                  -0.056531216192 Eh    ::
         :: repulsion energy           1.538802319393 Eh    ::

    * Orbital Energies and Occupations

         #    Occupation            Energy/Eh            Energy/eV
      -------------------------------------------------------------
         1        2.0000           -0.7484780             -20.3671
       ...           ...                  ...                  ...
        83        2.0000           -0.4323446             -11.7647
        84        2.0000           -0.4270588             -11.6209
        85        2.0000           -0.4257318             -11.5848
        86        2.0000           -0.4245747             -11.5533
        87        2.0000           -0.4231067             -11.5133
        88        2.0000           -0.4229252             -11.5084
        89        2.0000           -0.4226433             -11.5007
        90        2.0000           -0.4207956             -11.4504
        91        2.0000           -0.4196353             -11.4189
        92        2.0000           -0.4159358             -11.3182
        93        2.0000           -0.4132635             -11.2455
        94        2.0000           -0.4087023             -11.1214
        95        2.0000           -0.4060411             -11.0489 (HOMO)
        96                         -0.2868781              -7.8064 (LUMO)
        97                         -0.2825615              -7.6889
        98                         -0.2792600              -7.5991
        99                         -0.2777115              -7.5569
       100                         -0.2402951              -6.5388
       101                         -0.2391990              -6.5089
       102                         -0.2364608              -6.4344
       103                         -0.2322461              -6.3197
       104                         -0.2030154              -5.5243
       105                         -0.1985584              -5.4030
       106                         -0.1935816              -5.2676
       ...                                ...                  ...
       174                          0.6720977              18.2887
      -------------------------------------------------------------
                  HL-Gap            0.1191630 Eh            3.2426 eV

     #   Z          covCN         q      C6AA      α(0)
     1   8 O        0.857    -0.464    23.011     6.431
     2   6 C        2.698     0.354    20.989     7.498
     3   8 O        1.659    -0.380    20.464     6.107
     4   6 C        2.972    -0.024    28.606     8.773
     5   6 C        2.922    -0.019    28.477     8.751
     6   6 C        2.923    -0.033    28.813     8.803
     7   6 C        2.967     0.031    27.295     8.570
     8   6 C        3.816    -0.073    21.889     6.659
     9   6 C        3.912     0.014    20.287     6.402
    10   6 C        2.978     0.028    27.374     8.582
    11   6 C        2.922    -0.030    28.760     8.795
    12   6 C        2.919    -0.021    28.526     8.759
    13   6 C        2.972    -0.022    28.561     8.766
    14   6 C        2.698     0.355    20.978     7.496
    15   8 O        0.857    -0.461    22.943     6.422
    16   8 O        1.660    -0.379    20.453     6.105
    17   6 C        2.922    -0.019    28.478     8.751
    18   6 C        2.922    -0.031    28.774     8.797
    19   6 C        2.986     0.030    27.319     8.574
    20   6 C        2.922    -0.032    28.797     8.800
    21   6 C        2.923    -0.018    28.464     8.749
    22   6 C        2.972    -0.023    28.573     8.768
    23   6 C        2.697     0.355    20.981     7.497
    24   8 O        0.857    -0.462    22.964     6.425
    25   8 O        1.660    -0.378    20.423     6.101
    26   6 C        2.919    -0.021    28.543     8.761
    27   6 C        2.924    -0.033    28.812     8.803
    28   6 C        2.989     0.028    27.365     8.581
    29   6 C        2.921    -0.035    28.875     8.812
    30   6 C        2.920    -0.020    28.516     8.757
    31   6 C        2.972    -0.023    28.568     8.767
    32   6 C        2.697     0.355    20.981     7.497
    33   8 O        0.857    -0.462    22.959     6.424
    34   8 O        1.660    -0.377    20.414     6.099
    35   6 C        2.922    -0.019    28.471     8.750
    36   6 C        2.924    -0.031    28.768     8.796
    37   6 C        2.922    -0.036    28.888     8.814
    38   6 C        2.919    -0.021    28.541     8.761
    39   1 H        0.804     0.336     0.622     1.239
    40   1 H        0.926     0.051     2.313     2.378
    41   1 H        0.926     0.049     2.338     2.391
    42   1 H        0.925     0.076     2.017     2.221
    43   1 H        0.924     0.066     2.126     2.280
    44   1 H        0.926     0.055     2.263     2.352
    45   1 H        0.926     0.058     2.220     2.330
    46   1 H        0.804     0.337     0.620     1.237
    47   1 H        0.926     0.055     2.264     2.353
    48   1 H        0.926     0.054     2.271     2.356
    49   1 H        0.926     0.055     2.263     2.353
    50   1 H        0.926     0.054     2.272     2.357
    51   1 H        0.804     0.337     0.621     1.237
    52   1 H        0.926     0.064     2.157     2.297
    53   1 H        0.926     0.062     2.174     2.306
    54   1 H        0.926     0.067     2.119     2.276
    55   1 H        0.926     0.065     2.137     2.286
    56   1 H        0.804     0.337     0.620     1.237
    57   1 H        0.926     0.053     2.279     2.361
    58   1 H        0.926     0.052     2.294     2.369
    59   1 H        0.926     0.059     2.215     2.328
    60   1 H        0.926     0.060     2.203     2.321

molecular dipole:
                 x           y           z       tot (Debye)
 q only:       -0.436       1.589      -2.445
   full:       -0.309       1.665      -2.174       7.005

 projected vibrational frequencies (cm⁻¹)
eigval :       -0.00    -0.00     0.00     0.00     0.00     0.00
eigval :       13.21    20.27    22.13    29.37    32.36    34.34
eigval :       37.33    37.50    41.10    56.39    58.28    75.97
eigval :       79.66    95.77   108.35   120.04   122.82   137.36
eigval :      142.50   153.49   162.22   168.46   209.02   223.38
eigval :      252.57   267.00   270.66   282.11   302.65   313.34
eigval :      365.55   367.54   370.98   371.68   377.18   385.64
eigval :      393.66   417.60   425.34   459.45   465.64   479.40
eigval :      482.41   487.51   496.42   502.00   506.81   569.71
eigval :      585.36   590.69   597.42   599.10   600.99   602.84
eigval :      603.74   606.78   609.18   611.07   619.23   650.43
eigval :      667.15   671.11   679.57   686.84   719.94   723.31
eigval :      729.02   736.02   740.12   756.62   772.88   800.84
eigval :      820.76   825.35   830.97   838.15   857.51   862.33
eigval :      869.73   870.95   874.03   881.77   918.63   921.04
eigval :      923.00   928.69   930.27   930.65   931.13   934.24
eigval :      959.79   980.76   998.02  1010.56  1015.02  1025.29
eigval :     1055.23  1100.05  1100.44  1101.53  1102.79  1132.83
eigval :     1139.07  1140.56  1141.68  1142.52  1143.15  1144.41
eigval :     1145.92  1159.93  1187.38  1193.03  1194.40  1199.79
eigval :     1204.53  1209.00  1232.30  1251.64  1262.37  1268.98
eigval :     1271.38  1273.40  1275.14  1277.74  1279.06  1283.99
eigval :     1299.43  1324.43  1330.60  1332.54  1338.30  1394.76
eigval :     1401.82  1404.57  1411.51  1465.24  1471.79  1475.60
eigval :     1477.71  1480.03  1563.74  1567.79  1569.68  1571.31
eigval :     1585.46  1587.92  1591.17  1593.94  1705.55  1706.95
eigval :     1707.02  1708.32  2997.16  3013.24  3083.28  3089.53
eigval :     3090.17  3091.73  3095.95  3097.27  3097.82  3098.23
eigval :     3100.54  3103.33  3103.94  3104.59  3108.22  3109.76
eigval :     3110.11  3121.34  3432.68  3433.17  3433.85  3434.67

   temp. (K)  partition function   enthalpy   heat capacity  entropy
                                   cal/mol     cal/K/mol   cal/K/mol   J/K/mol
 298.15  VIB  0.129E+17            19417.175    114.831    123.189
         ROT  0.460E+08              888.752      2.981     38.043
         INT  0.593E+24            20305.927    117.812    161.232
         TR   0.112E+29             1481.254      4.968     44.557
         TOT                       21787.1809   122.7799   205.7886   861.0195

       T/K    H(0)-H(T)+PV         H(T)/Eh          T*S/Eh         G(T)/Eh
   ------------------------------------------------------------------------
    298.15    0.347201E-01    0.476058E+00    0.977768E-01    0.378281E+00
   ------------------------------------------------------------------------

         :::::::::::::::::::::::::::::::::::::::::::::::::::::
         ::                  THERMODYNAMIC                  ::
         :::::::::::::::::::::::::::::::::::::::::::::::::::::
         :: total free energy        -107.702962315554 Eh   ::
         ::.................................................::
         :: total energy             -108.081243799110 Eh   ::
         :: zero point energy           0.441338205023 Eh   ::
         :: G(RRHO) w/o ZPVE           -0.063056721466 Eh   ::
         :: G(RRHO) contrib.            0.378281483556 Eh   ::
         :::::::::::::::::::::::::::::::::::::::::::::::::::::

           -------------------------------------------------
          | TOTAL ENERGY             -108.081243799110 Eh   |
          | TOTAL ENTHALPY           -107.605185511282 Eh   |
          | TOTAL FREE ENERGY        -107.702962315554 Eh   |
          | GRADIENT NORM               0.000094746414 Eh/α |
          | HOMO-LUMO GAP               3.242590925559 eV   |
           -------------------------------------------------

 * finished run on 2025/09/10 at 01:55:14.334
