   * xtb version 6.7.1 (edcfbbe) compiled by 'albert@albert-system' on 2024-07-22

   ID    Z sym.   atoms
    1    8 O      1, 3, 15, 16, 24, 25, 33, 34
    2    6 C      2, 4-14, 17-23, 26-32, 35-38
    3    1 H      39-60

          program call               : xtb data2507/toluene/H4TCPE/H4TCPE_toluene_S0_crest.xyz --gfn 2 --gbsa toluene --ohess vtight --parallel 40 --molden --ceasefiles --namespace data2507/toluene/H4TCPE/H4TCPE_toluene_S0_finalOpt
      * Solvation model:               GBSA
        Solvent                        toluene
        Solvent mass                       9.2140E+01 g/mol
          :  Hamiltonian                  GFN2-xTB          :
 * total energy  :  -108.0808421 Eh     change       -0.3547598E-09 Eh
 * total energy  :  -108.0810380 Eh     change       -0.1959336E-03 Eh
 * total energy  :  -108.0810943 Eh     change       -0.5627796E-04 Eh
 * total energy  :  -108.0811035 Eh     change       -0.9204318E-05 Eh
 * total energy  :  -108.0811115 Eh     change       -0.8008135E-05 Eh
 * total energy  :  -108.0811181 Eh     change       -0.6562192E-05 Eh
 * total energy  :  -108.0811284 Eh     change       -0.1032127E-04 Eh
 * total energy  :  -108.0811371 Eh     change       -0.8644208E-05 Eh
 * total energy  :  -108.0811458 Eh     change       -0.8719762E-05 Eh
 * total energy  :  -108.0811519 Eh     change       -0.6144886E-05 Eh
 * total energy  :  -108.0811727 Eh     change       -0.2101424E-05 Eh
 * total energy  :  -108.0811737 Eh     change       -0.1037335E-05 Eh
 * total energy  :  -108.0811748 Eh     change       -0.1014808E-05 Eh
 * total energy  :  -108.0811755 Eh     change       -0.7950002E-06 Eh
 * total energy  :  -108.0811756 Eh     change       -0.7049320E-07 Eh
 * total energy  :  -108.0811760 Eh     change       -0.3954922E-06 Eh
 * total energy  :  -108.0811763 Eh     change       -0.2659116E-06 Eh
 * total energy  :  -108.0811764 Eh     change       -0.1172970E-06 Eh
 * total energy  :  -108.0811765 Eh     change       -0.7345159E-07 Eh
   *** GEOMETRY OPTIMIZATION CONVERGED AFTER 25 ITERATIONS ***

 final structure:
================
60
 xtb: 6.7.1 (edcfbbe)
O            6.21638044923011       -2.12702929294845        1.34666449353746
C            5.76253772779033       -1.01219560226265        1.50112184864012
O            6.55817313317314        0.06362698655076        1.58207272830195
C            4.32747861268966       -0.69915373395905        1.61626980491870
C            3.40394976737554       -1.74317314916755        1.55844426130881
C            2.05325631702710       -1.48437604143643        1.66718309662150
C            1.59095430595467       -0.17990005769815        1.82662551349569
C            0.12376858893206        0.11209688391613        1.94682042302359
C           -0.61658371213376        0.16485891297622        0.57824037498656
C            0.10586798144018        1.23378720211091       -0.22595803813505
C           -0.35885688543408        2.54648511561158       -0.23280156240147
C            0.33433887322357        3.53881947448933       -0.89630122803672
C            1.52157901826952        3.24224460536471       -1.56352048324720
C            2.23471861851213        4.32347037940944       -2.26798081112320
O            1.86835827309601        5.47917861719558       -2.30892434184485
O            3.35567368986741        3.91902778363548       -2.88018212736805
C            2.00772151954679        1.93636334602121       -1.53858035430044
C            1.30997583744700        0.95072204050843       -0.86968045678203
C           -0.67214515647012       -1.19797583242336       -0.10411080355974
C           -1.04363076660860       -2.32392594152870        0.63056700557263
C           -1.16286334375554       -3.55943902124509        0.02976727409989
C           -0.93077927774029       -3.70283481143015       -1.33731097452883
C           -1.05935138626147       -5.03808730674175       -1.94862974871190
O           -1.36286710932552       -6.04592735374733       -1.34557944218853
O           -0.80699631832057       -5.05412809902731       -3.26421892090636
C           -0.60711944159790       -2.57630817563420       -2.08895164944130
C           -0.49171756646855       -1.34285740529053       -1.47744032202831
C           -2.09343292146184        0.51842736546184        0.74496632953218
C           -2.72888195252147        0.62148977716872        1.97740407593381
C           -4.08017789991897        0.90349475710299        2.05103950449885
C           -4.83011878801483        1.08752030523131        0.89252635893086
C           -6.26868034293009        1.38772416650833        1.01227038289247
O           -6.86800414616251        1.48257790825442        2.06263841678393
O           -6.88326964957632        1.55472763541254       -0.16621189248640
C           -4.20051077948357        0.98413562852312       -0.34794207283292
C           -2.85335091928326        0.70041014879128       -0.41209578012778
C            2.51941550418946        0.85658119459411        1.89086356993239
C            3.87320083607768        0.60753406979883        1.78903242131422
H            7.49001017294472       -0.19821931631653        1.50232595208723
H            3.76976642779634       -2.75140316992405        1.43206369363647
H            1.35205699448588       -2.30329421738755        1.62569703365317
H           -0.33055972487819       -0.64856023072556        2.57878464838232
H           -0.00236119637821        1.08660386194892        2.42072597658756
H           -1.27183268053013        2.79945385251968        0.28404998984551
H           -0.02739302551487        4.55615970985718       -0.90793277817924
H            3.78682754077818        4.66596614912984       -3.32668825128747
H            2.93420587092125        1.70242513970899       -2.03864739847294
H            1.70940378388074       -0.05105099652499       -0.85107554149181
H           -1.25984808262535       -2.24381378861886        1.68407652458690
H           -1.44123454227739       -4.43145940977339        0.60278725456827
H           -0.90513536846451       -5.95330291238385       -3.61778087483072
H           -0.45333190496332       -2.67197671431669       -3.15228045442039
H           -0.25909725955737       -0.48547362506964       -2.08904039683829
H           -2.18562754584438        0.49175268433754        2.89830805415800
H           -4.57590510787698        0.98640186470802        3.00685627292597
H           -7.82524667540307        1.75009665020444       -0.03314653842570
H           -4.77401783298541        1.12559007392284       -1.25023717443042
H           -2.37664146093248        0.62310064309511       -1.37690531190341
H            2.17654248341761        1.87188047819612        2.02484801829254
H            4.58531921022518        1.41599352721444        1.84098361898826

          :  Hamiltonian                  GFN2-xTB          :
         :: gradient norm              0.000095247821 Eh/a0 ::
         :: HOMO-LUMO gap              3.244891996199 eV    ::
         :: SCC energy              -109.619725611640 Eh    ::
         :: -> dispersion             -0.080508064475 Eh    ::
         :: -> Gsolv                  -0.055678518926 Eh    ::
         :: repulsion energy           1.538549143237 Eh    ::

    * Orbital Energies and Occupations

         #    Occupation            Energy/Eh            Energy/eV
      -------------------------------------------------------------
         1        2.0000           -0.7484236             -20.3656
       ...           ...                  ...                  ...
        83        2.0000           -0.4314107             -11.7393
        84        2.0000           -0.4269375             -11.6176
        85        2.0000           -0.4260857             -11.5944
        86        2.0000           -0.4244617             -11.5502
        87        2.0000           -0.4237751             -11.5315
        88        2.0000           -0.4230539             -11.5119
        89        2.0000           -0.4228177             -11.5055
        90        2.0000           -0.4211002             -11.4587
        91        2.0000           -0.4197366             -11.4216
        92        2.0000           -0.4159103             -11.3175
        93        2.0000           -0.4133827             -11.2487
        94        2.0000           -0.4087794             -11.1235
        95        2.0000           -0.4059563             -11.0466 (HOMO)
        96                         -0.2867088              -7.8017 (LUMO)
        97                         -0.2828867              -7.6977
        98                         -0.2794229              -7.6035
        99                         -0.2777746              -7.5586
       100                         -0.2404955              -6.5442
       101                         -0.2390887              -6.5059
       102                         -0.2366863              -6.4406
       103                         -0.2323392              -6.3223
       104                         -0.2027564              -5.5173
       105                         -0.1988204              -5.4102
       106                         -0.1938553              -5.2751
       ...                                ...                  ...
       174                          0.6732866              18.3211
      -------------------------------------------------------------
                  HL-Gap            0.1192476 Eh            3.2449 eV

     #   Z          covCN         q      C6AA      α(0)
     1   8 O        0.857    -0.464    23.000     6.430
     2   6 C        2.698     0.354    20.988     7.498
     3   8 O        1.659    -0.380    20.468     6.107
     4   6 C        2.972    -0.024    28.602     8.772
     5   6 C        2.922    -0.019    28.493     8.754
     6   6 C        2.922    -0.035    28.865     8.810
     7   6 C        2.967     0.031    27.295     8.570
     8   6 C        3.816    -0.073    21.875     6.657
     9   6 C        3.912     0.014    20.288     6.402
    10   6 C        2.978     0.028    27.371     8.582
    11   6 C        2.922    -0.031    28.771     8.796
    12   6 C        2.922    -0.019    28.474     8.751
    13   6 C        2.972    -0.022    28.554     8.765
    14   6 C        2.697     0.355    20.978     7.496
    15   8 O        0.857    -0.461    22.944     6.422
    16   8 O        1.660    -0.379    20.444     6.104
    17   6 C        2.919    -0.021    28.525     8.758
    18   6 C        2.922    -0.030    28.757     8.794
    19   6 C        2.985     0.030    27.320     8.574
    20   6 C        2.923    -0.031    28.785     8.798
    21   6 C        2.922    -0.020    28.495     8.754
    22   6 C        2.972    -0.023    28.573     8.768
    23   6 C        2.697     0.355    20.980     7.497
    24   8 O        0.857    -0.461    22.949     6.423
    25   8 O        1.660    -0.379    20.438     6.103
    26   6 C        2.919    -0.020    28.511     8.756
    27   6 C        2.923    -0.033    28.821     8.804
    28   6 C        2.988     0.028    27.368     8.582
    29   6 C        2.920    -0.034    28.856     8.809
    30   6 C        2.923    -0.019    28.471     8.750
    31   6 C        2.972    -0.023    28.570     8.768
    32   6 C        2.698     0.355    20.979     7.497
    33   8 O        0.857    -0.461    22.935     6.421
    34   8 O        1.660    -0.379    20.440     6.103
    35   6 C        2.919    -0.020    28.517     8.757
    36   6 C        2.925    -0.032    28.791     8.799
    37   6 C        2.923    -0.033    28.826     8.805
    38   6 C        2.919    -0.021    28.522     8.758
    39   1 H        0.804     0.336     0.622     1.238
    40   1 H        0.926     0.052     2.299     2.371
    41   1 H        0.926     0.056     2.251     2.346
    42   1 H        0.925     0.074     2.044     2.236
    43   1 H        0.924     0.066     2.129     2.282
    44   1 H        0.926     0.054     2.274     2.358
    45   1 H        0.926     0.055     2.260     2.351
    46   1 H        0.804     0.337     0.620     1.237
    47   1 H        0.926     0.060     2.204     2.321
    48   1 H        0.926     0.055     2.264     2.353
    49   1 H        0.926     0.059     2.210     2.324
    50   1 H        0.926     0.055     2.257     2.350
    51   1 H        0.804     0.337     0.620     1.237
    52   1 H        0.926     0.062     2.175     2.306
    53   1 H        0.926     0.057     2.230     2.335
    54   1 H        0.926     0.065     2.145     2.290
    55   1 H        0.926     0.057     2.231     2.336
    56   1 H        0.804     0.337     0.620     1.237
    57   1 H        0.926     0.061     2.182     2.310
    58   1 H        0.926     0.054     2.265     2.353
    59   1 H        0.926     0.050     2.317     2.380
    60   1 H        0.926     0.059     2.213     2.326

molecular dipole:
                 x           y           z       tot (Debye)
 q only:        0.161       0.753      -0.344
   full:        0.295       0.729      -0.684       2.649

 projected vibrational frequencies (cm⁻¹)
eigval :       -0.00    -0.00    -0.00     0.00     0.00     0.00
eigval :       12.28    19.99    21.63    29.86    32.21    34.45
eigval :       36.51    37.45    37.84    55.21    59.29    75.81
eigval :       80.28    96.31   108.06   119.92   123.36   137.54
eigval :      141.78   152.90   162.95   169.32   208.01   221.74
eigval :      251.37   267.47   270.40   281.43   302.02   311.12
eigval :      363.84   367.45   368.00   370.55   374.65   384.37
eigval :      394.31   416.06   426.56   460.30   468.07   475.80
eigval :      485.85   487.16   494.16   498.03   506.16   570.94
eigval :      585.35   593.13   596.04   598.09   601.86   602.23
eigval :      603.16   607.50   608.23   611.52   619.41   649.92
eigval :      666.09   670.84   678.52   686.97   720.20   723.44
eigval :      728.96   736.41   740.15   756.86   773.07   800.82
eigval :      821.32   825.69   831.37   839.03   857.52   862.38
eigval :      868.25   871.08   873.41   880.63   920.56   922.12
eigval :      925.76   927.75   929.71   930.51   930.76   932.66
eigval :      960.51   981.03   997.57  1010.78  1014.83  1025.11
eigval :     1055.52  1099.42  1100.51  1101.68  1103.26  1132.13
eigval :     1139.57  1140.18  1141.16  1142.15  1143.22  1144.58
eigval :     1145.52  1161.39  1187.21  1193.62  1196.43  1199.43
eigval :     1204.57  1208.23  1231.56  1251.65  1263.40  1267.25
eigval :     1271.50  1274.13  1275.58  1279.25  1279.27  1284.45
eigval :     1299.13  1324.45  1329.78  1331.84  1338.06  1394.48
eigval :     1401.64  1404.29  1412.24  1465.77  1471.58  1475.97
eigval :     1477.89  1480.71  1563.70  1567.64  1569.47  1571.15
eigval :     1584.96  1587.46  1591.01  1593.77  1705.16  1706.68
eigval :     1707.05  1708.24  2995.69  3011.30  3083.81  3089.05
eigval :     3089.62  3090.21  3091.15  3096.85  3098.23  3098.79
eigval :     3101.15  3102.00  3103.94  3106.43  3109.03  3110.09
eigval :     3110.51  3120.71  3432.76  3433.02  3433.30  3433.46

   temp. (K)  partition function   enthalpy   heat capacity  entropy
                                   cal/mol     cal/K/mol   cal/K/mol   J/K/mol
 298.15  VIB  0.159E+17            19436.648    114.785    123.359
         ROT  0.459E+08              888.752      2.981     38.042
         INT  0.729E+24            20325.400    117.766    161.401
         TR   0.112E+29             1481.254      4.968     44.557
         TOT                       21806.6541   122.7337   205.9580   861.7283

       T/K    H(0)-H(T)+PV         H(T)/Eh          T*S/Eh         G(T)/Eh
   ------------------------------------------------------------------------
    298.15    0.347511E-01    0.476016E+00    0.978573E-01    0.378159E+00
   ------------------------------------------------------------------------

         :::::::::::::::::::::::::::::::::::::::::::::::::::::
         ::                  THERMODYNAMIC                  ::
         :::::::::::::::::::::::::::::::::::::::::::::::::::::
         :: total free energy        -107.703017671795 Eh   ::
         ::.................................................::
         :: total energy             -108.081176463652 Eh   ::
         :: zero point energy           0.441264976642 Eh   ::
         :: G(RRHO) w/o ZPVE           -0.063106184785 Eh   ::
         :: G(RRHO) contrib.            0.378158791857 Eh   ::
         :::::::::::::::::::::::::::::::::::::::::::::::::::::

           -------------------------------------------------
          | TOTAL ENERGY             -108.081176463652 Eh   |
          | TOTAL ENTHALPY           -107.605160371673 Eh   |
          | TOTAL FREE ENERGY        -107.703017671795 Eh   |
          | GRADIENT NORM               0.000095210565 Eh/α |
          | HOMO-LUMO GAP               3.244891301767 eV   |
           -------------------------------------------------

 * finished run on 2025/09/10 at 02:00:06.062
