   * xtb version 6.7.1 (edcfbbe) compiled by 'albert@albert-system' on 2024-07-22

   ID    Z sym.   atoms
    1    8 O      1, 3, 15, 16, 24, 25, 33, 34
    2    6 C      2, 4-14, 17-23, 26-32, 35-38
    3    1 H      39-60

          program call               : xtb data2507/toluene/H4TCPE/H4TCPE_toluene_S0_finalOpt.xtbopt.xyz --gfn 2 --uhf 2 --gbsa toluene --ohess vtight --parallel 40 --molden --ceasefiles --namespace data2507/toluene/H4TCPE/H4TCPE_toluene_T1_preOpt
      * Solvation model:               GBSA
        Solvent                        toluene
        Solvent mass                       9.2140E+01 g/mol
          :  Hamiltonian                  GFN2-xTB          :
 * total energy  :  -107.9590448 Eh     change       -0.2928047E-08 Eh
 * total energy  :  -107.9633260 Eh     change       -0.4281255E-02 Eh
 * total energy  :  -107.9660346 Eh     change       -0.2708587E-02 Eh
 * total energy  :  -107.9671792 Eh     change       -0.1144655E-02 Eh
 * total energy  :  -107.9685147 Eh     change       -0.1335474E-02 Eh
 * total energy  :  -107.9696645 Eh     change       -0.1149798E-02 Eh
 * total energy  :  -107.9705902 Eh     change       -0.9256825E-03 Eh
 * total energy  :  -107.9717647 Eh     change       -0.1174500E-02 Eh
 * total energy  :  -107.9737813 Eh     change       -0.2016596E-02 Eh
 * total energy  :  -107.9756779 Eh     change       -0.1896607E-02 Eh
 * total energy  :  -107.9825543 Eh     change       -0.9443823E-06 Eh
 * total energy  :  -107.9825550 Eh     change       -0.7494052E-06 Eh
 * total energy  :  -107.9825556 Eh     change       -0.5735589E-06 Eh
 * total energy  :  -107.9825560 Eh     change       -0.4411640E-06 Eh
 * total energy  :  -107.9825565 Eh     change       -0.4769577E-06 Eh
 * total energy  :  -107.9825570 Eh     change       -0.5067265E-06 Eh
 * total energy  :  -107.9825574 Eh     change       -0.3991703E-06 Eh
 * total energy  :  -107.9825576 Eh     change       -0.2240278E-06 Eh
 * total energy  :  -107.9825577 Eh     change       -0.4869023E-08 Eh
   *** GEOMETRY OPTIMIZATION CONVERGED AFTER 68 ITERATIONS ***

 final structure:
================
60
 xtb: 6.7.1 (edcfbbe)
O            6.26180614297331       -1.77276486921619        1.17853734021206
C            5.76321518177961       -0.71923846771005        1.51467160434390
O            6.51267469228973        0.35534031621202        1.79530496405371
C            4.31422324523744       -0.48438414203409        1.65559748929006
C            3.43437898826565       -1.53610428008336        1.39815199485209
C            2.07360154874510       -1.34833093007154        1.52359066449682
C            1.56378099241901       -0.11058993447410        1.90693625807714
C            0.07590413295466        0.08852677692932        2.02837553064764
C           -0.57331849400828        0.13723918902568        0.64956146144264
C            0.13681798502692        1.14642576523721       -0.19344924442439
C           -0.19337733911886        2.49484421815481       -0.07315620017152
C            0.50428360883520        3.44962520784900       -0.78311577119163
C            1.55381777848757        3.07270438154487       -1.62085103758819
C            2.28083359669775        4.12120870392215       -2.36397502680691
O            2.03899790211466        5.30711147352957       -2.29207931309532
O            3.25614363568424        3.64533709847063       -3.14749664913280
C            1.89261420846660        1.72549511979507       -1.73592076820802
C            1.18954199569836        0.77335019959404       -1.02506943817085
C           -1.13121912921845       -1.12750753621708       -0.00997001340247
C           -1.13957026120770       -2.39447876858703        0.71766438074350
C           -1.03211777618625       -3.58827077298467        0.08555229579043
C           -0.91101041786562       -3.67768503191570       -1.32079661498990
C           -0.82308707601806       -4.98152807661348       -1.94717831811202
O           -0.83575345376069       -6.04854647530744       -1.35102467058114
O           -0.72142917921134       -4.93901564870443       -3.29545833909970
C           -0.89240041265233       -2.47590252872432       -2.06543377741985
C           -1.00174704701497       -1.26848132982010       -1.45896000083439
C           -2.10273218716745        0.04390358788823        0.52860113529793
C           -2.90605309466075       -0.22299612251470        1.71730698737981
C           -4.16008835582836        0.26966132192844        1.86191448948577
C           -4.76777206675533        1.06344051652757        0.86133810518693
C           -6.12022297546124        1.54583645640029        1.05655799368346
O           -6.80983642368934        1.32314729001529        2.04090516624067
O           -6.59119326075749        2.29416708176740        0.03252275510104
C           -4.02103733522013        1.35509600920634       -0.30319461046229
C           -2.76454109394475        0.87544720733943       -0.47316197804739
C            2.44436455971605        0.93502619884976        2.16174503001278
C            3.80827401829494        0.75598361128577        2.04059719443647
H            7.45563286551666        0.14864424341494        1.68888338151270
H            3.84138592288828       -2.49170568945357        1.10270351721250
H            1.39967229341315       -2.16736080857886        1.32050735259011
H           -0.33786010132939       -0.71060387687981        2.63807054869023
H           -0.12534199377385        1.03944867299285        2.52656082001395
H           -1.00593439124671        2.78931193240659        0.57396096300390
H            0.25499120484113        4.49706498749217       -0.70341111475039
H            3.70323860030998        4.37054244154061       -3.61383774789343
H            2.70690606841994        1.43374864684906       -2.37984626246570
H            1.45838409439665       -0.26822079512251       -1.11164469187248
H           -1.23955498562049       -2.38930584239547        1.78908353780481
H           -1.04133880823897       -4.51165686412266        0.64604032444633
H           -0.66814990638007       -5.84125550443450       -3.64679953605211
H           -0.79447150270406       -2.53681827628771       -3.13805118786959
H           -0.97764639377402       -0.37759347957729       -2.06270309018744
H           -2.49260657145925       -0.81839726201123        2.51194128789052
H           -4.73465669537703        0.06206501281735        2.75256976199524
H           -7.49686796007459        2.58048717451953        0.22778615202241
H           -4.47380286322812        1.97076427181050       -1.06463727111827
H           -2.22285635387308        1.13474188681673       -1.36676250821122
H            2.05968414946582        1.89917209234571        2.45911258223469
H            4.48836128730870        1.56870846214748        2.24120096735467

          :  Hamiltonian                  GFN2-xTB          :
         :: gradient norm              0.000051085445 Eh/a0 ::
         :: HOMO-LUMO gap              1.027986685815 eV    ::
         :: SCC energy              -109.495305318394 Eh    ::
         :: -> dispersion             -0.079144347520 Eh    ::
         :: -> Gsolv                  -0.060671363859 Eh    ::
         :: repulsion energy           1.512747665915 Eh    ::

    * Orbital Energies and Occupations

         #    Occupation            Energy/Eh            Energy/eV
      -------------------------------------------------------------
         1        2.0000           -0.7508903             -20.4328
       ...           ...                  ...                  ...
        84        2.0000           -0.4319264             -11.7533
        85        2.0000           -0.4300842             -11.7032
        86        2.0000           -0.4281798             -11.6514
        87        2.0000           -0.4274974             -11.6328
        88        2.0000           -0.4256400             -11.5823
        89        2.0000           -0.4240563             -11.5392
        90        2.0000           -0.4234966             -11.5239
        91        2.0000           -0.4213251             -11.4648
        92        2.0000           -0.4191882             -11.4067
        93        2.0000           -0.4179542             -11.3731
        94        2.0000           -0.4156780             -11.3112
        95        1.0000           -0.3597680              -9.7898
        96        1.0000           -0.3245572              -8.8317 (HOMO)
        97                         -0.2867794              -7.8037 (LUMO)
        98                         -0.2825542              -7.6887
        99                         -0.2482500              -6.7552
       100                         -0.2437302              -6.6322
       101                         -0.2406801              -6.5492
       102                         -0.2388226              -6.4987
       103                         -0.2317306              -6.3057
       104                         -0.2272643              -6.1842
       105                         -0.2030108              -5.5242
       106                         -0.1972434              -5.3673
       107                         -0.1406270              -3.8267
       ...                                ...                  ...
       174                          0.6699433              18.2301
      -------------------------------------------------------------
                  HL-Gap            0.0377778 Eh            1.0280 eV

     #   Z          covCN         q      C6AA      α(0)
     1   8 O        0.856    -0.461    22.943     6.422
     2   6 C        2.698     0.355    20.980     7.497
     3   8 O        1.660    -0.379    20.445     6.104
     4   6 C        2.972    -0.023    28.569     8.767
     5   6 C        2.922    -0.018    28.463     8.749
     6   6 C        2.922    -0.033    28.829     8.805
     7   6 C        2.971     0.030    27.335     8.576
     8   6 C        3.815    -0.070    21.821     6.649
     9   6 C        3.917     0.035    19.921     6.344
    10   6 C        2.977     0.025    27.442     8.593
    11   6 C        2.922    -0.028    28.701     8.785
    12   6 C        2.922    -0.017    28.424     8.743
    13   6 C        2.972    -0.019    28.479     8.754
    14   6 C        2.697     0.355    20.967     7.494
    15   8 O        0.857    -0.457    22.848     6.409
    16   8 O        1.660    -0.377    20.405     6.098
    17   6 C        2.919    -0.019    28.472     8.750
    18   6 C        2.921    -0.029    28.728     8.789
    19   6 C        3.907     0.038    19.874     6.337
    20   6 C        2.907    -0.029    28.734     8.790
    21   6 C        2.911    -0.022    28.546     8.761
    22   6 C        2.968    -0.025    28.627     8.776
    23   6 C        2.698     0.340    21.218     7.539
    24   8 O        0.857    -0.491    23.583     6.511
    25   8 O        1.659    -0.399    20.838     6.162
    26   6 C        2.908    -0.023    28.577     8.766
    27   6 C        2.908    -0.029    28.718     8.787
    28   6 C        3.908     0.037    19.895     6.340
    29   6 C        2.907    -0.031    28.770     8.795
    30   6 C        2.911    -0.021    28.535     8.759
    31   6 C        2.968    -0.025    28.631     8.777
    32   6 C        2.698     0.340    21.220     7.539
    33   8 O        0.857    -0.491    23.585     6.511
    34   8 O        1.659    -0.400    20.842     6.163
    35   6 C        2.908    -0.023    28.575     8.765
    36   6 C        2.909    -0.029    28.725     8.788
    37   6 C        2.922    -0.034    28.853     8.809
    38   6 C        2.919    -0.020    28.507     8.755
    39   1 H        0.804     0.337     0.620     1.237
    40   1 H        0.926     0.055     2.261     2.352
    41   1 H        0.926     0.058     2.219     2.329
    42   1 H        0.925     0.081     1.973     2.197
    43   1 H        0.924     0.077     2.012     2.218
    44   1 H        0.926     0.061     2.182     2.310
    45   1 H        0.926     0.062     2.173     2.305
    46   1 H        0.804     0.338     0.617     1.234
    47   1 H        0.926     0.065     2.138     2.286
    48   1 H        0.926     0.058     2.222     2.331
    49   1 H        0.926     0.066     2.132     2.283
    50   1 H        0.926     0.058     2.225     2.333
    51   1 H        0.804     0.329     0.641     1.257
    52   1 H        0.926     0.064     2.154     2.295
    53   1 H        0.926     0.062     2.173     2.305
    54   1 H        0.926     0.066     2.130     2.282
    55   1 H        0.926     0.059     2.216     2.328
    56   1 H        0.804     0.329     0.641     1.257
    57   1 H        0.926     0.064     2.151     2.294
    58   1 H        0.926     0.061     2.190     2.314
    59   1 H        0.926     0.055     2.263     2.352
    60   1 H        0.926     0.062     2.178     2.308

molecular dipole:
                 x           y           z       tot (Debye)
 q only:        0.920       1.547       0.036
   full:        1.094       1.570      -0.288       4.920

 projected vibrational frequencies (cm⁻¹)
eigval :       -0.00    -0.00    -0.00     0.00     0.00     0.00
eigval :       14.23    14.57    18.31    23.29    30.98    35.68
eigval :       39.55    50.99    54.24    56.72    58.26    78.06
eigval :       93.36   105.41   116.87   126.22   129.22   147.10
eigval :      149.09   150.22   162.55   171.85   200.31   217.36
eigval :      229.12   255.98   262.87   270.88   296.34   341.82
eigval :      352.87   365.50   367.61   373.77   376.97   387.37
eigval :      392.48   397.97   417.16   454.31   457.64   465.59
eigval :      476.46   484.36   489.68   492.80   504.16   556.08
eigval :      558.71   563.91   577.63   581.01   585.71   591.94
eigval :      594.94   599.40   603.06   605.95   607.69   646.47
eigval :      647.85   650.35   668.71   679.27   698.41   708.75
eigval :      715.39   724.09   732.05   741.92   757.11   779.22
eigval :      780.51   795.46   797.76   801.95   810.87   830.11
eigval :      838.51   852.13   874.71   876.26   878.51   908.28
eigval :      917.22   918.77   922.87   924.59   927.33   933.66
eigval :      936.49   954.36   959.95   960.93  1001.09  1009.30
eigval :     1011.95  1063.64  1065.71  1071.65  1100.22  1101.49
eigval :     1124.38  1126.12  1134.42  1135.16  1138.01  1138.69
eigval :     1140.19  1143.06  1155.31  1190.38  1192.68  1195.03
eigval :     1209.08  1224.33  1226.39  1243.56  1257.55  1261.19
eigval :     1267.90  1271.17  1277.31  1280.77  1285.59  1289.21
eigval :     1303.99  1315.21  1318.53  1325.49  1335.80  1395.81
eigval :     1399.75  1409.04  1409.70  1412.03  1412.67  1443.13
eigval :     1469.21  1478.33  1489.21  1496.81  1561.65  1573.16
eigval :     1582.21  1587.56  1591.08  1594.23  1649.65  1657.11
eigval :     1707.00  1708.46  2980.09  3030.31  3085.24  3086.49
eigval :     3088.08  3088.44  3089.08  3095.60  3096.68  3098.96
eigval :     3100.78  3102.24  3109.30  3111.83  3116.76  3120.00
eigval :     3126.23  3132.01  3432.20  3433.18  3458.30  3458.64

   temp. (K)  partition function   enthalpy   heat capacity  entropy
                                   cal/mol     cal/K/mol   cal/K/mol   J/K/mol
 298.15  VIB  0.123E+17            19624.203    117.465    124.247
         ROT  0.445E+08              888.752      2.981     37.981
         INT  0.546E+24            20512.955    120.446    162.228
         TR   0.112E+29             1481.254      4.968     44.557
         TOT                       21994.2094   125.4141   206.7846   865.1869

       T/K    H(0)-H(T)+PV         H(T)/Eh          T*S/Eh         G(T)/Eh
   ------------------------------------------------------------------------
    298.15    0.350500E-01    0.472765E+00    0.982500E-01    0.374515E+00
   ------------------------------------------------------------------------

         :::::::::::::::::::::::::::::::::::::::::::::::::::::
         ::                  THERMODYNAMIC                  ::
         :::::::::::::::::::::::::::::::::::::::::::::::::::::
         :: total free energy        -107.608042339750 Eh   ::
         ::.................................................::
         :: total energy             -107.982557652402 Eh   ::
         :: zero point energy           0.437715357238 Eh   ::
         :: G(RRHO) w/o ZPVE           -0.063200044586 Eh   ::
         :: G(RRHO) contrib.            0.374515312652 Eh   ::
         :::::::::::::::::::::::::::::::::::::::::::::::::::::

           -------------------------------------------------
          | TOTAL ENERGY             -107.982557652402 Eh   |
          | TOTAL ENTHALPY           -107.509792291519 Eh   |
          | TOTAL FREE ENERGY        -107.608042339750 Eh   |
          | GRADIENT NORM               0.000051017841 Eh/α |
          | HOMO-LUMO GAP               1.027986226771 eV   |
           -------------------------------------------------

 * finished run on 2025/09/10 at 02:00:11.832
