   * xtb version 6.7.1 (edcfbbe) compiled by 'albert@albert-system' on 2024-07-22

   ID    Z sym.   atoms
    1    8 O      1, 3, 15, 16, 24, 25, 33, 34
    2    6 C      2, 4-14, 17-23, 26-32, 35-38
    3    1 H      39-60

          program call               : xtb data2507/toluene/H4TCPE/H4TCPE_toluene_T1_crest.xyz --gfn 2 --uhf 2 --gbsa toluene --ohess vtight --parallel 40 --molden --ceasefiles --namespace data2507/toluene/H4TCPE/H4TCPE_toluene_T1_finalOpt
      * Solvation model:               GBSA
        Solvent                        toluene
        Solvent mass                       9.2140E+01 g/mol
          :  Hamiltonian                  GFN2-xTB          :
 * total energy  :  -107.9819950 Eh     change       -0.2083141E-08 Eh
 * total energy  :  -107.9822808 Eh     change       -0.2858669E-03 Eh
 * total energy  :  -107.9823714 Eh     change       -0.9050649E-04 Eh
 * total energy  :  -107.9823874 Eh     change       -0.1602673E-04 Eh
 * total energy  :  -107.9824002 Eh     change       -0.1281765E-04 Eh
 * total energy  :  -107.9824115 Eh     change       -0.1134219E-04 Eh
 * total energy  :  -107.9824236 Eh     change       -0.1206004E-04 Eh
 * total energy  :  -107.9824394 Eh     change       -0.1584603E-04 Eh
 * total energy  :  -107.9824525 Eh     change       -0.1308817E-04 Eh
 * total energy  :  -107.9824637 Eh     change       -0.1116571E-04 Eh
 * total energy  :  -107.9825312 Eh     change       -0.2384081E-06 Eh
 * total energy  :  -107.9825314 Eh     change       -0.1939523E-06 Eh
 * total energy  :  -107.9825314 Eh     change       -0.2318824E-07 Eh
 * total energy  :  -107.9825315 Eh     change       -0.1307260E-06 Eh
 * total energy  :  -107.9825317 Eh     change       -0.1982131E-06 Eh
 * total energy  :  -107.9825319 Eh     change       -0.2048972E-06 Eh
 * total energy  :  -107.9825320 Eh     change       -0.1961925E-07 Eh
 * total energy  :  -107.9825321 Eh     change       -0.1901093E-06 Eh
 * total energy  :  -107.9825321 Eh     change       -0.2712284E-09 Eh
   *** GEOMETRY OPTIMIZATION CONVERGED AFTER 38 ITERATIONS ***

 final structure:
================
60
 xtb: 6.7.1 (edcfbbe)
O            6.27709786349383       -1.47126862057969        1.27764984479373
C            5.71870426061515       -0.44856734898130        1.61507361647260
O            6.40642896015295        0.66143965650775        1.91524697808771
C            4.25738167019145       -0.29172827736635        1.73520314780975
C            3.43895736148859       -1.38674902732275        1.45656656176095
C            2.06823820884432       -1.27188256139531        1.55949048440114
C            1.48703820779342       -0.06558952667742        1.94135160334380
C           -0.01144288584252        0.05386109676932        2.03466688485122
C           -0.63320366027443        0.09233391430167        0.64301534841471
C            0.03494204506010        1.15650686968100       -0.16577699044208
C           -0.37890152968662        2.48058342739498       -0.03430860894368
C            0.27827878819882        3.48692229005431       -0.71100398638245
C            1.37029280916567        3.18753072341909       -1.52540983126866
C            2.05286986139416        4.28976865681912       -2.23212338372260
O            1.74210086695970        5.45848247162375       -2.14509747756805
O            3.07129637176650        3.88499705461352       -3.00056972774549
C            1.79240474995058        1.86503950629337       -1.65151063495491
C            1.12961035851067        0.86106470618901       -0.97417024283044
C           -1.10024919863449       -1.19210264247100       -0.05191832426698
C           -1.04239063040425       -2.46959759947710        0.65483100727590
C           -0.80576696078427       -3.63828249198256        0.01098770212549
C           -0.61221546571177       -3.69105790977982       -1.38894549340570
C           -0.37041071330565       -4.96925429055259       -2.02760909027026
O           -0.30684576662567       -6.04292794706518       -1.44688249501830
O           -0.21040121384976       -4.89324077635898       -3.36871015632347
C           -0.67828909680552       -2.48051103522646       -2.11642362236676
C           -0.91831071164898       -1.29809759976764       -1.49834384341355
C           -2.15071228775762       -0.09241980760670        0.48265559072593
C           -2.96329172295174       -0.42648865078173        1.64818887285405
C           -4.24775840643569       -0.01269478974066        1.77093295608179
C           -4.88025521150114        0.75826740292966        0.76807484150046
C           -6.26469273838176        1.15169323294631        0.93749956675531
O           -6.96190256168140        0.86941477196234        1.90095347943490
O           -6.75796976114006        1.88583344523199       -0.08623034095176
C           -4.12557093178094        1.11651725425750       -0.37243973085354
C           -2.83852700444657        0.71714907954635       -0.51987996451655
C            2.30661322766950        1.02303107440345        2.21881684257090
C            3.67994498769959        0.91719924406839        2.11970491237367
H            7.36038210992049        0.50518869035325        1.82109450703535
H            3.90059324397333       -2.31759070350930        1.16229571722997
H            1.44231142889337       -2.12398063999968        1.33970604180767
H           -0.39512415643654       -0.77636858998307        2.62202314256825
H           -0.27258161616871        0.98451726860380        2.54326765894663
H           -1.22404699732747        2.71538589854535        0.59522694384712
H           -0.03578665994769        4.51603268928438       -0.62232252473348
H            3.48702382892185        4.64319742621292       -3.44281646022230
H            2.63961646864638        1.63296992309506       -2.27697290081903
H            1.46304648258792       -0.16086059428849       -1.06901969141068
H           -1.19405307385537       -2.49283020805132        1.71986435762815
H           -0.76343748407193       -4.56946044620696        0.55687471496681
H           -0.05308980245553       -5.77981522638432       -3.72863174347585
H           -0.53938182774774       -2.51469825938513       -3.18571079322534
H           -0.95555829830927       -0.39919117044834       -2.08935195012911
H           -2.53226426966789       -1.00699075626352        2.44453307404323
H           -4.82822897440713       -0.26892800609326        2.64495610340131
H           -7.68423730578068        2.11137968749919        0.09130954462794
H           -4.59706663479226        1.71807140634684       -1.13380971209785
H           -2.29277006778677        1.02634748987319       -1.39498535125240
H            1.86656912572708        1.96339117134924        2.51559094347228
H            4.31252693116581        1.76328012957831        2.33702912171295

          :  Hamiltonian                  GFN2-xTB          :
         :: gradient norm              0.000169475964 Eh/a0 ::
         :: HOMO-LUMO gap              1.036196085595 eV    ::
         :: SCC energy              -109.495223212321 Eh    ::
         :: -> dispersion             -0.079240403186 Eh    ::
         :: -> Gsolv                  -0.060572142330 Eh    ::
         :: repulsion energy           1.512691068490 Eh    ::

    * Orbital Energies and Occupations

         #    Occupation            Energy/Eh            Energy/eV
      -------------------------------------------------------------
         1        2.0000           -0.7509075             -20.4332
       ...           ...                  ...                  ...
        84        2.0000           -0.4319345             -11.7535
        85        2.0000           -0.4299200             -11.6987
        86        2.0000           -0.4282342             -11.6528
        87        2.0000           -0.4275532             -11.6343
        88        2.0000           -0.4256917             -11.5837
        89        2.0000           -0.4241123             -11.5407
        90        2.0000           -0.4234686             -11.5232
        91        2.0000           -0.4212709             -11.4634
        92        2.0000           -0.4191914             -11.4068
        93        2.0000           -0.4179673             -11.3735
        94        2.0000           -0.4157233             -11.3124
        95        1.0000           -0.3593142              -9.7774
        96        1.0000           -0.3249102              -8.8413 (HOMO)
        97                         -0.2868307              -7.8051 (LUMO)
        98                         -0.2825984              -7.6899
        99                         -0.2481713              -6.7531
       100                         -0.2437441              -6.6326
       101                         -0.2405089              -6.5446
       102                         -0.2388500              -6.4994
       103                         -0.2318567              -6.3091
       104                         -0.2275051              -6.1907
       105                         -0.2031008              -5.5267
       106                         -0.1972535              -5.3675
       107                         -0.1405152              -3.8236
       ...                                ...                  ...
       174                          0.6697687              18.2253
      -------------------------------------------------------------
                  HL-Gap            0.0380795 Eh            1.0362 eV

     #   Z          covCN         q      C6AA      α(0)
     1   8 O        0.857    -0.461    22.944     6.422
     2   6 C        2.698     0.355    20.980     7.497
     3   8 O        1.660    -0.379    20.443     6.104
     4   6 C        2.972    -0.023    28.567     8.767
     5   6 C        2.922    -0.018    28.462     8.749
     6   6 C        2.922    -0.033    28.832     8.806
     7   6 C        2.971     0.030    27.335     8.576
     8   6 C        3.814    -0.070    21.822     6.649
     9   6 C        3.917     0.035    19.919     6.343
    10   6 C        2.976     0.025    27.443     8.593
    11   6 C        2.922    -0.028    28.700     8.785
    12   6 C        2.922    -0.017    28.424     8.743
    13   6 C        2.972    -0.019    28.477     8.753
    14   6 C        2.697     0.355    20.967     7.494
    15   8 O        0.857    -0.457    22.847     6.408
    16   8 O        1.660    -0.377    20.404     6.098
    17   6 C        2.919    -0.018    28.470     8.750
    18   6 C        2.921    -0.029    28.726     8.789
    19   6 C        3.908     0.038    19.874     6.337
    20   6 C        2.907    -0.029    28.733     8.790
    21   6 C        2.911    -0.022    28.546     8.761
    22   6 C        2.968    -0.025    28.632     8.777
    23   6 C        2.698     0.340    21.218     7.539
    24   8 O        0.857    -0.491    23.584     6.511
    25   8 O        1.659    -0.399    20.838     6.162
    26   6 C        2.908    -0.023    28.577     8.766
    27   6 C        2.908    -0.029    28.717     8.787
    28   6 C        3.908     0.037    19.895     6.340
    29   6 C        2.907    -0.031    28.769     8.795
    30   6 C        2.911    -0.021    28.534     8.759
    31   6 C        2.968    -0.025    28.632     8.777
    32   6 C        2.698     0.340    21.218     7.539
    33   8 O        0.857    -0.491    23.583     6.511
    34   8 O        1.659    -0.400    20.840     6.163
    35   6 C        2.908    -0.023    28.574     8.765
    36   6 C        2.909    -0.029    28.724     8.788
    37   6 C        2.922    -0.034    28.851     8.808
    38   6 C        2.919    -0.020    28.506     8.755
    39   1 H        0.804     0.337     0.620     1.236
    40   1 H        0.926     0.055     2.263     2.353
    41   1 H        0.926     0.058     2.220     2.330
    42   1 H        0.925     0.081     1.973     2.197
    43   1 H        0.924     0.077     2.011     2.218
    44   1 H        0.926     0.062     2.181     2.309
    45   1 H        0.926     0.062     2.172     2.305
    46   1 H        0.804     0.338     0.617     1.234
    47   1 H        0.926     0.065     2.138     2.286
    48   1 H        0.926     0.058     2.227     2.333
    49   1 H        0.926     0.066     2.132     2.283
    50   1 H        0.926     0.058     2.226     2.333
    51   1 H        0.804     0.329     0.641     1.257
    52   1 H        0.926     0.064     2.154     2.295
    53   1 H        0.926     0.062     2.175     2.306
    54   1 H        0.926     0.066     2.132     2.283
    55   1 H        0.926     0.059     2.216     2.328
    56   1 H        0.804     0.329     0.641     1.257
    57   1 H        0.926     0.064     2.152     2.294
    58   1 H        0.926     0.061     2.191     2.315
    59   1 H        0.926     0.055     2.263     2.352
    60   1 H        0.926     0.062     2.178     2.308

molecular dipole:
                 x           y           z       tot (Debye)
 q only:        0.767       1.612       0.079
   full:        0.958       1.649      -0.242       4.886

 projected vibrational frequencies (cm⁻¹)
eigval :       -0.00    -0.00     0.00     0.00     0.00     0.00
eigval :       13.99    14.12    18.96    23.29    31.49    34.59
eigval :       39.15    52.67    55.04    58.85    59.43    78.94
eigval :       93.70   104.82   117.39   126.79   129.83   145.60
eigval :      149.17   150.37   162.31   171.78   200.73   217.51
eigval :      230.33   256.71   262.45   272.18   296.61   342.41
eigval :      354.92   365.47   370.69   373.39   378.14   389.08
eigval :      392.30   398.50   418.31   454.35   457.80   465.73
eigval :      476.20   483.96   489.86   492.80   504.57   551.53
eigval :      558.51   563.10   577.18   580.89   585.26   591.87
eigval :      594.47   598.79   602.87   605.82   607.39   646.43
eigval :      647.76   650.79   669.23   679.17   698.26   708.41
eigval :      714.98   723.87   731.92   741.82   757.58   780.03
eigval :      782.07   795.44   799.01   802.40   810.70   829.09
eigval :      837.57   852.20   873.30   875.50   878.04   909.44
eigval :      916.09   919.28   921.65   924.71   925.21   932.12
eigval :      935.41   954.55   960.25   962.26  1000.99  1007.31
eigval :     1010.76  1063.60  1065.89  1071.75  1098.94  1101.10
eigval :     1123.81  1126.56  1133.68  1134.88  1137.50  1137.84
eigval :     1138.42  1140.11  1154.50  1189.67  1191.46  1193.30
eigval :     1209.06  1223.10  1226.02  1243.73  1256.06  1261.27
eigval :     1267.76  1269.73  1276.87  1280.42  1283.91  1289.10
eigval :     1303.83  1315.20  1318.18  1325.46  1335.76  1396.00
eigval :     1399.70  1408.81  1410.37  1411.66  1413.01  1444.06
eigval :     1469.24  1476.66  1489.34  1496.88  1561.59  1572.80
eigval :     1582.32  1587.84  1590.70  1594.20  1649.90  1657.18
eigval :     1706.68  1708.34  2980.19  3028.83  3083.93  3086.40
eigval :     3088.19  3088.50  3088.87  3095.12  3097.69  3099.20
eigval :     3101.04  3102.51  3108.33  3111.70  3117.33  3120.80
eigval :     3126.13  3131.93  3431.73  3432.24  3457.64  3458.64

   temp. (K)  partition function   enthalpy   heat capacity  entropy
                                   cal/mol     cal/K/mol   cal/K/mol   J/K/mol
 298.15  VIB  0.113E+17            19612.047    117.561    124.151
         ROT  0.443E+08              888.752      2.981     37.971
         INT  0.502E+24            20500.799    120.542    162.123
         TR   0.112E+29             1481.254      4.968     44.557
         TOT                       21982.0532   125.5105   206.6797   864.7478

       T/K    H(0)-H(T)+PV         H(T)/Eh          T*S/Eh         G(T)/Eh
   ------------------------------------------------------------------------
    298.15    0.350306E-01    0.472697E+00    0.982002E-01    0.374497E+00
   ------------------------------------------------------------------------

         :::::::::::::::::::::::::::::::::::::::::::::::::::::
         ::                  THERMODYNAMIC                  ::
         :::::::::::::::::::::::::::::::::::::::::::::::::::::
         :: total free energy        -107.608035405513 Eh   ::
         ::.................................................::
         :: total energy             -107.982532144256 Eh   ::
         :: zero point energy           0.437666296494 Eh   ::
         :: G(RRHO) w/o ZPVE           -0.063169557751 Eh   ::
         :: G(RRHO) contrib.            0.374496738743 Eh   ::
         :::::::::::::::::::::::::::::::::::::::::::::::::::::

           -------------------------------------------------
          | TOTAL ENERGY             -107.982532144256 Eh   |
          | TOTAL ENTHALPY           -107.509835216136 Eh   |
          | TOTAL FREE ENERGY        -107.608035405513 Eh   |
          | GRADIENT NORM               0.000169510182 Eh/α |
          | HOMO-LUMO GAP               1.036195692851 eV   |
           -------------------------------------------------

 * finished run on 2025/09/10 at 02:16:10.630
