   * xtb version 6.7.1 (edcfbbe) compiled by 'albert@albert-system' on 2024-07-22

   ID    Z sym.   atoms
    1    6 C      1-4, 6-19, 21-30, 32-40
    2    7 N      5, 20, 31
    3    1 H      41-63

          program call               : xtb data2507/gas/SABIQ/SABIQ_gas_S0_finalOpt.xtbopt.xyz --gfn 2 --spinpol --tblite --uhf 2 --ohess vtight --parallel 40 --molden --ceasefiles --namespace data2507/gas/SABIQ/SABIQ_gas_T1_preOpt
 * total energy  :   -99.7220253 Eh     change        0.6821040E-08 Eh
 * total energy  :   -99.7260452 Eh     change       -0.4019905E-02 Eh
 * total energy  :   -99.7274817 Eh     change       -0.1436506E-02 Eh
 * total energy  :   -99.7276331 Eh     change       -0.1514484E-03 Eh
 * total energy  :   -99.7276922 Eh     change       -0.5906234E-04 Eh
 * total energy  :   -99.7277063 Eh     change       -0.1405324E-04 Eh
 * total energy  :   -99.7277231 Eh     change       -0.1680118E-04 Eh
 * total energy  :   -99.7277440 Eh     change       -0.2091971E-04 Eh
 * total energy  :   -99.7277654 Eh     change       -0.2146399E-04 Eh
 * total energy  :   -99.7277802 Eh     change       -0.1477432E-04 Eh
 * total energy  :   -99.7277907 Eh     change       -0.8998465E-06 Eh
 * total energy  :   -99.7277921 Eh     change       -0.1327085E-05 Eh
 * total energy  :   -99.7277942 Eh     change       -0.2103882E-05 Eh
 * total energy  :   -99.7277963 Eh     change       -0.2150758E-05 Eh
 * total energy  :   -99.7277976 Eh     change       -0.1318933E-05 Eh
 * total energy  :   -99.7277984 Eh     change       -0.7612780E-06 Eh
 * total energy  :   -99.7277990 Eh     change       -0.5568406E-06 Eh
 * total energy  :   -99.7277989 Eh     change        0.2025449E-07 Eh
 * total energy  :   -99.7277990 Eh     change       -0.2681341E-07 Eh
   *** GEOMETRY OPTIMIZATION CONVERGED AFTER 23 ITERATIONS ***

 final structure:
================
63
 xtb: 6.7.1 (edcfbbe)
C           -2.06534969089731        5.53666798592345        0.04947626050842
C           -0.89974176102202        4.81669356610570        0.25387593770759
C           -0.92559920162859        3.43378099569490        0.22986967555193
C           -2.12379563611393        2.77112729356446        0.00062689955277
N           -2.11878940244438        1.34932751593933       -0.01375107434277
C           -2.14838560481586        0.66690425346692       -1.21620885585736
C           -2.46576860364007        1.31767438505405       -2.41055305624077
C           -2.54433728982968        0.61023567216670       -3.59227342796179
C           -2.30857645865835       -0.75548632947309       -3.61039448802281
C           -1.95583428496615       -1.40193398287392       -2.44026384745838
C           -1.86893632982751       -0.70681919911019       -1.24423717012861
C           -1.33173202152181       -1.35507898879365        0.00186353516463
C           -1.40385950185024       -2.86059418291380        0.01036362606131
C           -2.52072582213116       -3.66428431116826        0.01104301193423
C           -2.34773611646616       -5.04450554748192        0.02067922206762
C           -1.07605625798038       -5.60057801477230        0.02995922419836
C            0.05454699964634       -4.80210962731123        0.03005352067330
C           -0.11416079736964       -3.42277200086094        0.02020284550059
C            0.85481397729360       -2.36238268599960        0.01650849873620
N            2.17342291114526       -2.37306031907633        0.02136491355541
C            2.87293871984250       -1.23531573889935        0.00993668376427
C            4.25190221550520       -1.21210671268361        0.01349523331098
C            4.98012267644151       -0.00816797941586       -0.00359390666708
C            6.38767848924826        0.01134549437354        0.00009484501714
C            7.07429961185726        1.19771859335367       -0.01968780766807
C            6.38250064824901        2.41401071469247       -0.04428303566516
C            5.01103725926569        2.42842586765719       -0.04794925449777
C            4.27789345523400        1.22904214846227       -0.02737036338461
C            2.86806269722422        1.21410376765667       -0.02918707763225
C            2.15299980312823        0.04229800392893       -0.00904911596957
N            0.80546593557899        0.01276257004430       -0.00703602700992
C            0.17700855941796       -1.12237092069827        0.00336069285868
C           -1.87482713033502       -0.69727291730166        1.23958992814348
C           -1.97511041477726       -1.37861391785298        2.44251317938923
C           -2.35722954191364       -0.72110249402149        3.59724018596917
C           -2.62269678350006        0.63894178500240        3.55569210480538
C           -2.53052470140073        1.33213602553368        2.36673473300695
C           -2.16266283189304        0.67277008576218        1.19147785789767
C           -3.29541250923680        3.49059950175833       -0.19787033592151
C           -3.26074361259793        4.87388788180390       -0.17495841687772
H           -2.04343769010207        6.61592021034019        0.06695499957274
H            0.03124667777822        5.33392364770986        0.43110303793389
H           -0.03029259674425        2.85097832339864        0.38748080073765
H           -2.64529448629232        2.38160601700220       -2.40985041392245
H           -2.79197119075733        1.12936835005517       -4.50604784402035
H           -2.37654398905100       -1.30898588891778       -4.53403025816128
H           -1.73226120281447       -2.45839007732768       -2.45269577038526
H           -3.51044907327742       -3.23115504219169        0.00391467583834
H           -3.21355736721383       -5.68959873015080        0.02086320012844
H           -0.96763887678207       -6.67538498502598        0.03718833685629
H            1.04511290193685       -5.22919536318871        0.03730975449834
H            4.77972389302354       -2.15371196315894        0.02865484676040
H            6.91901410570560       -0.92952443638567        0.01859291905232
H            8.15467096900323        1.19994132148173       -0.01672851235195
H            6.93598225473909        3.34167087431324       -0.06038567680595
H            4.47320817166154        3.36594731305328       -0.06714907114027
H            2.33047196429802        2.15069307578040       -0.05109448207476
H           -1.74181297704480       -2.43260803364264        2.47232617115285
H           -2.43341536869691       -1.26328928252447        4.52695952958856
H           -2.90728949902595        1.16304782618620        4.45572154934199
H           -2.74517946239072        2.38968145299275        2.34043780531857
H           -4.22392273926675        2.96390277530806       -0.36426767834719
H           -4.17030343601261        5.43494167219205       -0.32984991557590

 projected vibrational frequencies (cm⁻¹)
eigval :       -0.00    -0.00    -0.00     0.00     0.00     0.00
eigval :       10.74    19.76    27.54    32.78    46.99    54.43
eigval :       56.06    67.02    73.11   101.72   114.14   114.62
eigval :      150.96   161.01   167.62   176.56   198.78   239.25
eigval :      246.37   248.61   252.23   261.34   292.31   308.04
eigval :      315.67   359.69   367.78   373.18   375.84   391.50
eigval :      400.28   417.61   422.42   433.71   449.31   456.95
eigval :      464.50   479.68   481.96   497.77   504.54   509.91
eigval :      513.66   513.93   559.59   576.04   578.96   589.68
eigval :      590.78   594.42   600.37   618.80   626.05   641.59
eigval :      663.81   671.88   674.15   687.76   692.34   701.11
eigval :      703.80   724.17   728.14   754.40   763.77   765.62
eigval :      773.34   775.30   776.29   779.05   813.40   841.45
eigval :      866.29   867.75   868.43   872.64   874.20   880.39
eigval :      892.02   892.22   904.30   905.31   908.81   909.78
eigval :      910.98   911.88   919.82   921.73   921.86   922.85
eigval :      923.07   931.46   934.28   942.28   997.51   999.99
eigval :     1070.31  1077.65  1082.80  1085.16  1101.52  1102.94
eigval :     1112.24  1125.31  1135.62  1146.26  1154.49  1171.28
eigval :     1176.60  1179.68  1180.62  1182.30  1182.92  1183.66
eigval :     1187.25  1203.08  1211.13  1221.44  1226.44  1240.83
eigval :     1254.21  1255.32  1260.51  1268.81  1272.67  1273.30
eigval :     1277.71  1310.20  1322.02  1324.92  1328.44  1333.90
eigval :     1335.48  1337.76  1357.03  1379.20  1414.74  1425.28
eigval :     1432.61  1433.41  1440.53  1441.94  1445.40  1456.07
eigval :     1456.43  1467.93  1484.93  1487.09  1526.60  1547.78
eigval :     1557.00  1564.14  1576.13  1583.15  1583.47  1585.79
eigval :     1591.30  1592.35  1594.48  1598.46  3065.58  3069.17
eigval :     3076.01  3076.05  3078.20  3079.76  3080.09  3082.89
eigval :     3083.19  3083.39  3086.34  3087.59  3087.87  3088.47
eigval :     3089.34  3092.41  3094.59  3096.10  3098.76  3100.43
eigval :     3101.96  3102.29  3103.69

   temp. (K)  partition function   enthalpy   heat capacity  entropy
                                   cal/mol     cal/K/mol   cal/K/mol   J/K/mol
 298.15  VIB  0.252E+13            17035.879    112.905    103.666
         ROT  0.356E+08              888.752      2.981     37.537
         INT  0.898E+20            17924.632    115.886    141.202
         TR   0.111E+29             1481.254      4.968     44.552
         TOT                       19405.8857   120.8544   185.7540   777.1946

       T/K    H(0)-H(T)+PV         H(T)/Eh          T*S/Eh         G(T)/Eh
   ------------------------------------------------------------------------
    298.15    0.309252E-01    0.507568E+00    0.882577E-01    0.419310E+00
   ------------------------------------------------------------------------

         :::::::::::::::::::::::::::::::::::::::::::::::::::::
         ::                  THERMODYNAMIC                  ::
         :::::::::::::::::::::::::::::::::::::::::::::::::::::
         :: total free energy         -99.308488817795 Eh   ::
         ::.................................................::
         :: total energy              -99.727798968243 Eh   ::
         :: zero point energy           0.476642608466 Eh   ::
         :: G(RRHO) w/o ZPVE           -0.057332458018 Eh   ::
         :: G(RRHO) contrib.            0.419310150449 Eh   ::
         :::::::::::::::::::::::::::::::::::::::::::::::::::::

           -------------------------------------------------
          | TOTAL ENERGY              -99.727798968243 Eh   |
          | TOTAL ENTHALPY            -99.220231112435 Eh   |
          | TOTAL FREE ENERGY         -99.308488817795 Eh   |
          | GRADIENT NORM               0.000093376609 Eh/α |
           -------------------------------------------------

 * finished run on 2025/09/04 at 12:30:03.462
