   * xtb version 6.7.1 (edcfbbe) compiled by 'albert@albert-system' on 2024-07-22

   ID    Z sym.   atoms
    1    6 C      1-4, 6-19, 21-30, 32-40
    2    7 N      5, 20, 31
    3    1 H      41-63

          program call               : xtb data2507/gas/SABIQ/SABIQ_gas_T1_crest.xyz --gfn 2 --spinpol --tblite --uhf 2 --ohess vtight --parallel 40 --molden --ceasefiles --namespace data2507/gas/SABIQ/SABIQ_gas_T1_finalOpt
 * total energy  :   -99.7277766 Eh     change       -0.1117380E-07 Eh
 * total energy  :   -99.7277963 Eh     change       -0.1971903E-04 Eh
 * total energy  :   -99.7278027 Eh     change       -0.6360987E-05 Eh
 * total energy  :   -99.7278043 Eh     change       -0.1571846E-05 Eh
 * total energy  :   -99.7278057 Eh     change       -0.1436685E-05 Eh
 * total energy  :   -99.7278069 Eh     change       -0.1231307E-05 Eh
 * total energy  :   -99.7278083 Eh     change       -0.1337705E-05 Eh
 * total energy  :   -99.7278093 Eh     change       -0.1029951E-05 Eh
 * total energy  :   -99.7278100 Eh     change       -0.7446650E-06 Eh
 * total energy  :   -99.7278106 Eh     change       -0.5961823E-06 Eh
 * total energy  :   -99.7278111 Eh     change       -0.4681152E-06 Eh
 * total energy  :   -99.7278111 Eh     change       -0.3305138E-07 Eh
 * total energy  :   -99.7278114 Eh     change       -0.2300898E-06 Eh
 * total energy  :   -99.7278116 Eh     change       -0.2050096E-06 Eh
 * total energy  :   -99.7278118 Eh     change       -0.1850600E-06 Eh
 * total energy  :   -99.7278120 Eh     change       -0.2466285E-06 Eh
 * total energy  :   -99.7278122 Eh     change       -0.1539565E-06 Eh
 * total energy  :   -99.7278123 Eh     change       -0.9651640E-07 Eh
   *** GEOMETRY OPTIMIZATION CONVERGED AFTER 18 ITERATIONS ***

 final structure:
================
63
 xtb: 6.7.1 (edcfbbe)
C           -1.30259616222875        5.70548633948851        0.06806844585581
C           -2.57036804360022        5.22083506886747       -0.20800708564870
C           -2.80184583542474        3.85670615290168       -0.24293734310474
C           -1.75380017821512        2.97654376847241       -0.00532657787223
N           -1.94781050324589        1.56868202134805       -0.02867240156950
C           -2.05296397400384        0.89686752496444       -1.23317267368410
C           -2.27927200364952        1.58160927215408       -2.42906749433036
C           -2.43757539253683        0.88885746965846       -3.61159668106052
C           -2.37316878237360       -0.49555160678125       -3.62904352694576
C           -2.10850406147518       -1.18048972223451       -2.45750219702332
C           -1.94294480900143       -0.50092616881514       -1.26098837662574
C           -1.48903486529729       -1.20654862716674       -0.01291710583615
C           -1.71917430227057       -2.69587114635009       -0.00685250930182
C           -2.91413716570753       -3.37814513038157       -0.01618006989250
C           -2.88698289209913       -4.76888932074063       -0.00449388061985
C           -1.68080445566990       -5.45529596011179        0.01700683291304
C           -0.47277977144401       -4.77976187707209        0.02693424825455
C           -0.49571672605616       -3.39037241531742        0.01469355471456
C            0.57945220774302       -2.43774337362818        0.01897542913721
N            1.88966971235064       -2.58669829289825        0.03314020382136
C            2.70466857522665       -1.52856484180580        0.02496358115807
C            4.07848390096014       -1.65008027210010        0.03629178253694
C            4.92909140663903       -0.52923470704376        0.02148922403684
C            6.33093485591014       -0.65716041160856        0.03227437327621
C            7.13808094513150        0.45077143833910        0.01425556920458
C            6.57768290091259        1.73283727021774       -0.01536380110163
C            5.21533337663256        1.89076580830838       -0.02617254974935
C            4.36064414509975        0.77471226124848       -0.00792875730981
C            2.95713778207589        0.90773742061123       -0.01779686848430
C            2.12295744390824       -0.18251361479666        0.00029376122042
N            0.77967451051561       -0.07036320114806       -0.00544024901225
C            0.03580200462338       -1.13363262998152        0.00055917317707
C           -1.96780311624211       -0.49458498563655        1.22127609119728
C           -2.16527979601507       -1.16133212797480        2.42022725712918
C           -2.48141739915580       -0.46435486075767        3.57183306930223
C           -2.58215192985878        0.91775326238367        3.53116456492040
C           -2.39170295806200        1.59700188697020        2.34582034531365
C           -2.08841212861896        0.90009528144746        1.17388145862932
C           -0.48350437111265        3.46101094463740        0.27701560738645
C           -0.26101206182818        4.82564171508323        0.31307031954193
H           -1.12741629036380        6.77045601236023        0.09475776086986
H           -3.38364894543755        5.90662612108243       -0.39338178861250
H           -3.78958500819296        3.46951500662316       -0.44707245203936
H           -2.32407651978526        2.65957870735048       -2.42963274826572
H           -2.61290166119014        1.43442868691313       -4.52670977502648
H           -2.50404609869283       -1.03650189521929       -4.55334428105777
H           -2.01547181683922       -2.25632528201475       -2.46942929789759
H           -3.85294443329868       -2.84372285588840       -0.03247772610926
H           -3.81567703963248       -5.31958685562577       -0.01201675275410
H           -1.68582627419842       -6.53553516459902        0.02616966911638
H            0.46744827143032       -5.30832537559549        0.04369223514290
H            4.50450692669659       -2.64183483055427        0.05557559032270
H            6.76076459196294       -1.64843911727220        0.05463155328163
H            8.21271469499600        0.33985521931457        0.02244358828859
H            7.22532814199336        2.59741292604543       -0.02981493259838
H            4.77862267719113        2.87937355387795       -0.04944850781832
H            2.52157431191185        1.89575383280812       -0.04607460149074
H           -2.06014836667455       -2.23568652581961        2.44981046463611
H           -2.63425783522263       -0.99493776276173        4.49880014651242
H           -2.81463307302501        1.47049779012530        4.42902405564291
H           -2.47904815923925        2.67258982935602        2.31946663875647
H            0.31148625103725        2.75495242005783        0.46579188085779
H            0.72641444883728        5.20382318838497        0.53143246728853

 projected vibrational frequencies (cm⁻¹)
eigval :       -0.00    -0.00    -0.00    -0.00     0.00     0.00
eigval :       12.96    21.11    31.82    32.95    47.34    54.49
eigval :       56.36    67.20    73.34   101.92   114.41   115.07
eigval :      150.86   161.09   168.30   176.52   199.04   239.22
eigval :      245.99   248.41   252.80   262.09   292.48   308.00
eigval :      315.74   359.50   367.85   372.80   376.42   390.77
eigval :      400.28   417.92   422.53   433.70   449.30   457.09
eigval :      464.91   479.71   482.07   497.72   504.56   509.73
eigval :      513.65   514.23   559.71   576.11   579.13   589.43
eigval :      590.72   594.85   600.67   618.64   626.32   641.72
eigval :      663.88   671.91   674.11   688.02   692.83   701.07
eigval :      703.76   723.43   727.97   754.39   763.80   765.92
eigval :      773.40   775.34   776.40   779.18   813.44   841.42
eigval :      866.29   867.86   868.83   872.72   874.35   881.06
eigval :      892.02   892.26   904.29   905.54   909.03   909.75
eigval :      911.12   911.94   919.81   921.83   921.96   923.08
eigval :      923.14   931.81   934.47   942.08   997.54  1000.20
eigval :     1070.34  1077.76  1082.67  1085.23  1101.17  1102.69
eigval :     1112.41  1125.17  1135.57  1146.33  1154.53  1171.55
eigval :     1176.79  1179.76  1180.74  1182.39  1182.98  1183.73
eigval :     1187.51  1203.34  1211.27  1221.79  1225.96  1241.01
eigval :     1254.29  1255.74  1260.52  1268.53  1273.02  1274.04
eigval :     1277.87  1310.21  1322.16  1325.28  1328.46  1333.96
eigval :     1334.81  1337.80  1357.14  1379.46  1414.76  1425.34
eigval :     1432.77  1433.62  1440.85  1442.31  1445.52  1455.54
eigval :     1456.30  1468.09  1484.67  1486.91  1526.00  1547.60
eigval :     1557.12  1564.05  1576.12  1583.02  1583.44  1585.74
eigval :     1591.24  1592.30  1594.46  1598.58  3065.66  3069.38
eigval :     3076.10  3076.28  3078.36  3079.79  3080.19  3083.06
eigval :     3083.35  3083.39  3086.57  3087.90  3088.10  3088.74
eigval :     3089.40  3092.57  3094.62  3096.18  3099.21  3100.34
eigval :     3102.04  3102.46  3104.08

   temp. (K)  partition function   enthalpy   heat capacity  entropy
                                   cal/mol     cal/K/mol   cal/K/mol   J/K/mol
 298.15  VIB  0.167E+13            17019.483    112.978    103.327
         ROT  0.354E+08              888.752      2.981     37.521
         INT  0.590E+20            17908.235    115.958    140.848
         TR   0.111E+29             1481.254      4.968     44.552
         TOT                       19389.4893   120.9266   185.4002   775.7144

       T/K    H(0)-H(T)+PV         H(T)/Eh          T*S/Eh         G(T)/Eh
   ------------------------------------------------------------------------
    298.15    0.308991E-01    0.507594E+00    0.880896E-01    0.419504E+00
   ------------------------------------------------------------------------

         :::::::::::::::::::::::::::::::::::::::::::::::::::::
         ::                  THERMODYNAMIC                  ::
         :::::::::::::::::::::::::::::::::::::::::::::::::::::
         :: total free energy         -99.308307839662 Eh   ::
         ::.................................................::
         :: total energy              -99.727812263511 Eh   ::
         :: zero point energy           0.476694921690 Eh   ::
         :: G(RRHO) w/o ZPVE           -0.057190497841 Eh   ::
         :: G(RRHO) contrib.            0.419504423849 Eh   ::
         :::::::::::::::::::::::::::::::::::::::::::::::::::::

           -------------------------------------------------
          | TOTAL ENERGY              -99.727812263511 Eh   |
          | TOTAL ENTHALPY            -99.220218223734 Eh   |
          | TOTAL FREE ENERGY         -99.308307839662 Eh   |
          | GRADIENT NORM               0.000069367076 Eh/α |
           -------------------------------------------------

 * finished run on 2025/09/04 at 12:33:11.514
