   * xtb version 6.7.1 (edcfbbe) compiled by 'albert@albert-system' on 2024-07-22

   ID    Z sym.   atoms
    1    6 C      1-4, 6-19, 21-30, 32-40
    2    7 N      5, 20, 31
    3    1 H      41-63

          program call               : xtb data2507/gas/SABIQ/SABIQ_gas_S0_crest.xyz --gfn 2 --ohess vtight --parallel 40 --molden --ceasefiles --namespace data2507/gas/SABIQ/SABIQ_gas_S0_finalOpt
          :  Hamiltonian                  GFN2-xTB          :
 * total energy  :   -99.7686109 Eh     change       -0.5375398E-09 Eh
 * total energy  :   -99.7686116 Eh     change       -0.6211963E-06 Eh
 * total energy  :   -99.7686121 Eh     change       -0.5773594E-06 Eh
 * total energy  :   -99.7686133 Eh     change       -0.1135719E-05 Eh
 * total energy  :   -99.7686142 Eh     change       -0.9031984E-06 Eh
 * total energy  :   -99.7686146 Eh     change       -0.4734210E-06 Eh
 * total energy  :   -99.7686150 Eh     change       -0.3275543E-06 Eh
 * total energy  :   -99.7686153 Eh     change       -0.3579267E-06 Eh
 * total energy  :   -99.7686157 Eh     change       -0.3285243E-06 Eh
 * total energy  :   -99.7686160 Eh     change       -0.3140374E-06 Eh
 * total energy  :   -99.7686163 Eh     change       -0.3021045E-06 Eh
 * total energy  :   -99.7686166 Eh     change       -0.2930777E-06 Eh
 * total energy  :   -99.7686169 Eh     change       -0.2926821E-06 Eh
 * total energy  :   -99.7686171 Eh     change       -0.2774636E-06 Eh
 * total energy  :   -99.7686174 Eh     change       -0.2874401E-06 Eh
 * total energy  :   -99.7686177 Eh     change       -0.2272055E-06 Eh
 * total energy  :   -99.7686177 Eh     change       -0.8273548E-07 Eh
   *** GEOMETRY OPTIMIZATION CONVERGED AFTER 17 ITERATIONS ***

 final structure:
================
63
 xtb: 6.7.1 (edcfbbe)
C           -2.10936488292741        5.54916378921985        0.06091502261498
C           -0.96029819656745        4.81557346701565        0.30771635652407
C           -1.00035294345156        3.43354518634074        0.27643895194960
C           -2.19574309555676        2.78311414421090       -0.00152679965034
N           -2.19955348270634        1.36331129720693       -0.01936856368273
C           -2.19879770194645        0.67513018588026       -1.22084880554287
C           -2.55296058621108        1.30327491674445       -2.41533668889682
C           -2.60197371168869        0.59017012984287       -3.59703238368908
C           -2.30352633332151       -0.76072906970166       -3.61293248582891
C           -1.91606932067125       -1.38435861833737       -2.43919386238942
C           -1.85421981638881       -0.68158393580854       -1.24830109383960
C           -1.27949366969578       -1.31204911433616       -0.00104129557558
C           -1.35114139862176       -2.81958254198851        0.01011215366143
C           -2.47745067832459       -3.61655909152201        0.01754868211774
C           -2.31658135005098       -4.99533571980021        0.02939159232996
C           -1.05180421075889       -5.56848630707868        0.03394634574214
C            0.08435924965521       -4.77753187919902        0.02688502096755
C           -0.07340924289173       -3.40005098967173        0.01508979510995
C            0.91519728867484       -2.34141376664895        0.00655722639215
N            2.21256582265985       -2.42838662764022        0.01193824059963
C            2.88207882660315       -1.24170778606648        0.00099942343284
C            4.27074380971130       -1.24922314334705        0.00431804772946
C            4.99565277024046       -0.05869788309311       -0.00829018529503
C            6.41329937106719       -0.04590241584761       -0.00368340264555
C            7.10225485277824        1.12857374497647       -0.01752868872742
C            6.41477180697868        2.35996437167464       -0.03765620632366
C            5.05323887848038        2.38998139061087       -0.04292734008189
C            4.29869111566487        1.19057466960270       -0.02778440255887
C            2.90384866143573        1.19826680655931       -0.03081076087971
C            2.18366494460398        0.01408479120350       -0.01443687464520
N            0.81688710415472        0.06250363319729       -0.01309393434921
C            0.21962714818523       -1.08253756906372       -0.00480470097500
C           -1.84969042839857       -0.66758423682317        1.23977411019832
C           -1.91657889041341       -1.35041255641775        2.44193187682198
C           -2.32525969710647       -0.70976874828960        3.59934681129596
C           -2.65600308396434        0.63335931543339        3.55412314415600
C           -2.60187209861616        1.32562262334985        2.36059818554210
C           -2.20167297051288        0.68470083797732        1.18723063966765
C           -3.35079329727680        3.51683801562113       -0.24053177520765
C           -3.30185399014174        4.89986494657393       -0.21173712988883
H           -2.07671642003389        6.62828830678904        0.08352954688107
H           -0.03154473097169        5.32315610218143        0.52281046277700
H           -0.11930268287545        2.83813630919950        0.46430491476924
H           -2.78236924024239        2.35761904418411       -2.41804715166287
H           -2.87692484901433        1.09598101631322       -4.51079321665757
H           -2.34672254081499       -1.32149699945761       -4.53389515702686
H           -1.64167037103897       -2.42951064953254       -2.45230683394094
H           -3.46255693242374       -3.17369294500736        0.01416567952944
H           -3.18919355592423       -5.63197278652926        0.03531053308401
H           -0.95595084903399       -6.64427392058084        0.04322939970949
H            1.07366957801940       -5.20754875353159        0.03059923342210
H            4.78061551138680       -2.20088076593351        0.01594928722535
H            6.93384668134729       -0.99255340566393        0.01130047756888
H            8.18237603095380        1.12954399919877       -0.01348995608614
H            6.98239905483218        3.27890911817222       -0.04871826181300
H            4.52097300230357        3.33024051612563       -0.05850405325300
H            2.36540492301113        2.13425644725361       -0.04985113911796
H           -1.63251461523287       -2.39248173438642        2.47648843157776
H           -2.36927006236689       -1.25374751938846        4.53032488971610
H           -2.96346592548718        1.14702046969658        4.45296605891227
H           -2.87105876236958        2.37076955117859        2.33060463292002
H           -4.27949372930570        3.00228972043339       -0.44079932554407
H           -4.19882705520081        5.47189494272387       -0.39840478597070

          :  Hamiltonian                  GFN2-xTB          :
         :: gradient norm              0.000041568729 Eh/a0 ::
         :: HOMO-LUMO gap              1.116419233892 eV    ::
         :: SCC energy              -101.628065022322 Eh    ::
         :: -> dispersion             -0.094946841542 Eh    ::
         :: repulsion energy           1.859447282181 Eh    ::

    * Orbital Energies and Occupations

         #    Occupation            Energy/Eh            Energy/eV
      -------------------------------------------------------------
         1        2.0000           -0.6726348             -18.3033
       ...           ...                  ...                  ...
        81        2.0000           -0.4163006             -11.3281
        82        2.0000           -0.4143318             -11.2745
        83        2.0000           -0.4134071             -11.2494
        84        2.0000           -0.4099202             -11.1545
        85        2.0000           -0.4094675             -11.1422
        86        2.0000           -0.4064194             -11.0592
        87        2.0000           -0.4015886             -10.9278
        88        2.0000           -0.3967590             -10.7964
        89        2.0000           -0.3948828             -10.7453
        90        2.0000           -0.3914092             -10.6508
        91        2.0000           -0.3738842             -10.1739
        92        2.0000           -0.3522935              -9.5864
        93        2.0000           -0.3402801              -9.2595 (HOMO)
        94                         -0.2992524              -8.1431 (LUMO)
        95                         -0.2562548              -6.9730
        96                         -0.2419675              -6.5843
        97                         -0.2336035              -6.3567
        98                         -0.2318981              -6.3103
        99                         -0.2296706              -6.2497
       100                         -0.2227392              -6.0610
       101                         -0.2195260              -5.9736
       102                         -0.2185573              -5.9472
       103                         -0.2148493              -5.8463
       104                         -0.1918894              -5.2216
       ...                                ...                  ...
       183                          0.7245532              19.7161
      -------------------------------------------------------------
                  HL-Gap            0.0410277 Eh            1.1164 eV

     #   Z          covCN         q      C6AA      α(0)
     1   6 C        2.920    -0.031    28.774     8.796
     2   6 C        2.920    -0.027    28.678     8.782
     3   6 C        2.923    -0.037    28.922     8.819
     4   6 C        2.928     0.069    26.456     8.435
     5   7 N        2.755    -0.062    22.440     7.036
     6   6 C        2.928     0.064    26.560     8.452
     7   6 C        2.923    -0.057    29.407     8.893
     8   6 C        2.920    -0.032    28.799     8.800
     9   6 C        2.918    -0.043    29.072     8.842
    10   6 C        2.923    -0.037    28.927     8.820
    11   6 C        2.987    -0.008    28.216     8.713
    12   6 C        3.946     0.011    20.330     6.407
    13   6 C        3.055     0.004    27.873     8.658
    14   6 C        2.914    -0.029    28.732     8.790
    15   6 C        2.922    -0.026    28.664     8.780
    16   6 C        2.921    -0.030    28.755     8.794
    17   6 C        2.913    -0.025    28.620     8.773
    18   6 C        3.028    -0.006    28.142     8.702
    19   6 C        3.021     0.086    26.065     8.375
    20   7 N        1.840    -0.240    27.116     7.717
    21   6 C        2.983     0.075    26.315     8.415
    22   6 C        2.922    -0.046    29.152     8.854
    23   6 C        2.983     0.014    27.699     8.633
    24   6 C        2.917    -0.033    28.822     8.804
    25   6 C        2.914    -0.028    28.697     8.784
    26   6 C        2.915    -0.028    28.693     8.784
    27   6 C        2.917    -0.033    28.830     8.805
    28   6 C        2.983     0.014    27.701     8.633
    29   6 C        2.922    -0.047    29.162     8.856
    30   6 C        2.986     0.075    26.320     8.416
    31   7 N        1.839    -0.247    27.294     7.742
    32   6 C        3.050     0.096    25.834     8.336
    33   6 C        2.987    -0.008    28.203     8.711
    34   6 C        2.922    -0.037    28.925     8.820
    35   6 C        2.918    -0.043    29.062     8.840
    36   6 C        2.919    -0.032    28.796     8.800
    37   6 C        2.923    -0.055    29.372     8.888
    38   6 C        2.932     0.064    26.570     8.454
    39   6 C        2.920    -0.039    28.968     8.826
    40   6 C        2.920    -0.029    28.729     8.790
    41   1 H        0.926     0.036     2.508     2.476
    42   1 H        0.926     0.037     2.494     2.470
    43   1 H        0.926     0.052     2.291     2.367
    44   1 H        0.926     0.031     2.578     2.511
    45   1 H        0.926     0.030     2.583     2.513
    46   1 H        0.926     0.029     2.607     2.525
    47   1 H        0.926     0.026     2.641     2.541
    48   1 H        0.926     0.035     2.514     2.479
    49   1 H        0.926     0.036     2.499     2.472
    50   1 H        0.926     0.036     2.498     2.471
    51   1 H        0.926     0.049     2.329     2.387
    52   1 H        0.926     0.053     2.287     2.365
    53   1 H        0.926     0.036     2.498     2.472
    54   1 H        0.926     0.033     2.538     2.492
    55   1 H        0.926     0.033     2.542     2.493
    56   1 H        0.926     0.035     2.520     2.482
    57   1 H        0.926     0.047     2.356     2.400
    58   1 H        0.926     0.027     2.636     2.539
    59   1 H        0.926     0.029     2.601     2.522
    60   1 H        0.926     0.031     2.578     2.511
    61   1 H        0.926     0.028     2.614     2.528
    62   1 H        0.926     0.040     2.444     2.445
    63   1 H        0.926     0.036     2.502     2.474

molecular dipole:
                 x           y           z       tot (Debye)
 q only:       -0.185       0.579       0.025
   full:       -0.189       0.541       0.016       1.457

 projected vibrational frequencies (cm⁻¹)
eigval :       -0.00    -0.00     0.00     0.00     0.00     0.00
eigval :        9.97    19.93    29.34    31.27    45.55    53.40
eigval :       55.10    64.34    72.50    99.28   115.00   116.15
eigval :      150.60   160.55   170.03   180.92   198.78   235.54
eigval :      244.08   249.51   251.69   259.67   313.20   316.20
eigval :      320.77   355.31   361.28   372.53   376.96   388.95
eigval :      400.56   419.53   424.86   431.24   448.06   453.92
eigval :      465.31   472.97   481.68   498.55   506.89   510.72
eigval :      511.26   516.75   563.26   584.00   588.58   591.24
eigval :      593.25   595.00   602.95   627.68   643.62   657.40
eigval :      672.20   673.92   690.01   698.23   709.70   723.65
eigval :      724.60   748.71   755.06   761.91   766.14   771.86
eigval :      777.39   781.84   783.42   843.18   855.47   864.24
eigval :      865.74   866.82   874.54   875.52   881.89   885.26
eigval :      894.37   900.60   905.97   909.00   909.56   912.68
eigval :      915.97   917.08   920.34   920.50   922.70   927.38
eigval :      930.60   932.06   934.65   944.58   998.37  1030.57
eigval :     1070.02  1070.42  1078.04  1098.01  1104.22  1106.15
eigval :     1112.08  1123.71  1134.48  1143.62  1149.71  1168.90
eigval :     1175.55  1179.68  1181.27  1183.00  1183.63  1184.32
eigval :     1186.50  1203.85  1207.93  1223.78  1232.72  1247.65
eigval :     1255.28  1262.46  1268.07  1269.02  1274.63  1279.20
eigval :     1310.66  1320.01  1324.31  1325.91  1328.38  1329.45
eigval :     1337.69  1343.03  1351.06  1391.13  1421.21  1432.57
eigval :     1433.59  1440.54  1443.16  1447.37  1459.85  1470.30
eigval :     1474.72  1475.38  1493.82  1539.84  1551.55  1569.94
eigval :     1571.54  1583.29  1584.60  1587.84  1593.12  1594.81
eigval :     1599.91  1603.29  1612.27  1620.32  3072.10  3074.76
eigval :     3076.42  3076.68  3076.91  3077.38  3079.28  3079.78
eigval :     3080.19  3083.13  3084.28  3085.26  3086.88  3090.59
eigval :     3091.52  3092.39  3092.78  3093.68  3095.01  3097.93
eigval :     3098.57  3101.32  3104.54

   temp. (K)  partition function   enthalpy   heat capacity  entropy
                                   cal/mol     cal/K/mol   cal/K/mol   J/K/mol
 298.15  VIB  0.265E+13            16925.089    111.849    103.178
         ROT  0.358E+08              888.752      2.981     37.547
         INT  0.948E+20            17813.842    114.830    140.725
         TR   0.111E+29             1481.254      4.968     44.552
         TOT                       19295.0957   119.7982   185.2770   775.1988

       T/K    H(0)-H(T)+PV         H(T)/Eh          T*S/Eh         G(T)/Eh
   ------------------------------------------------------------------------
    298.15    0.307487E-01    0.509396E+00    0.880311E-01    0.421364E+00
   ------------------------------------------------------------------------

         :::::::::::::::::::::::::::::::::::::::::::::::::::::
         ::                  THERMODYNAMIC                  ::
         :::::::::::::::::::::::::::::::::::::::::::::::::::::
         :: total free energy         -99.347253260754 Eh   ::
         ::.................................................::
         :: total energy              -99.768617740134 Eh   ::
         :: zero point energy           0.478646853799 Eh   ::
         :: G(RRHO) w/o ZPVE           -0.057282374419 Eh   ::
         :: G(RRHO) contrib.            0.421364479380 Eh   ::
         :::::::::::::::::::::::::::::::::::::::::::::::::::::

           -------------------------------------------------
          | TOTAL ENERGY              -99.768617740134 Eh   |
          | TOTAL ENTHALPY            -99.259222194047 Eh   |
          | TOTAL FREE ENERGY         -99.347253260754 Eh   |
          | GRADIENT NORM               0.000041568641 Eh/α |
          | HOMO-LUMO GAP               1.116420109982 eV   |
           -------------------------------------------------

 * finished run on 2025/09/04 at 12:29:59.164
