   * xtb version 6.7.1 (edcfbbe) compiled by 'albert@albert-system' on 2024-07-22

   ID    Z sym.   atoms
    1    6 C      1-4, 6-19, 21-30, 32-40
    2    7 N      5, 20, 31
    3    1 H      41-63

          program call               : xtb data2507/gas/SABIQ/SABIQ.xyz --gfn 2 --ohess vtight --parallel 40 --molden --ceasefiles --namespace data2507/gas/SABIQ/SABIQ_gas_S0_preOpt
          :  Hamiltonian                  GFN2-xTB          :
 * total energy  :   -99.7441418 Eh     change       -0.6195791E-09 Eh
 * total energy  :   -99.7614320 Eh     change       -0.1729017E-01 Eh
 * total energy  :   -99.7668685 Eh     change       -0.5436528E-02 Eh
 * total energy  :   -99.7674611 Eh     change       -0.5925326E-03 Eh
 * total energy  :   -99.7677580 Eh     change       -0.2969114E-03 Eh
 * total energy  :   -99.7678475 Eh     change       -0.8951470E-04 Eh
 * total energy  :   -99.7679060 Eh     change       -0.5848410E-04 Eh
 * total energy  :   -99.7679459 Eh     change       -0.3998040E-04 Eh
 * total energy  :   -99.7679702 Eh     change       -0.2430370E-04 Eh
 * total energy  :   -99.7679754 Eh     change       -0.5151199E-05 Eh
 * total energy  :   -99.7680140 Eh     change       -0.6814609E-06 Eh
 * total energy  :   -99.7680146 Eh     change       -0.6448336E-06 Eh
 * total energy  :   -99.7680152 Eh     change       -0.5889842E-06 Eh
 * total energy  :   -99.7680158 Eh     change       -0.5406210E-06 Eh
 * total energy  :   -99.7680163 Eh     change       -0.5135698E-06 Eh
 * total energy  :   -99.7680168 Eh     change       -0.5080958E-06 Eh
 * total energy  :   -99.7680173 Eh     change       -0.5215245E-06 Eh
 * total energy  :   -99.7680179 Eh     change       -0.5456282E-06 Eh
 * total energy  :   -99.7680179 Eh     change       -0.5425377E-08 Eh
   *** GEOMETRY OPTIMIZATION CONVERGED AFTER 44 ITERATIONS ***

 final structure:
================
63
 xtb: 6.7.1 (edcfbbe)
C           -6.12637380415374        3.09680909500742        0.00017077083772
C           -4.85123569148440        3.63776141986416        0.00012758735535
C           -3.74420029349673        2.80766287093406        0.00007195728248
C           -3.91622077183543        1.42964810756016        0.00005801503027
N           -2.78009356356603        0.57117223263504       -0.00000191006210
C           -2.24296227269381        0.16984608640160       -1.21073835461554
C           -2.82025713327622        0.58925992427511       -2.41228240768820
C           -2.29747459260759        0.18967997563499       -3.62530755199099
C           -1.18973978357179       -0.63896778027079       -3.67003130842230
C           -0.61405615533431       -1.05978555104788       -2.48531085323948
C           -1.12478423314522       -0.66665377308389       -1.25782643901417
C           -0.44653969632563       -1.15286084676232       -0.00012359505009
C           -0.32632190060126       -2.66530516407227       -0.00024765422757
C           -1.34514452415637       -3.59343741961584       -0.00033092478715
C           -1.01441934782989       -4.94171862908466       -0.00042689686179
C            0.31143259973934       -5.35345073076412       -0.00044023466069
C            1.34101304384576       -4.42804756887704       -0.00035839014583
C            1.01283644437851       -3.08110523272583       -0.00026166322671
C            1.85929456290614       -1.90545121570048       -0.00015383215185
N            3.15755989473334       -1.83296808578206       -0.00012734656547
C            3.67572265247348       -0.57287011437922       -0.00000624056538
C            5.05470206060040       -0.40938309736045        0.00003575759805
C            5.62653861555239        0.86168263827406        0.00016924892958
C            7.03183268448216        1.04925788939350        0.00022394191038
C            7.57049245709487        2.29980719131129        0.00036152571014
C            6.73597948276633        3.43699900144929        0.00044711096168
C            5.38114399482728        3.29875786886168        0.00039929079045
C            4.78001755343410        2.01528056305824        0.00026076199021
C            3.39479775296980        1.85086431124385        0.00021281313952
C            2.82664432470584        0.58635067879390        0.00008271580916
N            1.46429898006033        0.46672885137270        0.00004554797676
C            1.01069443998883       -0.74199379065711       -0.00006774210451
C           -1.12481382956869       -0.66687088646657        1.25764752144053
C           -0.61411410451993       -1.06021446056077        2.48507598480324
C           -1.18981954973770       -0.63959354378608        3.66985562874308
C           -2.29754176851549        0.18907745549041        3.62524913028155
C           -2.82029458782215        0.58886854691516        2.41228081062522
C           -2.24298554933279        0.16964314711275        1.21067770541116
C           -5.19445689870267        0.88631871600911        0.00010076847652
C           -6.29696479989775        1.72232534695874        0.00015802092264
H           -6.98840010706230        3.74695822084968        0.00021365222779
H           -4.71834868262948        4.70935838228765        0.00013730606294
H           -2.74431396111209        3.21528256656282        0.00003741877589
H           -3.68495702016367        1.23509570574518       -2.39029842200414
H           -2.76035483329756        0.52895510995265       -4.54011369285244
H           -0.77710742439094       -0.95403503617404       -4.61590826930801
H            0.25039734544097       -1.70877670898398       -2.50935586270625
H           -2.37786605812461       -3.27680940751111       -0.00032014842745
H           -1.80106091568015       -5.68199375914707       -0.00049162979708
H            0.54003834417067       -6.40908961149171       -0.00051518402759
H            2.37615793943581       -4.73196154442038       -0.00036704120209
H            5.67827381588442       -1.29088947493184       -0.00003251505502
H            7.66526081135023        0.17389950353084        0.00014993912750
H            8.64229808437789        2.43409039809352        0.00039618963070
H            7.18587884974343        4.41904926726387        0.00055814820356
H            4.73660299817080        4.16596750427883        0.00047193284273
H            2.74093394503085        2.71004658982721        0.00027840704622
H            0.25033455213538       -1.70921546543420        2.50902916333539
H           -0.77721048429233       -0.95482613784584        4.61568767580034
H           -2.76043358130311        0.52820769356613        4.54010315460000
H           -3.68498064215204        1.23472596712920        2.39038793640858
H           -5.31455653281682       -0.18706817689227        0.00009057299987
H           -7.29077413510086        1.29990338618765        0.00019099767256

          :  Hamiltonian                  GFN2-xTB          :
         :: gradient norm              0.000055679878 Eh/a0 ::
         :: HOMO-LUMO gap              1.173746877321 eV    ::
         :: SCC energy              -101.627450875051 Eh    ::
         :: -> dispersion             -0.093648254365 Eh    ::
         :: repulsion energy           1.859433010218 Eh    ::

    * Orbital Energies and Occupations

         #    Occupation            Energy/Eh            Energy/eV
      -------------------------------------------------------------
         1        2.0000           -0.6711807             -18.2638
       ...           ...                  ...                  ...
        81        2.0000           -0.4188109             -11.3964
        82        2.0000           -0.4159920             -11.3197
        83        2.0000           -0.4128853             -11.2352
        84        2.0000           -0.4128735             -11.2349
        85        2.0000           -0.4102915             -11.1646
        86        2.0000           -0.4061085             -11.0508
        87        2.0000           -0.4040122             -10.9937
        88        2.0000           -0.3991032             -10.8601
        89        2.0000           -0.3930601             -10.6957
        90        2.0000           -0.3898369             -10.6080
        91        2.0000           -0.3719489             -10.1212
        92        2.0000           -0.3505842              -9.5399
        93        2.0000           -0.3404803              -9.2649 (HOMO)
        94                         -0.2973459              -8.0912 (LUMO)
        95                         -0.2539906              -6.9114
        96                         -0.2394032              -6.5145
        97                         -0.2380838              -6.4786
        98                         -0.2369754              -6.4484
        99                         -0.2309954              -6.2857
       100                         -0.2219970              -6.0408
       101                         -0.2211035              -6.0165
       102                         -0.2180817              -5.9343
       103                         -0.2158426              -5.8734
       104                         -0.1898229              -5.1653
       ...                                ...                  ...
       183                          0.7263387              19.7647
      -------------------------------------------------------------
                  HL-Gap            0.0431344 Eh            1.1737 eV

     #   Z          covCN         q      C6AA      α(0)
     1   6 C        2.920    -0.030    28.749     8.793
     2   6 C        2.920    -0.027    28.681     8.782
     3   6 C        2.922    -0.036    28.905     8.817
     4   6 C        2.929     0.070    26.443     8.433
     5   7 N        2.754    -0.067    22.540     7.051
     6   6 C        2.926     0.063    26.590     8.456
     7   6 C        2.924    -0.057    29.415     8.894
     8   6 C        2.920    -0.031    28.780     8.797
     9   6 C        2.917    -0.042    29.048     8.838
    10   6 C        2.926    -0.033    28.834     8.806
    11   6 C        2.984    -0.007    28.177     8.707
    12   6 C        3.944     0.010    20.338     6.409
    13   6 C        3.060     0.004    27.887     8.660
    14   6 C        2.914    -0.030    28.751     8.793
    15   6 C        2.923    -0.026    28.652     8.778
    16   6 C        2.922    -0.030    28.753     8.793
    17   6 C        2.914    -0.025    28.624     8.773
    18   6 C        3.026    -0.006    28.136     8.701
    19   6 C        3.023     0.086    26.061     8.374
    20   7 N        1.840    -0.242    27.166     7.724
    21   6 C        2.983     0.075    26.308     8.414
    22   6 C        2.922    -0.047    29.166     8.856
    23   6 C        2.983     0.014    27.699     8.633
    24   6 C        2.917    -0.033    28.829     8.805
    25   6 C        2.914    -0.028    28.700     8.785
    26   6 C        2.915    -0.028    28.698     8.784
    27   6 C        2.917    -0.033    28.828     8.805
    28   6 C        2.983     0.014    27.696     8.633
    29   6 C        2.922    -0.046    29.154     8.854
    30   6 C        2.986     0.075    26.317     8.415
    31   7 N        1.839    -0.242    27.174     7.725
    32   6 C        3.042     0.095    25.849     8.339
    33   6 C        2.984    -0.007    28.177     8.707
    34   6 C        2.926    -0.033    28.834     8.806
    35   6 C        2.917    -0.042    29.048     8.838
    36   6 C        2.920    -0.031    28.780     8.797
    37   6 C        2.924    -0.057    29.415     8.894
    38   6 C        2.926     0.063    26.590     8.456
    39   6 C        2.922    -0.037    28.924     8.820
    40   6 C        2.920    -0.028    28.693     8.784
    41   1 H        0.926     0.038     2.478     2.462
    42   1 H        0.926     0.039     2.458     2.452
    43   1 H        0.926     0.045     2.378     2.411
    44   1 H        0.926     0.027     2.624     2.533
    45   1 H        0.926     0.031     2.577     2.510
    46   1 H        0.926     0.029     2.594     2.519
    47   1 H        0.925     0.023     2.691     2.565
    48   1 H        0.926     0.031     2.571     2.508
    49   1 H        0.926     0.036     2.503     2.474
    50   1 H        0.926     0.036     2.496     2.471
    51   1 H        0.926     0.049     2.327     2.385
    52   1 H        0.926     0.052     2.295     2.369
    53   1 H        0.926     0.036     2.504     2.475
    54   1 H        0.926     0.033     2.545     2.495
    55   1 H        0.926     0.033     2.547     2.496
    56   1 H        0.926     0.035     2.512     2.478
    57   1 H        0.926     0.051     2.309     2.376
    58   1 H        0.925     0.023     2.691     2.565
    59   1 H        0.926     0.029     2.594     2.519
    60   1 H        0.926     0.031     2.577     2.510
    61   1 H        0.926     0.027     2.624     2.533
    62   1 H        0.926     0.040     2.445     2.445
    63   1 H        0.926     0.038     2.470     2.457

molecular dipole:
                 x           y           z       tot (Debye)
 q only:       -0.814       0.356       0.000
   full:       -0.843       0.320       0.000       2.292

 projected vibrational frequencies (cm⁻¹)
eigval :       -0.00    -0.00    -0.00     0.00     0.00     0.00
eigval :       -1.13     4.66    23.95    29.65    42.51    50.16
eigval :       56.67    63.59    71.66    94.67   108.51   113.59
eigval :      158.38   158.61   165.75   183.48   198.02   226.56
eigval :      239.29   245.34   257.87   262.93   310.24   310.86
eigval :      321.42   357.60   369.40   373.31   381.44   387.66
eigval :      403.45   417.25   421.72   431.08   440.30   449.26
eigval :      466.67   471.57   481.50   499.83   505.87   507.76
eigval :      512.66   518.15   561.70   583.88   590.50   592.15
eigval :      594.63   595.22   603.92   617.06   644.43   663.41
eigval :      673.26   679.96   681.17   689.37   710.43   724.87
eigval :      726.21   748.08   755.44   762.10   765.00   770.22
eigval :      779.08   781.86   782.24   845.14   856.92   864.73
eigval :      864.87   866.34   874.23   875.93   876.79   882.86
eigval :      895.33   898.96   905.53   909.54   910.64   913.49
eigval :      913.83   917.23   917.54   920.24   920.45   927.38
eigval :      929.30   929.43   933.63   948.54   997.25  1029.48
eigval :     1069.96  1070.33  1078.03  1099.41  1107.42  1108.92
eigval :     1112.90  1126.70  1131.08  1146.48  1153.46  1167.48
eigval :     1173.48  1179.87  1180.70  1182.59  1184.79  1184.93
eigval :     1187.25  1202.60  1208.51  1233.72  1235.54  1244.65
eigval :     1247.50  1263.80  1268.65  1272.79  1274.67  1276.15
eigval :     1309.30  1320.04  1322.20  1324.87  1327.81  1329.94
eigval :     1337.04  1346.12  1351.69  1391.29  1420.99  1431.53
eigval :     1432.98  1438.23  1440.32  1446.31  1459.46  1470.88
eigval :     1474.71  1484.38  1497.21  1539.68  1551.85  1570.60
eigval :     1573.63  1583.58  1588.01  1590.15  1594.61  1596.23
eigval :     1599.38  1604.13  1612.53  1621.15  3071.21  3071.57
eigval :     3072.09  3074.53  3075.84  3079.42  3080.00  3080.11
eigval :     3082.40  3082.56  3083.22  3089.65  3089.71  3090.30
eigval :     3091.17  3092.52  3093.38  3093.63  3094.74  3099.43
eigval :     3099.59  3100.29  3103.34

   temp. (K)  partition function   enthalpy   heat capacity  entropy
                                   cal/mol     cal/K/mol   cal/K/mol   J/K/mol
 298.15  VIB  0.151E+15            17005.088    111.670    107.192
         ROT  0.395E+08              888.752      2.981     37.741
         INT  0.595E+22            17893.841    114.651    144.933
         TR   0.111E+29             1481.254      4.968     44.552
         TOT                       19375.0948   119.6189   189.4852   792.8059

       T/K    H(0)-H(T)+PV         H(T)/Eh          T*S/Eh         G(T)/Eh
   ------------------------------------------------------------------------
    298.15    0.308762E-01    0.509395E+00    0.900305E-01    0.419365E+00
   ------------------------------------------------------------------------

         :::::::::::::::::::::::::::::::::::::::::::::::::::::
         ::                  THERMODYNAMIC                  ::
         :::::::::::::::::::::::::::::::::::::::::::::::::::::
         :: total free energy         -99.348653057635 Eh   ::
         ::.................................................::
         :: total energy              -99.768017864831 Eh   ::
         :: zero point energy           0.478519139098 Eh   ::
         :: G(RRHO) w/o ZPVE           -0.059154331902 Eh   ::
         :: G(RRHO) contrib.            0.419364807196 Eh   ::
         :::::::::::::::::::::::::::::::::::::::::::::::::::::

           -------------------------------------------------
          | TOTAL ENERGY              -99.768017864831 Eh   |
          | TOTAL ENTHALPY            -99.258622546867 Eh   |
          | TOTAL FREE ENERGY         -99.348653057635 Eh   |
          | GRADIENT NORM               0.000055680387 Eh/α |
          | HOMO-LUMO GAP               1.173746905329 eV   |
           -------------------------------------------------

 * finished run on 2025/09/04 at 12:27:10.375
