   * xtb version 6.7.1 (edcfbbe) compiled by 'albert@albert-system' on 2024-07-22

   ID    Z sym.   atoms
    1    6 C      1-24, 26-31, 33-47, 49, 50
    2    7 N      25, 32, 48
    3    1 H      51-79

          program call               : xtb data2507/toluene/SFCz/SFCz_toluene_T1_crest.xyz --gfn 2 --uhf 2 --gbsa toluene --ohess vtight --parallel 40 --molden --ceasefiles --namespace data2507/toluene/SFCz/SFCz_toluene_T1_finalOpt
      * Solvation model:               GBSA
        Solvent                        toluene
        Solvent mass                       9.2140E+01 g/mol
          :  Hamiltonian                  GFN2-xTB          :
 * total energy  :  -124.2408699 Eh     change       -0.1548258E-08 Eh
 * total energy  :  -124.2409097 Eh     change       -0.3975480E-04 Eh
 * total energy  :  -124.2409229 Eh     change       -0.1327373E-04 Eh
 * total energy  :  -124.2409257 Eh     change       -0.2779322E-05 Eh
 * total energy  :  -124.2409278 Eh     change       -0.2117277E-05 Eh
 * total energy  :  -124.2409305 Eh     change       -0.2696427E-05 Eh
 * total energy  :  -124.2409335 Eh     change       -0.2971258E-05 Eh
 * total energy  :  -124.2409359 Eh     change       -0.2422902E-05 Eh
 * total energy  :  -124.2409378 Eh     change       -0.1897378E-05 Eh
 * total energy  :  -124.2409400 Eh     change       -0.2156564E-05 Eh
 * total energy  :  -124.2409544 Eh     change       -0.1584891E-06 Eh
 * total energy  :  -124.2409546 Eh     change       -0.1881991E-06 Eh
 * total energy  :  -124.2409548 Eh     change       -0.2788051E-06 Eh
 * total energy  :  -124.2409552 Eh     change       -0.3881890E-06 Eh
 * total energy  :  -124.2409556 Eh     change       -0.3732628E-06 Eh
 * total energy  :  -124.2409559 Eh     change       -0.2703679E-06 Eh
 * total energy  :  -124.2409561 Eh     change       -0.2414418E-06 Eh
 * total energy  :  -124.2409563 Eh     change       -0.1767274E-06 Eh
 * total energy  :  -124.2409563 Eh     change       -0.3873370E-07 Eh
   *** GEOMETRY OPTIMIZATION CONVERGED AFTER 36 ITERATIONS ***

 final structure:
================
79
 xtb: 6.7.1 (edcfbbe)
C           -5.82176759878552        1.28864143771332        4.18862356738326
C           -5.85908072722704       -0.06913685800370        3.90680902161937
C           -5.86623117533217       -0.52334872684224        2.59446318710871
C           -5.83543366528174        0.40576163055300        1.57717122562100
C           -5.79678183252935        1.78010772857673        1.85657814678599
C           -5.78953458542660        2.22620194121524        3.16844353915728
C           -5.77378123499044        2.50587039156010        0.59613443848798
C           -5.73560958981729        3.86400692301794        0.32403897450332
C           -5.72396362197882        4.27600475089228       -0.99920663073019
C           -5.74976175289456        3.35130813189000       -2.03302693619567
C           -5.78768187657921        1.98867042486127       -1.76773137867325
C           -5.79954497937455        1.57495369536158       -0.45324371284087
C           -5.84081411964363        0.16570356639652        0.08649513564572
C           -7.03760048234263       -0.62483184676159       -0.38786919228940
C           -8.37170021483450       -0.32791118635946       -0.23813354625579
C           -9.31277711668595       -1.21203410660947       -0.75673124961193
C           -8.91275888682968       -2.37009787126666       -1.41250322729922
C           -7.57296649128074       -2.67541094134798       -1.56720040934804
C           -6.62199161864769       -1.79795460596854       -1.05157935988581
C           -5.18622695540119       -1.84397461682071       -1.05405059674405
C           -4.28686448054626       -2.78116010827916       -1.57318797581744
C           -2.94110360695269       -2.56978551926694       -1.42675483642981
C           -2.43879868923316       -1.42238728085907       -0.76235767963318
C           -1.04586768232369       -1.22183764715591       -0.62839673820279
N           -0.56214415733224       -0.13113705190504        0.02269587684665
C            0.70601188769526        0.06866048015452        0.13593966775344
C            1.70195256349440       -0.80928584199808       -0.38609460372972
C            3.10590285897321       -0.59069324869016       -0.27575903405913
C            3.63610479393899        0.69637770173250       -0.02544350745493
C            4.98620165896745        0.91057002077884        0.07000389597294
C            5.88911044886119       -0.15142213213649       -0.07371628618095
N            7.26254801278921        0.06687637278754        0.02260577756076
C            7.96954041327646        1.06296841496195       -0.62337871833895
C            7.52639302066713        2.01107568504193       -1.53655542237776
C            8.45966765524968        2.88478841781301       -2.06402529866963
C            9.80378845017983        2.81514252174916       -1.70587077198395
C           10.25638295789295        1.85323576054568       -0.81982232282923
C            9.33840447554440        0.96661745518112       -0.27743553529342
C            9.45257395019456       -0.14654407718531        0.62818383984002
C           10.51670518723708       -0.71416666743193        1.31253626644113
C           10.26889249156533       -1.79003484302468        2.14692987212219
C            8.97784386946091       -2.28464310125448        2.31527826620035
C            7.90111771108034       -1.73399407257070        1.64437496213844
C            8.14813840238912       -0.67349774998956        0.78213013945757
C            5.38490997575891       -1.43600214051603       -0.31689664543238
C            4.03455898554571       -1.64816252691138       -0.41563433505448
C            1.11006576208199       -1.93139220090863       -1.03829986252443
N           -0.16117232148349       -2.11324765959275       -1.14990688720760
C           -3.35482777898074       -0.47529833758939       -0.23923036907680
C           -4.69183039708338       -0.69487815849274       -0.38906078283496
H           -5.81776382761561        1.61837152174305        5.21777519189229
H           -5.88313021817471       -0.78243637172366        4.71799047607143
H           -5.89486699235161       -1.58117853687621        2.37542783688884
H           -5.76099860256888        3.28231548428869        3.39303293732846
H           -5.71552948658153        4.58776175188633        1.12550606755302
H           -5.69494176352126        5.33137983653689       -1.22998981347216
H           -5.74037470648017        3.69479823109466       -3.05739666593349
H           -5.80707291759077        1.26868756583511       -2.57339173273910
H           -8.68379423601328        0.57266187201005        0.27143171680098
H          -10.36539037563600       -0.99537522961331       -0.64799923850850
H           -9.66253906147145       -3.04110422054201       -1.80720949194684
H           -7.26768006541994       -3.57671108528450       -2.07782508405159
H           -4.65262623255070       -3.65855157247031       -2.08657526688232
H           -2.22401327208678       -3.27257217594734       -1.82368862096635
H            0.99234519207142        0.93243759282302        0.72357945154225
H            2.96283847794723        1.53183590588186        0.09051202802423
H            5.36395513428056        1.89842485496009        0.28819157899069
H            6.49136080732927        2.05838796916548       -1.83805937789937
H            8.13910407031793        3.63362514299438       -2.77305000045231
H           10.50235650891994        3.51665475684636       -2.13705843080898
H           11.30182712376552        1.78876842181544       -0.55935593927864
H           11.51504006909631       -0.31993293940227        1.19922174451048
H           11.08445073590986       -2.24775860151935        2.68677617184753
H            8.81208556628089       -3.11222311075868        2.98893433502355
H            6.90143719024077       -2.10942146481850        1.79969726042916
H            6.07391420441030       -2.25566035926392       -0.45672650865044
H            3.67365722824961       -2.64733134595961       -0.60577606281835
H            1.73241830042028       -2.66393140463843       -1.53764069198108
H           -2.97199437469248        0.39585257979040        0.27079293174596

          :  Hamiltonian                  GFN2-xTB          :
         :: gradient norm              0.000096703854 Eh/a0 ::
         :: HOMO-LUMO gap              0.800046676049 eV    ::
         :: SCC energy              -126.580389339468 Eh    ::
         :: -> dispersion             -0.111970854311 Eh    ::
         :: -> Gsolv                  -0.053372173557 Eh    ::
         :: repulsion energy           2.339433002424 Eh    ::

    * Orbital Energies and Occupations

         #    Occupation            Energy/Eh            Energy/eV
      -------------------------------------------------------------
         1        2.0000           -0.6880437             -18.7226
       ...           ...                  ...                  ...
       105        2.0000           -0.4120687             -11.2130
       106        2.0000           -0.4092408             -11.1360
       107        2.0000           -0.4085598             -11.1175
       108        2.0000           -0.3999023             -10.8819
       109        2.0000           -0.3965686             -10.7912
       110        2.0000           -0.3920873             -10.6692
       111        2.0000           -0.3919529             -10.6656
       112        2.0000           -0.3889205             -10.5831
       113        2.0000           -0.3792378             -10.3196
       114        1.9999           -0.3750657             -10.2061
       115        1.8804           -0.3678751             -10.0104
       116        1.1197           -0.3640836              -9.9072
       117        1.0000           -0.2881698              -7.8415 (HOMO)
       118        0.0000           -0.2587691              -7.0415 (LUMO)
       119                         -0.2554950              -6.9524
       120                         -0.2500774              -6.8050
       121                         -0.2485810              -6.7642
       122                         -0.2327102              -6.3324
       123                         -0.2319132              -6.3107
       124                         -0.2233669              -6.0781
       125                         -0.2228091              -6.0629
       126                         -0.2206385              -6.0039
       127                         -0.2186773              -5.9505
       128                         -0.2105173              -5.7285
       ...                                ...                  ...
       229                          0.7350103              20.0006
      -------------------------------------------------------------
                  HL-Gap            0.0294007 Eh            0.8000 eV

     #   Z          covCN         q      C6AA      α(0)
     1   6 C        2.921    -0.034    28.839     8.806
     2   6 C        2.922    -0.033    28.813     8.803
     3   6 C        2.914    -0.034    28.835     8.805
     4   6 C        3.055     0.006    27.835     8.652
     5   6 C        3.036     0.000    27.985     8.677
     6   6 C        2.914    -0.035    28.869     8.811
     7   6 C        3.036     0.000    27.983     8.677
     8   6 C        2.914    -0.035    28.870     8.811
     9   6 C        2.921    -0.034    28.838     8.806
    10   6 C        2.922    -0.033    28.815     8.803
    11   6 C        2.913    -0.034    28.835     8.805
    12   6 C        3.055     0.006    27.835     8.652
    13   6 C        3.976     0.009    20.361     6.411
    14   6 C        3.055     0.005    27.851     8.655
    15   6 C        2.912    -0.034    28.858     8.809
    16   6 C        2.922    -0.034    28.858     8.809
    17   6 C        2.919    -0.033    28.819     8.803
    18   6 C        2.913    -0.038    28.933     8.820
    19   6 C        3.032     0.003    27.936     8.670
    20   6 C        3.034    -0.008    28.184     8.708
    21   6 C        2.908    -0.035    28.879     8.812
    22   6 C        2.922    -0.042    29.032     8.836
    23   6 C        2.978    -0.007    28.180     8.708
    24   6 C        2.917     0.140    24.954     8.192
    25   7 N        1.838    -0.223    26.718     7.660
    26   6 C        2.899     0.070    26.443     8.431
    27   6 C        2.963    -0.038    28.947     8.825
    28   6 C        2.967     0.004    27.934     8.669
    29   6 C        2.921    -0.039    28.972     8.827
    30   6 C        2.915    -0.041    29.010     8.832
    31   6 C        2.912     0.051    26.857     8.498
    32   7 N        2.800    -0.016    21.560     6.896
    33   6 C        3.072     0.046    26.892     8.503
    34   6 C        2.909    -0.044    29.101     8.846
    35   6 C        2.923    -0.032    28.794     8.800
    36   6 C        2.920    -0.035    28.874     8.812
    37   6 C        2.912    -0.030    28.758     8.794
    38   6 C        3.064    -0.013    28.263     8.718
    39   6 C        3.065    -0.013    28.263     8.718
    40   6 C        2.912    -0.030    28.758     8.794
    41   6 C        2.920    -0.035    28.874     8.812
    42   6 C        2.923    -0.032    28.794     8.800
    43   6 C        2.909    -0.044    29.102     8.846
    44   6 C        3.072     0.046    26.892     8.503
    45   6 C        2.915    -0.041    29.011     8.832
    46   6 C        2.921    -0.039    28.973     8.827
    47   6 C        2.899     0.069    26.451     8.433
    48   7 N        1.838    -0.224    26.729     7.662
    49   6 C        2.915    -0.043    29.078     8.843
    50   6 C        3.046     0.006    27.840     8.654
    51   1 H        0.926     0.033     2.542     2.493
    52   1 H        0.926     0.032     2.554     2.499
    53   1 H        0.926     0.027     2.635     2.539
    54   1 H        0.926     0.034     2.528     2.486
    55   1 H        0.926     0.034     2.528     2.486
    56   1 H        0.926     0.033     2.542     2.493
    57   1 H        0.926     0.032     2.554     2.499
    58   1 H        0.926     0.027     2.635     2.538
    59   1 H        0.926     0.026     2.649     2.545
    60   1 H        0.926     0.031     2.569     2.507
    61   1 H        0.926     0.032     2.562     2.503
    62   1 H        0.926     0.032     2.555     2.500
    63   1 H        0.926     0.034     2.533     2.489
    64   1 H        0.926     0.040     2.444     2.445
    65   1 H        0.925     0.048     2.347     2.396
    66   1 H        0.926     0.037     2.494     2.469
    67   1 H        0.926     0.045     2.389     2.417
    68   1 H        0.926     0.039     2.458     2.452
    69   1 H        0.926     0.038     2.469     2.457
    70   1 H        0.926     0.038     2.478     2.461
    71   1 H        0.926     0.040     2.445     2.445
    72   1 H        0.926     0.040     2.445     2.445
    73   1 H        0.926     0.038     2.478     2.462
    74   1 H        0.926     0.039     2.468     2.457
    75   1 H        0.926     0.039     2.456     2.451
    76   1 H        0.926     0.045     2.387     2.416
    77   1 H        0.926     0.037     2.489     2.467
    78   1 H        0.925     0.049     2.337     2.391
    79   1 H        0.926     0.034     2.534     2.490

molecular dipole:
                 x           y           z       tot (Debye)
 q only:        2.655       0.399       0.206
   full:        2.987       0.438       0.231       7.695

 projected vibrational frequencies (cm⁻¹)
eigval :       -0.00    -0.00     0.00     0.00     0.00     0.00
eigval :        5.96    11.25    13.77    22.01    27.00    40.27
eigval :       42.48    48.30    56.93    66.16    78.21    90.57
eigval :       97.90   101.46   104.98   112.46   129.12   136.02
eigval :      140.42   150.78   173.11   197.25   207.96   229.91
eigval :      231.29   234.98   249.10   270.10   275.56   285.50
eigval :      302.00   326.79   340.01   351.63   382.79   386.34
eigval :      387.34   393.54   397.87   410.34   413.65   414.20
eigval :      416.32   419.21   426.43   437.37   444.17   464.60
eigval :      467.87   473.68   494.58   496.94   503.57   515.22
eigval :      523.59   536.24   536.35   541.21   550.03   578.35
eigval :      580.10   588.87   589.77   601.42   608.33   611.30
eigval :      619.95   629.49   655.54   664.69   671.79   673.40
eigval :      677.89   680.66   690.99   699.76   708.78   716.14
eigval :      734.70   738.02   752.75   755.66   765.73   766.82
eigval :      769.45   778.25   786.44   790.94   800.16   808.43
eigval :      815.21   820.28   842.30   856.60   866.97   868.74
eigval :      871.45   877.85   880.05   894.62   896.06   900.28
eigval :      903.03   905.17   907.35   907.87   910.93   912.68
eigval :      913.33   918.08   918.80   922.53   925.00   927.35
eigval :      928.08   928.81   930.43   948.13   995.07  1002.46
eigval :     1007.63  1009.95  1044.30  1058.48  1067.19  1068.93
eigval :     1069.70  1073.12  1076.28  1078.75  1099.98  1112.23
eigval :     1125.39  1140.59  1143.29  1144.05  1147.31  1159.68
eigval :     1170.49  1172.74  1176.86  1177.17  1178.39  1181.02
eigval :     1182.24  1192.80  1205.55  1208.88  1215.43  1223.97
eigval :     1228.47  1237.77  1243.17  1257.28  1257.85  1261.70
eigval :     1271.26  1275.71  1277.08  1285.05  1286.96  1290.29
eigval :     1320.77  1325.53  1334.63  1340.82  1343.58  1345.96
eigval :     1353.07  1358.73  1364.26  1381.63  1408.95  1412.85
eigval :     1419.75  1426.33  1427.32  1428.59  1437.99  1451.72
eigval :     1459.24  1460.39  1460.98  1469.53  1475.32  1478.42
eigval :     1480.40  1489.81  1503.54  1538.11  1563.47  1566.42
eigval :     1576.51  1578.31  1579.52  1582.83  1590.00  1592.12
eigval :     1593.67  1600.01  1602.25  1603.31  3026.72  3031.43
eigval :     3067.49  3067.92  3068.47  3069.90  3072.14  3072.66
eigval :     3073.61  3078.58  3078.94  3078.96  3079.93  3080.55
eigval :     3082.02  3083.73  3084.80  3085.62  3086.88  3087.57
eigval :     3088.61  3089.73  3091.30  3092.34  3093.52  3093.77
eigval :     3095.94  3097.75  3098.80

   temp. (K)  partition function   enthalpy   heat capacity  entropy
                                   cal/mol     cal/K/mol   cal/K/mol   J/K/mol
 298.15  VIB  0.200E+18            22170.826    143.766    137.450
         ROT  0.130E+09              888.752      2.981     40.116
         INT  0.261E+26            23059.579    146.747    177.566
         TR   0.155E+29             1481.254      4.968     45.211
         TOT                       24540.8325   151.7149   222.7773   932.1004

       T/K    H(0)-H(T)+PV         H(T)/Eh          T*S/Eh         G(T)/Eh
   ------------------------------------------------------------------------
    298.15    0.391083E-01    0.636640E+00    0.105849E+00    0.530791E+00
   ------------------------------------------------------------------------

         :::::::::::::::::::::::::::::::::::::::::::::::::::::
         ::                  THERMODYNAMIC                  ::
         :::::::::::::::::::::::::::::::::::::::::::::::::::::
         :: total free energy        -123.710164869324 Eh   ::
         ::.................................................::
         :: total energy             -124.240956336673 Eh   ::
         :: zero point energy           0.597531860146 Eh   ::
         :: G(RRHO) w/o ZPVE           -0.066740392797 Eh   ::
         :: G(RRHO) contrib.            0.530791467349 Eh   ::
         :::::::::::::::::::::::::::::::::::::::::::::::::::::

           -------------------------------------------------
          | TOTAL ENERGY             -124.240956336673 Eh   |
          | TOTAL ENTHALPY           -123.604316170593 Eh   |
          | TOTAL FREE ENERGY        -123.710164869324 Eh   |
          | GRADIENT NORM               0.000098755457 Eh/α |
          | HOMO-LUMO GAP               0.800034216082 eV   |
           -------------------------------------------------

 * finished run on 2025/09/03 at 18:48:15.498
