   * xtb version 6.7.1 (edcfbbe) compiled by 'albert@albert-system' on 2024-07-22

   ID    Z sym.   atoms
    1    6 C      1-24, 26-31, 33-47, 49, 50
    2    7 N      25, 32, 48
    3    1 H      51-79

          program call               : xtb data2507/toluene/SFCz/SFCz_toluene_S0_finalOpt.xtbopt.xyz --gfn 2 --uhf 2 --gbsa toluene --ohess vtight --parallel 40 --molden --ceasefiles --namespace data2507/toluene/SFCz/SFCz_toluene_T1_preOpt
      * Solvation model:               GBSA
        Solvent                        toluene
        Solvent mass                       9.2140E+01 g/mol
          :  Hamiltonian                  GFN2-xTB          :
 * total energy  :  -124.2322400 Eh     change       -0.8405365E-08 Eh
 * total energy  :  -124.2374489 Eh     change       -0.5208904E-02 Eh
 * total energy  :  -124.2393923 Eh     change       -0.1943431E-02 Eh
 * total energy  :  -124.2395325 Eh     change       -0.1401593E-03 Eh
 * total energy  :  -124.2397539 Eh     change       -0.2214517E-03 Eh
 * total energy  :  -124.2398357 Eh     change       -0.8179136E-04 Eh
 * total energy  :  -124.2399058 Eh     change       -0.7006090E-04 Eh
 * total energy  :  -124.2399345 Eh     change       -0.2871619E-04 Eh
 * total energy  :  -124.2399513 Eh     change       -0.1673355E-04 Eh
 * total energy  :  -124.2399627 Eh     change       -0.1149321E-04 Eh
 * total energy  :  -124.2403396 Eh     change       -0.5146544E-05 Eh
 * total energy  :  -124.2403458 Eh     change       -0.6176939E-05 Eh
 * total energy  :  -124.2403528 Eh     change       -0.6989984E-05 Eh
 * total energy  :  -124.2403534 Eh     change       -0.6566376E-06 Eh
 * total energy  :  -124.2403543 Eh     change       -0.8849052E-06 Eh
 * total energy  :  -124.2403556 Eh     change       -0.1307590E-05 Eh
 * total energy  :  -124.2403566 Eh     change       -0.9728875E-06 Eh
 * total energy  :  -124.2403570 Eh     change       -0.3640439E-06 Eh
 * total energy  :  -124.2403570 Eh     change       -0.6577827E-07 Eh
   *** GEOMETRY OPTIMIZATION CONVERGED AFTER 99 ITERATIONS ***

 final structure:
================
79
 xtb: 6.7.1 (edcfbbe)
C           -5.79389024830079       -3.60439342075406       -2.47852935241868
C           -5.83747137916371       -2.36779147124588       -3.10575748405758
C           -5.85577986778400       -1.19400463111188       -2.36372709453116
C           -5.83000469910333       -1.28525056902207       -0.98884466086374
C           -5.78578014329158       -2.53324131439901       -0.34945837862026
C           -5.76699603980942       -3.70032804080454       -1.09617815440780
C           -5.76920575757646       -2.31372682546950        1.08837525496288
C           -5.72732154539180       -3.20553923156822        2.14801805350703
C           -5.72281938060769       -2.70245282068846        3.43938511288962
C           -5.75934434306930       -1.33511456889332        3.67084412763102
C           -5.80089696800746       -0.43537693533999        2.61366583454222
C           -5.80533020341944       -0.93162522589666        1.32787415770611
C           -5.84265266053835       -0.16725125416691        0.02673255820203
C           -7.03626704895020        0.74848000025505       -0.10832465556637
C           -8.37155221550238        0.42864380128393       -0.04029824644362
C           -9.30897985454894        1.44421623905159       -0.20408246704922
C           -8.90415263614679        2.75423771595266       -0.43290089397112
C           -7.56354113505153        3.08448857820889       -0.50167252804235
C           -6.61550603841752        2.07598313038074       -0.33848183447256
C           -5.18129162255167        2.10999764829285       -0.35815031302506
C           -4.27770827886539        3.16243935111643       -0.54779284560824
C           -2.93358146472297        2.90364048855649       -0.51828802303042
C           -2.43426227556744        1.59371520877954       -0.29644128601156
C           -1.04323269229883        1.35110169843914       -0.26562906649030
N           -0.56486510373384        0.09594961675669       -0.05174256865365
C            0.70367971090751       -0.13152597169395       -0.00655094799332
C            1.69964581385750        0.87348833405926       -0.18275813290586
C            3.10471993950234        0.62971831563722       -0.13157265167462
C            3.63404338809556       -0.49486175967536        0.54134292754085
C            4.98374450513812       -0.73220478788535        0.58807166463710
C            5.88352103805625        0.14633749739582       -0.02886327123262
N            7.25679990988262       -0.09415965771322        0.01995125228012
C            8.22931371801559        0.83111680367728        0.34789570248371
C            8.09239713098618        2.15279156222438        0.75274168711406
C            9.24268683214922        2.85803576381338        1.05573929514838
C           10.50091452134940        2.26644494285630        0.97284096834137
C           10.64171416811018        0.94121257549626        0.60038395249839
C            9.50191431174492        0.21456850118163        0.29025846458500
C            9.27527809639636       -1.15283156264041       -0.09740616784594
C           10.11759552989702       -2.22830175596297       -0.33620921728476
C            9.55974142932869       -3.43113993617761       -0.73220667656357
C            8.18422357005177       -3.55945563645249       -0.90970024191423
C            7.32519575456300       -2.50073031210935       -0.67855208747444
C            7.87596373936968       -1.29955679772012       -0.25039385310946
C            5.37963402995157        1.27001552644077       -0.69617453348378
C            4.02923114615806        1.50224586603999       -0.74913277109454
C            1.11394987703683        2.15213088181433       -0.41686735478901
N           -0.15733366490672        2.36752229951455       -0.44806579998196
C           -3.35450245026027        0.53110665386869       -0.10415731832200
C           -4.69003389180499        0.79807851069317       -0.13862532850561
H           -5.78038706651944       -4.50424777913859       -3.07683861338415
H           -5.85771471121442       -2.31700320974455       -4.18485351575625
H           -5.88906400430310       -0.23098963727241       -2.85297392009534
H           -5.73262666850469       -4.66546259020354       -0.61254605513160
H           -5.69924701364560       -4.27092598329702        1.97272089347368
H           -5.69054151667683       -3.38359541679733        4.27775930947289
H           -5.75493259113104       -0.96525171607201        4.68600918291674
H           -5.82796857505588        0.62960099577569        2.79479410760428
H           -8.68809258391530       -0.58942344640570        0.13661400276339
H          -10.36249203352151        1.21111472381016       -0.15422897277521
H           -9.65128721911018        3.52523077039329       -0.55743003287020
H           -7.25413185868256        4.10392141065717       -0.67841432865887
H           -4.64079099112390        4.16642049420357       -0.71268348837861
H           -2.21371041440094        3.69621736462370       -0.65674621915364
H            0.98825350488528       -1.16893259326953        0.11947966892142
H            2.96527826608339       -1.16692648010656        1.05673711122090
H            5.36527237235891       -1.58077951951201        1.13640811965296
H            7.12117700768738        2.61430734066597        0.84239147588609
H            9.16225522418984        3.88859503465711        1.36838722885120
H           11.37626574925876        2.85063175176419        1.21508319508695
H           11.61588164643356        0.47832223162550        0.55759206581785
H           11.18571014014243       -2.12465798973705       -0.21993399627621
H           10.19831303679705       -4.28147061984709       -0.91997700819515
H            7.77906038668107       -4.50506678509460       -1.23851411337449
H            6.26349672526816       -2.60469032690758       -0.84078609372730
H            6.06310829443805        1.93436611343677       -1.20383639061520
H            3.66548580974969        2.35480319736400       -1.30175091480896
H            1.73903572460639        3.02997453573884       -0.52509446581254
H           -2.97385193702394       -0.46565415854340        0.05997342005753

          :  Hamiltonian                  GFN2-xTB          :
         :: gradient norm              0.000164080548 Eh/a0 ::
         :: HOMO-LUMO gap              0.805327967473 eV    ::
         :: SCC energy              -126.578671099747 Eh    ::
         :: -> dispersion             -0.111993163219 Eh    ::
         :: -> Gsolv                  -0.053197642172 Eh    ::
         :: repulsion energy           2.338314081708 Eh    ::

    * Orbital Energies and Occupations

         #    Occupation            Energy/Eh            Energy/eV
      -------------------------------------------------------------
         1        2.0000           -0.6875273             -18.7086
       ...           ...                  ...                  ...
       105        2.0000           -0.4117635             -11.2047
       106        2.0000           -0.4097406             -11.1496
       107        2.0000           -0.4090620             -11.1311
       108        2.0000           -0.4004734             -10.8974
       109        2.0000           -0.3970678             -10.8048
       110        2.0000           -0.3926477             -10.6845
       111        2.0000           -0.3924332             -10.6787
       112        2.0000           -0.3885047             -10.5718
       113        2.0000           -0.3794691             -10.3259
       114        1.9999           -0.3747914             -10.1986
       115        1.7560           -0.3671504              -9.9907
       116        1.2441           -0.3650020              -9.9322
       117        1.0000           -0.2882343              -7.8433 (HOMO)
       118        0.0000           -0.2586386              -7.0379 (LUMO)
       119                         -0.2553080              -6.9473
       120                         -0.2503419              -6.8122
       121                         -0.2486091              -6.7650
       122                         -0.2324098              -6.3242
       123                         -0.2319463              -6.3116
       124                         -0.2236662              -6.0863
       125                         -0.2232009              -6.0736
       126                         -0.2210567              -6.0153
       127                         -0.2191967              -5.9646
       128                         -0.2109354              -5.7398
       ...                                ...                  ...
       229                          0.7342924              19.9811
      -------------------------------------------------------------
                  HL-Gap            0.0295957 Eh            0.8053 eV

     #   Z          covCN         q      C6AA      α(0)
     1   6 C        2.921    -0.034    28.836     8.806
     2   6 C        2.922    -0.033    28.812     8.802
     3   6 C        2.913    -0.033    28.834     8.805
     4   6 C        3.056     0.006    27.833     8.652
     5   6 C        3.035     0.001    27.981     8.676
     6   6 C        2.914    -0.035    28.867     8.810
     7   6 C        3.036     0.001    27.980     8.676
     8   6 C        2.914    -0.035    28.867     8.810
     9   6 C        2.921    -0.034    28.835     8.806
    10   6 C        2.922    -0.033    28.812     8.802
    11   6 C        2.913    -0.033    28.834     8.805
    12   6 C        3.055     0.006    27.837     8.653
    13   6 C        3.975     0.009    20.361     6.411
    14   6 C        3.054     0.006    27.840     8.653
    15   6 C        2.912    -0.034    28.852     8.808
    16   6 C        2.922    -0.034    28.843     8.807
    17   6 C        2.918    -0.032    28.810     8.802
    18   6 C        2.913    -0.037    28.925     8.819
    19   6 C        3.032     0.003    27.922     8.667
    20   6 C        3.034    -0.007    28.168     8.705
    21   6 C        2.908    -0.035    28.869     8.810
    22   6 C        2.921    -0.041    29.022     8.834
    23   6 C        2.978    -0.006    28.161     8.705
    24   6 C        2.917     0.140    24.943     8.190
    25   7 N        1.838    -0.226    26.773     7.668
    26   6 C        2.898     0.070    26.431     8.429
    27   6 C        2.963    -0.038    28.944     8.824
    28   6 C        2.967     0.004    27.930     8.669
    29   6 C        2.921    -0.039    28.969     8.826
    30   6 C        2.916    -0.041    29.016     8.833
    31   6 C        2.912     0.052    26.843     8.496
    32   7 N        2.800    -0.017    21.584     6.900
    33   6 C        3.072     0.046    26.890     8.502
    34   6 C        2.909    -0.045    29.109     8.847
    35   6 C        2.923    -0.032    28.799     8.800
    36   6 C        2.920    -0.035    28.880     8.813
    37   6 C        2.912    -0.031    28.762     8.794
    38   6 C        3.065    -0.013    28.270     8.719
    39   6 C        3.065    -0.013    28.270     8.719
    40   6 C        2.912    -0.031    28.762     8.794
    41   6 C        2.920    -0.035    28.880     8.813
    42   6 C        2.923    -0.032    28.798     8.800
    43   6 C        2.909    -0.045    29.109     8.847
    44   6 C        3.072     0.046    26.890     8.503
    45   6 C        2.916    -0.041    29.017     8.833
    46   6 C        2.921    -0.039    28.970     8.826
    47   6 C        2.898     0.070    26.440     8.431
    48   7 N        1.838    -0.226    26.782     7.669
    49   6 C        2.915    -0.043    29.075     8.842
    50   6 C        3.046     0.007    27.825     8.652
    51   1 H        0.926     0.033     2.539     2.492
    52   1 H        0.926     0.032     2.551     2.498
    53   1 H        0.926     0.027     2.633     2.538
    54   1 H        0.926     0.034     2.524     2.485
    55   1 H        0.926     0.034     2.525     2.485
    56   1 H        0.926     0.033     2.540     2.492
    57   1 H        0.926     0.032     2.552     2.498
    58   1 H        0.926     0.027     2.631     2.537
    59   1 H        0.926     0.026     2.638     2.540
    60   1 H        0.926     0.032     2.559     2.501
    61   1 H        0.926     0.032     2.552     2.498
    62   1 H        0.926     0.033     2.545     2.495
    63   1 H        0.926     0.035     2.521     2.483
    64   1 H        0.926     0.041     2.433     2.439
    65   1 H        0.925     0.047     2.362     2.403
    66   1 H        0.926     0.036     2.506     2.475
    67   1 H        0.926     0.044     2.396     2.421
    68   1 H        0.926     0.039     2.461     2.453
    69   1 H        0.926     0.038     2.472     2.459
    70   1 H        0.926     0.037     2.482     2.464
    71   1 H        0.926     0.040     2.450     2.448
    72   1 H        0.926     0.040     2.450     2.448
    73   1 H        0.926     0.038     2.482     2.464
    74   1 H        0.926     0.038     2.473     2.459
    75   1 H        0.926     0.039     2.462     2.454
    76   1 H        0.926     0.044     2.394     2.420
    77   1 H        0.926     0.036     2.501     2.473
    78   1 H        0.925     0.047     2.353     2.399
    79   1 H        0.926     0.034     2.524     2.485

molecular dipole:
                 x           y           z       tot (Debye)
 q only:        2.378      -0.428       0.082
   full:        2.717      -0.474       0.089       7.014

 projected vibrational frequencies (cm⁻¹)
eigval :       -0.00    -0.00    -0.00    -0.00     0.00     0.00
eigval :       -1.77     8.61    15.17    21.65    27.81    38.70
eigval :       39.70    49.37    55.46    67.15    78.32    89.18
eigval :       97.89   100.53   107.33   113.50   127.52   134.76
eigval :      143.58   151.26   169.57   197.97   209.41   229.33
eigval :      230.46   232.51   254.25   270.30   271.49   286.22
eigval :      297.67   329.31   331.66   368.28   374.08   376.34
eigval :      386.50   391.12   398.94   403.88   405.26   413.80
eigval :      414.40   418.50   429.92   438.14   445.99   463.78
eigval :      467.64   471.84   494.89   496.63   503.32   515.29
eigval :      523.26   535.72   536.47   541.78   548.44   577.41
eigval :      578.23   588.57   589.60   601.05   607.71   610.71
eigval :      618.30   629.27   655.56   667.49   673.05   674.46
eigval :      678.40   679.18   690.55   699.47   707.53   715.98
eigval :      734.43   737.64   752.57   755.63   764.32   764.80
eigval :      767.96   779.63   783.80   785.50   792.95   800.37
eigval :      813.96   819.49   839.68   854.27   865.02   869.53
eigval :      871.28   878.10   879.93   895.04   895.17   900.52
eigval :      902.09   904.08   906.05   907.00   910.19   912.65
eigval :      913.53   916.88   918.23   920.23   924.10   926.08
eigval :      927.36   929.88   930.73   946.71   995.31  1001.82
eigval :     1007.39  1009.85  1044.65  1056.97  1067.07  1068.55
eigval :     1070.31  1072.64  1075.33  1078.10  1102.46  1112.81
eigval :     1124.91  1140.74  1142.81  1144.61  1147.48  1158.43
eigval :     1169.77  1171.56  1175.93  1176.99  1178.72  1179.87
eigval :     1188.23  1191.45  1205.60  1208.23  1214.42  1223.41
eigval :     1228.43  1238.60  1242.42  1257.00  1258.20  1260.49
eigval :     1270.23  1275.23  1277.17  1283.96  1286.58  1291.03
eigval :     1322.03  1325.33  1334.62  1343.41  1343.96  1347.14
eigval :     1352.57  1358.49  1363.78  1380.13  1407.61  1412.49
eigval :     1419.11  1424.55  1426.71  1427.61  1437.65  1452.28
eigval :     1459.82  1460.06  1460.21  1468.78  1475.96  1478.30
eigval :     1480.46  1489.68  1498.39  1536.47  1562.24  1566.04
eigval :     1574.60  1577.53  1579.44  1582.44  1588.55  1590.34
eigval :     1593.12  1599.63  1601.75  1602.97  3029.44  3033.01
eigval :     3067.49  3067.91  3068.30  3070.26  3072.48  3072.97
eigval :     3074.05  3077.06  3078.76  3079.05  3079.97  3080.39
eigval :     3082.08  3083.41  3083.95  3085.34  3086.58  3087.55
eigval :     3088.38  3091.41  3092.19  3093.33  3093.80  3094.88
eigval :     3097.19  3097.35  3098.79

   temp. (K)  partition function   enthalpy   heat capacity  entropy
                                   cal/mol     cal/K/mol   cal/K/mol   J/K/mol
 298.15  VIB  0.885E+18            22213.563    143.853    138.999
         ROT  0.130E+09              888.752      2.981     40.110
         INT  0.115E+27            23102.315    146.833    179.109
         TR   0.155E+29             1481.254      4.968     45.211
         TOT                       24583.5694   151.8016   224.3197   938.5537

       T/K    H(0)-H(T)+PV         H(T)/Eh          T*S/Eh         G(T)/Eh
   ------------------------------------------------------------------------
    298.15    0.391764E-01    0.636450E+00    0.106582E+00    0.529869E+00
   ------------------------------------------------------------------------

         :::::::::::::::::::::::::::::::::::::::::::::::::::::
         ::                  THERMODYNAMIC                  ::
         :::::::::::::::::::::::::::::::::::::::::::::::::::::
         :: total free energy        -123.710488361871 Eh   ::
         ::.................................................::
         :: total energy             -124.240357019413 Eh   ::
         :: zero point energy           0.597273786273 Eh   ::
         :: G(RRHO) w/o ZPVE           -0.067405128731 Eh   ::
         :: G(RRHO) contrib.            0.529868657542 Eh   ::
         :::::::::::::::::::::::::::::::::::::::::::::::::::::

           -------------------------------------------------
          | TOTAL ENERGY             -124.240357019413 Eh   |
          | TOTAL ENTHALPY           -123.603906821650 Eh   |
          | TOTAL FREE ENERGY        -123.710488361871 Eh   |
          | GRADIENT NORM               0.000164858664 Eh/α |
          | HOMO-LUMO GAP               0.805340795500 eV   |
           -------------------------------------------------

 * finished run on 2025/09/03 at 18:42:38.089
