   * xtb version 6.7.1 (edcfbbe) compiled by 'albert@albert-system' on 2024-07-22

   ID    Z sym.   atoms
    1    6 C      1-24, 26-31, 33-47, 49, 50
    2    7 N      25, 32, 48
    3    1 H      51-79

          program call               : xtb data2507/toluene/SFCz/SFCz.xyz --gfn 2 --gbsa toluene --ohess vtight --parallel 40 --molden --ceasefiles --namespace data2507/toluene/SFCz/SFCz_toluene_S0_preOpt
      * Solvation model:               GBSA
        Solvent                        toluene
        Solvent mass                       9.2140E+01 g/mol
          :  Hamiltonian                  GFN2-xTB          :
 * total energy  :  -124.3013587 Eh     change       -0.1725454E-08 Eh
 * total energy  :  -124.3139539 Eh     change       -0.1259522E-01 Eh
 * total energy  :  -124.3167842 Eh     change       -0.2830233E-02 Eh
 * total energy  :  -124.3176149 Eh     change       -0.8306920E-03 Eh
 * total energy  :  -124.3183362 Eh     change       -0.7213198E-03 Eh
 * total energy  :  -124.3186327 Eh     change       -0.2964804E-03 Eh
 * total energy  :  -124.3187917 Eh     change       -0.1589890E-03 Eh
 * total energy  :  -124.3188757 Eh     change       -0.8403066E-04 Eh
 * total energy  :  -124.3189247 Eh     change       -0.4903538E-04 Eh
 * total energy  :  -124.3189598 Eh     change       -0.3503412E-04 Eh
 * total energy  :  -124.3190407 Eh     change       -0.2126437E-05 Eh
 * total energy  :  -124.3190424 Eh     change       -0.1741456E-05 Eh
 * total energy  :  -124.3190435 Eh     change       -0.1095221E-05 Eh
 * total energy  :  -124.3190437 Eh     change       -0.1745212E-06 Eh
 * total energy  :  -124.3190441 Eh     change       -0.4038300E-06 Eh
 * total energy  :  -124.3190441 Eh     change        0.1623260E-07 Eh
 * total energy  :  -124.3190444 Eh     change       -0.3258498E-06 Eh
 * total energy  :  -124.3190446 Eh     change       -0.2082252E-06 Eh
 * total energy  :  -124.3190446 Eh     change       -0.3007116E-08 Eh
   *** GEOMETRY OPTIMIZATION CONVERGED AFTER 44 ITERATIONS ***

 final structure:
================
79
 xtb: 6.7.1 (edcfbbe)
C           -5.77259811648982        3.18379017264071       -2.98349006496184
C           -5.81108870185223        3.53663687667182       -1.64262487459225
C           -5.83668521005323        2.56367237313310       -0.65168407906992
C           -5.82153315167989        1.23948749785011       -1.03211662083862
C           -5.78155174607574        0.87649180330838       -2.38624659409630
C           -5.75732956011773        1.85256431508440       -3.36929785051332
C           -5.77133572981251       -0.57587313290193       -2.47470342663741
C           -5.73495450107641       -1.42494847831917       -3.56900442567335
C           -5.73146562803095       -2.79325699434119       -3.34769732632255
C           -5.76282577541753       -3.30654893470585       -2.05955116659100
C           -5.80012438351512       -2.46155240585387       -0.95786123108234
C           -5.80449503036274       -1.10089178294821       -1.17456516302660
C           -5.84451427585884        0.01115014689422       -0.15250926779793
C           -7.04878309085066       -0.05243730938049        0.75643585613945
C           -8.38307749691154       -0.04588980853619        0.41180434639818
C           -9.32876232621441       -0.11425371175463        1.42665915647256
C           -8.94095270675945       -0.18640741859358        2.75706991186042
C           -7.60059177769759       -0.19407505235755        3.10801789988759
C           -6.65077604978217       -0.12715532323364        2.10019455684318
C           -5.19916038447691       -0.12061647067118        2.15190797393266
C           -4.31994250847819       -0.18145682352653        3.22396453218958
C           -2.96150877460871       -0.16264175335671        2.97268376432704
C           -2.47005364266554       -0.08311071153064        1.66641186670448
C           -1.03086011329024       -0.06643545082858        1.42645465533312
N           -0.60807804048646        0.04639211727656        0.16485133914567
C            0.68956154867050        0.05453614442289       -0.05027674591807
C            1.63400672743600       -0.04094042053899        0.97651451434729
C            3.07533370276953       -0.02929358349750        0.73142619979438
C            3.62288796470355        0.80008176586184       -0.24733713681889
C            4.98229960841052        0.81010604598998       -0.48370610680251
C            5.82923942511491       -0.01138889225259        0.25724360430419
N            7.20883909876713       -0.00452005059963        0.01579760490975
C            7.99655292887013       -1.11787972890232       -0.20817831787298
C            7.63534701513854       -2.45556911792749       -0.28762939326838
C            8.62974132691910       -3.37849731401731       -0.55148752467540
C            9.95337436455424       -2.98731330659523       -0.74311565758492
C           10.31452307849763       -1.65554577745279       -0.69021375124637
C            9.33262521408404       -0.70916247409328       -0.42565047104345
C            9.34431047169942        0.72357887378609       -0.31849400062994
C           10.34699774011012        1.68064260136320       -0.41062488141738
C           10.01488412805356        3.00775811594763       -0.22295924584136
C            8.70492103093269        3.38403878150985        0.06733769672535
C            7.69010308285102        2.45052306531757        0.16205915980543
C            8.01324605953613        1.11744815620574       -0.04924646016662
C            5.28980723511964       -0.84049972102525        1.23835880227146
C            3.92945452770776       -0.84753925285531        1.47055571567842
C            1.08133486451800       -0.14819191172664        2.25636409995450
N           -0.21523654489386       -0.16497735889523        2.47930056920964
C           -3.35647111366430       -0.02007154449911        0.58514171872830
C           -4.70622765065056       -0.04051436533404        0.83829880847889
H           -5.75397897515291        3.95821252293264       -3.73692621678955
H           -5.82157646259372        4.58075538083868       -1.36514389553791
H           -5.86674340699890        2.83855275323234        0.39301117440371
H           -5.72701933237824        1.58351291887093       -4.41480436706257
H           -5.70973742873608       -1.03075041406496       -4.57413448902639
H           -5.70339847989278       -3.47042015983094       -4.18933446014474
H           -5.75865761455404       -4.37656056701441       -1.91054541136131
H           -5.82457141916648       -2.86220081651588        0.04546198125664
H           -8.68564404940751        0.01035126487946       -0.62388768469557
H          -10.37969699277922       -0.11087956539829        1.17658107571769
H           -9.69533632836262       -0.23787526937537        3.52882643094820
H           -7.30284506742011       -0.25081467328748        4.14437772050035
H           -4.68826333817870       -0.24270610518134        4.23694898046126
H           -2.25122715325211       -0.20898143152416        3.78355187934424
H            0.99166160483467        0.12174909521931       -1.08893058368032
H            2.97782375184103        1.45055528936991       -0.81916495300510
H            5.39483358701331        1.44474603083311       -1.25355713866578
H            6.61006898298463       -2.76820437951652       -0.15893756852392
H            8.37398913453923       -4.42628678567369       -0.61447204465406
H           10.70229141911298       -3.73918464111106       -0.94461959563302
H           11.33739959737024       -1.35119793324393       -0.85476181698468
H           11.36512289311499        1.38766376402017       -0.61928961920729
H           10.77954630397962        3.76756097182783       -0.29212040693460
H            8.47784358984344        4.42839876681822        0.22531284166184
H            6.68191104884385        2.75153128672146        0.40394504184374
H            5.94405076325029       -1.46793132727922        1.82473161256342
H            3.52102104172227       -1.50433409266051        2.22426579989948
H            1.70910663615620       -0.20551732216381        3.13796940341456
H           -2.96638041841875        0.04081296805789       -0.41893925906706

          :  Hamiltonian                  GFN2-xTB          :
         :: gradient norm              0.000041663970 Eh/a0 ::
         :: HOMO-LUMO gap              2.088083222082 eV    ::
         :: SCC energy              -126.665520813232 Eh    ::
         :: -> dispersion             -0.111992743585 Eh    ::
         :: -> Gsolv                  -0.052803376538 Eh    ::
         :: repulsion energy           2.346476225595 Eh    ::

    * Orbital Energies and Occupations

         #    Occupation            Energy/Eh            Energy/eV
      -------------------------------------------------------------
         1        2.0000           -0.6838361             -18.6081
       ...           ...                  ...                  ...
       104        2.0000           -0.4139874             -11.2652
       105        2.0000           -0.4135641             -11.2537
       106        2.0000           -0.4099376             -11.1550
       107        2.0000           -0.4086660             -11.1204
       108        2.0000           -0.4069593             -11.0739
       109        2.0000           -0.4019464             -10.9375
       110        2.0000           -0.3976814             -10.8215
       111        2.0000           -0.3955204             -10.7627
       112        2.0000           -0.3840300             -10.4500
       113        2.0000           -0.3804850             -10.3535
       114        2.0000           -0.3787078             -10.3052
       115        2.0000           -0.3701390             -10.0720
       116        2.0000           -0.3637542              -9.8983 (HOMO)
       117                         -0.2870185              -7.8102 (LUMO)
       118                         -0.2691239              -7.3232
       119                         -0.2521312              -6.8608
       120                         -0.2520467              -6.8585
       121                         -0.2456524              -6.6845
       122                         -0.2390783              -6.5057
       123                         -0.2291390              -6.2352
       124                         -0.2273784              -6.1873
       125                         -0.2256682              -6.1407
       126                         -0.2251948              -6.1279
       127                         -0.2238333              -6.0908
       ...                                ...                  ...
       229                          0.7423255              20.1997
      -------------------------------------------------------------
                  HL-Gap            0.0767356 Eh            2.0881 eV

     #   Z          covCN         q      C6AA      α(0)
     1   6 C        2.921    -0.033    28.822     8.804
     2   6 C        2.923    -0.032    28.805     8.801
     3   6 C        2.913    -0.034    28.837     8.806
     4   6 C        3.055     0.006    27.835     8.652
     5   6 C        3.035     0.001    27.967     8.674
     6   6 C        2.914    -0.034    28.852     8.808
     7   6 C        3.035     0.001    27.967     8.674
     8   6 C        2.914    -0.034    28.852     8.808
     9   6 C        2.921    -0.033    28.822     8.804
    10   6 C        2.923    -0.032    28.806     8.802
    11   6 C        2.913    -0.034    28.838     8.806
    12   6 C        3.055     0.006    27.837     8.653
    13   6 C        3.977     0.009    20.352     6.410
    14   6 C        3.055     0.008    27.781     8.644
    15   6 C        2.913    -0.032    28.806     8.801
    16   6 C        2.923    -0.030    28.752     8.793
    17   6 C        2.920    -0.032    28.800     8.800
    18   6 C        2.914    -0.033    28.813     8.802
    19   6 C        3.035     0.002    27.952     8.672
    20   6 C        3.036     0.007    27.828     8.653
    21   6 C        2.912    -0.033    28.831     8.805
    22   6 C        2.925    -0.032    28.796     8.800
    23   6 C        2.985    -0.006    28.173     8.707
    24   6 C        2.959     0.185    24.043     8.043
    25   7 N        1.839    -0.270    27.850     7.821
    26   6 C        2.925     0.076    26.293     8.409
    27   6 C        2.965    -0.016    28.407     8.742
    28   6 C        2.974     0.003    27.957     8.673
    29   6 C        2.924    -0.032    28.801     8.801
    30   6 C        2.920    -0.041    29.024     8.835
    31   6 C        2.912     0.066    26.525     8.445
    32   7 N        2.801    -0.044    22.089     6.980
    33   6 C        3.073     0.047    26.878     8.500
    34   6 C        2.910    -0.052    29.286     8.874
    35   6 C        2.924    -0.035    28.861     8.810
    36   6 C        2.920    -0.042    29.043     8.837
    37   6 C        2.912    -0.034    28.855     8.808
    38   6 C        3.067    -0.018    28.381     8.736
    39   6 C        3.067    -0.018    28.382     8.736
    40   6 C        2.912    -0.034    28.855     8.808
    41   6 C        2.920    -0.042    29.042     8.837
    42   6 C        2.924    -0.035    28.861     8.810
    43   6 C        2.910    -0.052    29.284     8.873
    44   6 C        3.073     0.047    26.879     8.500
    45   6 C        2.920    -0.041    29.025     8.835
    46   6 C        2.924    -0.032    28.801     8.801
    47   6 C        2.925     0.076    26.305     8.411
    48   7 N        1.839    -0.269    27.836     7.819
    49   6 C        2.918    -0.032    28.800     8.800
    50   6 C        3.052     0.008    27.782     8.644
    51   1 H        0.926     0.034     2.531     2.488
    52   1 H        0.926     0.033     2.541     2.493
    53   1 H        0.926     0.028     2.618     2.530
    54   1 H        0.926     0.035     2.511     2.478
    55   1 H        0.926     0.035     2.511     2.478
    56   1 H        0.926     0.034     2.532     2.488
    57   1 H        0.926     0.033     2.542     2.493
    58   1 H        0.926     0.028     2.619     2.531
    59   1 H        0.926     0.031     2.572     2.508
    60   1 H        0.926     0.036     2.498     2.471
    61   1 H        0.926     0.037     2.492     2.468
    62   1 H        0.926     0.039     2.468     2.457
    63   1 H        0.926     0.045     2.378     2.411
    64   1 H        0.926     0.055     2.260     2.351
    65   1 H        0.925     0.039     2.456     2.451
    66   1 H        0.926     0.041     2.429     2.437
    67   1 H        0.926     0.048     2.340     2.392
    68   1 H        0.926     0.030     2.589     2.516
    69   1 H        0.926     0.031     2.573     2.509
    70   1 H        0.926     0.029     2.599     2.521
    71   1 H        0.926     0.032     2.563     2.504
    72   1 H        0.926     0.032     2.563     2.504
    73   1 H        0.926     0.029     2.599     2.521
    74   1 H        0.926     0.031     2.573     2.509
    75   1 H        0.926     0.030     2.590     2.517
    76   1 H        0.926     0.049     2.337     2.391
    77   1 H        0.926     0.042     2.426     2.436
    78   1 H        0.925     0.040     2.445     2.445
    79   1 H        0.926     0.049     2.333     2.389

molecular dipole:
                 x           y           z       tot (Debye)
 q only:       -0.662      -0.002       0.003
   full:       -0.248       0.000      -0.051       0.643

 projected vibrational frequencies (cm⁻¹)
eigval :       -0.00    -0.00    -0.00     0.00     0.00     0.00
eigval :       -4.33    14.13    15.09    22.30    28.04    40.91
eigval :       41.83    50.73    54.44    59.56    76.83    90.63
eigval :       96.18   103.93   105.59   113.64   126.53   140.00
eigval :      146.31   149.75   178.16   198.77   206.04   230.41
eigval :      231.31   232.29   253.37   273.40   276.07   287.57
eigval :      306.06   332.08   354.27   363.63   375.40   381.64
eigval :      385.31   393.20   398.31   409.90   413.29   416.92
eigval :      418.76   428.73   436.35   440.79   458.79   470.87
eigval :      476.85   494.29   496.53   505.22   517.46   525.43
eigval :      528.16   536.03   538.03   542.62   570.01   582.34
eigval :      589.91   596.06   602.94   606.41   616.68   620.38
eigval :      630.97   634.05   657.56   674.99   687.86   688.26
eigval :      691.36   701.82   706.33   710.99   721.05   740.39
eigval :      753.02   754.83   758.44   765.97   768.73   772.60
eigval :      777.02   780.27   785.92   816.64   819.25   836.00
eigval :      865.70   869.79   874.09   877.44   878.07   879.19
eigval :      881.07   885.05   897.03   900.72   901.97   902.20
eigval :      908.76   910.67   911.82   918.28   918.63   920.01
eigval :      922.25   923.98   925.59   926.41   928.14   928.80
eigval :      930.54   933.66   949.97  1002.07  1007.70  1008.81
eigval :     1011.10  1027.82  1069.00  1071.84  1072.55  1072.61
eigval :     1075.07  1077.66  1083.62  1101.47  1116.28  1131.93
eigval :     1135.36  1142.20  1148.03  1150.66  1169.42  1174.33
eigval :     1175.58  1175.69  1179.21  1180.16  1181.80  1197.71
eigval :     1202.03  1205.51  1207.43  1216.64  1224.58  1234.32
eigval :     1242.51  1244.05  1249.92  1257.92  1259.74  1265.61
eigval :     1275.89  1282.87  1287.10  1298.96  1299.14  1313.21
eigval :     1324.71  1325.06  1331.04  1355.00  1359.63  1360.45
eigval :     1364.35  1364.45  1380.36  1407.61  1411.21  1421.08
eigval :     1426.63  1427.09  1429.98  1430.54  1434.68  1451.04
eigval :     1460.25  1469.85  1471.19  1473.49  1486.24  1497.80
eigval :     1510.19  1556.35  1557.40  1572.18  1573.37  1583.86
eigval :     1587.10  1590.28  1591.46  1594.28  1595.10  1597.06
eigval :     1600.65  1601.91  1602.39  1612.54  3032.62  3036.70
eigval :     3068.59  3069.26  3071.17  3071.57  3072.01  3072.67
eigval :     3073.29  3075.22  3077.08  3077.89  3080.12  3081.23
eigval :     3081.97  3083.02  3083.73  3085.08  3085.64  3085.95
eigval :     3087.69  3089.67  3091.01  3091.45  3093.69  3095.02
eigval :     3097.10  3104.57  3107.15

   temp. (K)  partition function   enthalpy   heat capacity  entropy
                                   cal/mol     cal/K/mol   cal/K/mol   J/K/mol
 298.15  VIB  0.161E+18            21905.112    141.706    136.109
         ROT  0.130E+09              888.752      2.981     40.105
         INT  0.209E+26            22793.865    144.687    176.214
         TR   0.155E+29             1481.254      4.968     45.211
         TOT                       24275.1186   149.6549   221.4249   926.4418

       T/K    H(0)-H(T)+PV         H(T)/Eh          T*S/Eh         G(T)/Eh
   ------------------------------------------------------------------------
    298.15    0.386849E-01    0.640351E+00    0.105206E+00    0.535145E+00
   ------------------------------------------------------------------------

         :::::::::::::::::::::::::::::::::::::::::::::::::::::
         ::                  THERMODYNAMIC                  ::
         :::::::::::::::::::::::::::::::::::::::::::::::::::::
         :: total free energy        -123.783899331001 Eh   ::
         ::.................................................::
         :: total energy             -124.319044587046 Eh   ::
         :: zero point energy           0.601666509010 Eh   ::
         :: G(RRHO) w/o ZPVE           -0.066521252965 Eh   ::
         :: G(RRHO) contrib.            0.535145256045 Eh   ::
         :::::::::::::::::::::::::::::::::::::::::::::::::::::

           -------------------------------------------------
          | TOTAL ENERGY             -124.319044587046 Eh   |
          | TOTAL ENTHALPY           -123.678693214166 Eh   |
          | TOTAL FREE ENERGY        -123.783899331001 Eh   |
          | GRADIENT NORM               0.000041655779 Eh/α |
          | HOMO-LUMO GAP               2.088083004989 eV   |
           -------------------------------------------------

 * finished run on 2025/09/03 at 18:38:44.317
