   * xtb version 6.7.1 (edcfbbe) compiled by 'albert@albert-system' on 2024-07-22

   ID    Z sym.   atoms
    1    6 C      1-24, 26-31, 33-47, 49, 50
    2    7 N      25, 32, 48
    3    1 H      51-79

          program call               : xtb data2507/toluene/SFCz/SFCz_toluene_S0_crest.xyz --gfn 2 --gbsa toluene --ohess vtight --parallel 40 --molden --ceasefiles --namespace data2507/toluene/SFCz/SFCz_toluene_S0_finalOpt
      * Solvation model:               GBSA
        Solvent                        toluene
        Solvent mass                       9.2140E+01 g/mol
          :  Hamiltonian                  GFN2-xTB          :
 * total energy  :  -124.3191414 Eh     change       -0.2008761E-08 Eh
 * total energy  :  -124.3191668 Eh     change       -0.2544893E-04 Eh
 * total energy  :  -124.3191774 Eh     change       -0.1058778E-04 Eh
 * total energy  :  -124.3191815 Eh     change       -0.4054635E-05 Eh
 * total energy  :  -124.3191842 Eh     change       -0.2749125E-05 Eh
 * total energy  :  -124.3191854 Eh     change       -0.1182269E-05 Eh
 * total energy  :  -124.3191865 Eh     change       -0.1142878E-05 Eh
 * total energy  :  -124.3191877 Eh     change       -0.1131271E-05 Eh
 * total energy  :  -124.3191885 Eh     change       -0.8030010E-06 Eh
 * total energy  :  -124.3191890 Eh     change       -0.5298915E-06 Eh
 * total energy  :  -124.3191894 Eh     change       -0.4302683E-06 Eh
 * total energy  :  -124.3191898 Eh     change       -0.3503289E-06 Eh
 * total energy  :  -124.3191900 Eh     change       -0.2160868E-06 Eh
 * total energy  :  -124.3191901 Eh     change       -0.1303300E-06 Eh
 * total energy  :  -124.3191903 Eh     change       -0.1276462E-06 Eh
 * total energy  :  -124.3191903 Eh     change       -0.1948553E-07 Eh
   *** GEOMETRY OPTIMIZATION CONVERGED AFTER 16 ITERATIONS ***

 final structure:
================
79
 xtb: 6.7.1 (edcfbbe)
C           -5.64217024481027       -3.43394489884358       -2.72514406055166
C           -5.64199224184214       -2.15814914713091       -3.26931910487266
C           -5.69731481611016       -1.03626451763352       -2.45230275171739
C           -5.75181892906813       -1.22013758630093       -1.08787119483146
C           -5.75002888573834       -2.50773621296511       -0.53173464008511
C           -5.69610113289840       -3.62233591030903       -1.35299032522061
C           -5.80730107239355       -2.38497324444193        0.91698247567974
C           -5.82870393594807       -3.34513769367041        1.91562138646741
C           -5.88328376929848       -2.92817608631419        3.23635590693684
C           -5.91611499605524       -1.57903210644463        3.55660761544982
C           -5.89637701061062       -0.61088961011183        2.56081423467283
C           -5.84229963844669       -1.02225523637938        1.24691163004583
C           -5.81842551911921       -0.17168528906465       -0.00223531246381
C           -7.01461422001948        0.74316992511087       -0.11875810413027
C           -8.35060944794595        0.40659925460009       -0.14976545123829
C           -9.28745579435242        1.42608129335445       -0.25920336056615
C           -8.88941551260504        2.75325051272071       -0.33469115631248
C           -7.54723998256778        3.09607576349201       -0.30594328524868
C           -6.60621411810593        2.08353072520424       -0.19824379117106
C           -5.15507949019101        2.12650434257457       -0.15211654853645
C           -4.26791042137117        3.19222583506559       -0.20775201018912
C           -2.91184184401698        2.93270711607885       -0.15870956988753
C           -2.43056616743609        1.62436171363359       -0.05432521796970
C           -0.99319581509036        1.37507679681776       -0.02203002739964
N           -0.57923759530708        0.11159278840426        0.10194409326627
C            0.71685389639179       -0.11271103194736        0.10976623562270
C            1.66880533378900        0.90627830056928        0.00402103005900
C            3.10783330057941        0.65100290232879        0.00603072610068
C            3.65442955603779       -0.33990818406990        0.82190923095466
C            5.01308463444428       -0.57975747945027        0.82708955412121
C            5.85930250578424        0.15806707423944        0.00170102963141
N            7.23696989325610       -0.09112737027603       -0.00127643273103
C            8.23209943261051        0.85809896618611        0.13770338156992
C            8.12722803820121        2.22504443764620        0.35350254006591
C            9.29685447986382        2.94954756877082        0.48628641773803
C           10.54557874981203        2.33501006048436        0.41742128894908
C           10.65581154619662        0.97171292492860        0.22760899260312
C            9.49418502103370        0.22226436591394        0.09120443344891
C            9.23919585589719       -1.17977632341664       -0.09237364736350
C           10.06231064167958       -2.29041072109056       -0.22904924960631
C            9.47887056646967       -3.52691504628327       -0.42262033538438
C            8.09387096708008       -3.66153028133116       -0.49557051095833
C            7.25458533240593       -2.57160765959856       -0.36119586090597
C            7.83414073458178       -1.32996487974051       -0.14084718464553
C            5.31992334212543        1.14528942168453       -0.82046003632912
C            3.96242774596370        1.39216726529723       -0.81042901186327
C            1.12481289208224        2.18982922581959       -0.10555536872560
N           -0.17004308670884        2.42177859049586       -0.12367388701796
C           -3.32524100222593        0.54993456666725        0.00960189611944
C           -4.67273452717382        0.81112800968098       -0.04134615807092
H           -5.59912191000794       -4.29190274878653       -3.38070616568803
H           -5.59848580914689       -2.03474374397481       -4.34170191226664
H           -5.69689604364881       -0.04272581502411       -2.87721728475174
H           -5.69489600790550       -4.61787013251529       -0.93438375067805
H           -5.80302434199003       -4.39690026686803        1.67168963686040
H           -5.90044869007094       -3.66328090145265        4.02823139494171
H           -5.95757348304488       -1.27701688817119        4.59310732526930
H           -5.92209420968518        0.44005152933523        2.81099931101959
H           -8.66168602206742       -0.62636804968002       -0.09094784854614
H          -10.33949305171659        1.18207973634854       -0.28530167540287
H           -9.63706640179193        3.52877562054131       -0.41798018437674
H           -7.24146046974345        4.12989137749854       -0.36617724719201
H           -4.62842210997650        4.20649402627477       -0.29043711757350
H           -2.19554336514256        3.73833254606356       -0.20334902182627
H            1.01119082729230       -1.15304905384585        0.18447522790185
H            3.01145918594747       -0.90561156101706        1.47973270818718
H            5.42958872446315       -1.32973179098496        1.48258355527003
H            7.16499913452221        2.70917580547265        0.42616967291052
H            9.24158016643242        4.01579829179599        0.65134195926020
H           11.43667859743460        2.93625109130830        0.52327758160502
H           11.62290477291860        0.49283266670896        0.19057860835404
H           11.13605794161320       -2.18357356140387       -0.18946226633887
H           10.10101201002306       -4.40351269934597       -0.52908856249330
H            7.66616752695016       -4.63907610988854       -0.66486235926880
H            6.18374315049237       -2.68532718704414       -0.43705371157904
H            5.96899123008861        1.70433374422343       -1.47750174909445
H            3.55372296877538        2.14663297401417       -1.46618191517251
H            1.75851333168134        3.06702218710731       -0.16496629849331
H           -2.94285838432472       -0.45560275564574        0.09150750755359

          :  Hamiltonian                  GFN2-xTB          :
         :: gradient norm              0.000084340927 Eh/a0 ::
         :: HOMO-LUMO gap              2.102315696854 eV    ::
         :: SCC energy              -126.665634687594 Eh    ::
         :: -> dispersion             -0.112033292972 Eh    ::
         :: -> Gsolv                  -0.052848400541 Eh    ::
         :: repulsion energy           2.346444411093 Eh    ::

    * Orbital Energies and Occupations

         #    Occupation            Energy/Eh            Energy/eV
      -------------------------------------------------------------
         1        2.0000           -0.6836627             -18.6034
       ...           ...                  ...                  ...
       104        2.0000           -0.4139843             -11.2651
       105        2.0000           -0.4135429             -11.2531
       106        2.0000           -0.4099010             -11.1540
       107        2.0000           -0.4086661             -11.1204
       108        2.0000           -0.4070486             -11.0764
       109        2.0000           -0.4019340             -10.9372
       110        2.0000           -0.3976746             -10.8213
       111        2.0000           -0.3955200             -10.7626
       112        2.0000           -0.3840235             -10.4498
       113        2.0000           -0.3805747             -10.3560
       114        2.0000           -0.3787020             -10.3050
       115        2.0000           -0.3694982             -10.0546
       116        2.0000           -0.3643271              -9.9138 (HOMO)
       117                         -0.2870685              -7.8115 (LUMO)
       118                         -0.2689931              -7.3197
       119                         -0.2522204              -6.8633
       120                         -0.2521260              -6.8607
       121                         -0.2456160              -6.6836
       122                         -0.2389788              -6.5029
       123                         -0.2290808              -6.2336
       124                         -0.2273462              -6.1864
       125                         -0.2256672              -6.1407
       126                         -0.2250850              -6.1249
       127                         -0.2239247              -6.0933
       ...                                ...                  ...
       229                          0.7422301              20.1971
      -------------------------------------------------------------
                  HL-Gap            0.0772587 Eh            2.1023 eV

     #   Z          covCN         q      C6AA      α(0)
     1   6 C        2.921    -0.033    28.822     8.804
     2   6 C        2.923    -0.032    28.806     8.801
     3   6 C        2.913    -0.034    28.837     8.806
     4   6 C        3.055     0.006    27.839     8.653
     5   6 C        3.035     0.001    27.967     8.674
     6   6 C        2.914    -0.034    28.853     8.808
     7   6 C        3.035     0.001    27.967     8.674
     8   6 C        2.914    -0.034    28.852     8.808
     9   6 C        2.921    -0.033    28.822     8.804
    10   6 C        2.923    -0.032    28.805     8.801
    11   6 C        2.913    -0.034    28.837     8.806
    12   6 C        3.055     0.006    27.834     8.652
    13   6 C        3.977     0.009    20.352     6.410
    14   6 C        3.055     0.008    27.781     8.644
    15   6 C        2.913    -0.032    28.807     8.801
    16   6 C        2.923    -0.030    28.753     8.793
    17   6 C        2.920    -0.032    28.800     8.800
    18   6 C        2.914    -0.033    28.813     8.802
    19   6 C        3.035     0.002    27.952     8.672
    20   6 C        3.036     0.007    27.829     8.653
    21   6 C        2.912    -0.033    28.831     8.805
    22   6 C        2.925    -0.032    28.796     8.800
    23   6 C        2.985    -0.006    28.173     8.707
    24   6 C        2.959     0.185    24.044     8.043
    25   7 N        1.839    -0.270    27.856     7.822
    26   6 C        2.925     0.076    26.294     8.409
    27   6 C        2.965    -0.016    28.409     8.743
    28   6 C        2.974     0.003    27.961     8.674
    29   6 C        2.924    -0.032    28.801     8.801
    30   6 C        2.920    -0.041    29.026     8.835
    31   6 C        2.912     0.066    26.525     8.445
    32   7 N        2.801    -0.044    22.084     6.980
    33   6 C        3.073     0.047    26.880     8.501
    34   6 C        2.910    -0.052    29.284     8.873
    35   6 C        2.924    -0.035    28.860     8.810
    36   6 C        2.920    -0.042    29.041     8.837
    37   6 C        2.912    -0.034    28.855     8.808
    38   6 C        3.067    -0.018    28.380     8.735
    39   6 C        3.067    -0.018    28.380     8.735
    40   6 C        2.912    -0.034    28.855     8.808
    41   6 C        2.920    -0.042    29.041     8.837
    42   6 C        2.924    -0.035    28.860     8.810
    43   6 C        2.910    -0.052    29.283     8.873
    44   6 C        3.073     0.047    26.880     8.501
    45   6 C        2.920    -0.041    29.028     8.835
    46   6 C        2.924    -0.032    28.802     8.801
    47   6 C        2.925     0.076    26.306     8.411
    48   7 N        1.839    -0.269    27.840     7.819
    49   6 C        2.918    -0.032    28.800     8.800
    50   6 C        3.052     0.008    27.783     8.645
    51   1 H        0.926     0.034     2.532     2.488
    52   1 H        0.926     0.033     2.543     2.494
    53   1 H        0.926     0.028     2.620     2.531
    54   1 H        0.926     0.035     2.511     2.478
    55   1 H        0.926     0.035     2.511     2.478
    56   1 H        0.926     0.034     2.531     2.488
    57   1 H        0.926     0.033     2.541     2.493
    58   1 H        0.926     0.028     2.617     2.530
    59   1 H        0.926     0.031     2.572     2.508
    60   1 H        0.926     0.036     2.498     2.471
    61   1 H        0.926     0.037     2.492     2.468
    62   1 H        0.926     0.039     2.468     2.457
    63   1 H        0.926     0.045     2.378     2.412
    64   1 H        0.926     0.055     2.261     2.351
    65   1 H        0.925     0.039     2.458     2.452
    66   1 H        0.926     0.041     2.429     2.437
    67   1 H        0.926     0.048     2.340     2.392
    68   1 H        0.926     0.030     2.585     2.514
    69   1 H        0.926     0.031     2.570     2.507
    70   1 H        0.926     0.029     2.598     2.520
    71   1 H        0.926     0.032     2.563     2.503
    72   1 H        0.926     0.032     2.562     2.503
    73   1 H        0.926     0.029     2.597     2.520
    74   1 H        0.926     0.031     2.571     2.507
    75   1 H        0.926     0.030     2.587     2.515
    76   1 H        0.926     0.049     2.338     2.391
    77   1 H        0.926     0.042     2.427     2.436
    78   1 H        0.925     0.040     2.448     2.447
    79   1 H        0.926     0.049     2.334     2.389

molecular dipole:
                 x           y           z       tot (Debye)
 q only:       -0.635       0.001      -0.016
   full:       -0.221      -0.055      -0.013       0.579

 projected vibrational frequencies (cm⁻¹)
eigval :       -0.00    -0.00    -0.00     0.00     0.00     0.00
eigval :       -2.04     7.58    14.00    24.67    26.74    40.57
eigval :       43.83    51.22    56.00    58.09    79.55    87.79
eigval :       98.25   102.61   108.29   112.16   127.29   138.81
eigval :      144.50   151.37   174.99   198.74   209.79   230.91
eigval :      231.88   238.09   248.90   269.29   275.43   288.13
eigval :      304.92   334.63   362.34   363.74   377.68   384.56
eigval :      385.82   387.84   394.25   409.46   413.56   414.08
eigval :      422.19   423.98   432.36   440.40   460.16   471.42
eigval :      477.68   494.38   496.65   505.06   517.31   525.45
eigval :      528.77   536.30   539.14   540.54   570.40   582.22
eigval :      590.01   595.45   603.24   606.39   616.11   621.05
eigval :      631.15   634.05   657.77   672.97   688.23   688.88
eigval :      691.72   701.07   706.53   707.14   720.94   741.03
eigval :      753.06   755.05   758.53   766.10   767.66   772.71
eigval :      777.88   778.74   786.34   816.62   819.34   836.21
eigval :      864.77   868.83   872.56   876.48   878.27   878.74
eigval :      880.73   885.05   897.35   900.79   901.02   901.98
eigval :      909.20   910.97   912.46   917.97   919.17   919.42
eigval :      922.14   923.16   924.53   926.87   929.32   929.72
eigval :      930.63   932.80   949.94  1001.79  1007.62  1008.75
eigval :     1011.20  1027.53  1069.71  1071.59  1072.27  1073.16
eigval :     1074.52  1077.68  1083.51  1101.34  1116.48  1131.73
eigval :     1135.37  1142.07  1148.25  1151.94  1169.34  1174.98
eigval :     1175.31  1175.51  1179.95  1180.28  1182.69  1197.56
eigval :     1202.63  1205.51  1207.06  1216.52  1224.38  1234.92
eigval :     1243.11  1243.77  1250.22  1257.34  1259.36  1265.78
eigval :     1275.97  1282.76  1287.16  1298.81  1299.27  1313.01
eigval :     1324.85  1325.14  1331.05  1355.05  1359.56  1360.50
eigval :     1364.39  1364.49  1380.31  1407.91  1411.35  1421.20
eigval :     1426.71  1426.96  1429.83  1430.39  1434.57  1450.95
eigval :     1460.24  1469.94  1471.17  1473.53  1486.02  1497.78
eigval :     1510.07  1555.76  1556.54  1572.17  1573.47  1583.87
eigval :     1587.04  1590.28  1590.70  1594.07  1594.99  1596.96
eigval :     1600.71  1601.94  1602.57  1612.07  3032.59  3036.71
eigval :     3068.71  3069.72  3071.00  3072.19  3072.57  3073.05
eigval :     3073.59  3074.92  3077.75  3078.42  3080.30  3081.41
eigval :     3081.84  3082.82  3083.61  3085.27  3085.47  3086.34
eigval :     3087.86  3089.84  3090.94  3091.94  3094.02  3095.26
eigval :     3097.29  3104.54  3107.08

   temp. (K)  partition function   enthalpy   heat capacity  entropy
                                   cal/mol     cal/K/mol   cal/K/mol   J/K/mol
 298.15  VIB  0.601E+18            21914.840    141.779    137.468
         ROT  0.129E+09              888.752      2.981     40.099
         INT  0.777E+26            22803.593    144.760    177.567
         TR   0.155E+29             1481.254      4.968     45.211
         TOT                       24284.8466   149.7282   222.7778   932.1025

       T/K    H(0)-H(T)+PV         H(T)/Eh          T*S/Eh         G(T)/Eh
   ------------------------------------------------------------------------
    298.15    0.387004E-01    0.640340E+00    0.105849E+00    0.534492E+00
   ------------------------------------------------------------------------

         :::::::::::::::::::::::::::::::::::::::::::::::::::::
         ::                  THERMODYNAMIC                  ::
         :::::::::::::::::::::::::::::::::::::::::::::::::::::
         :: total free energy        -123.784698748327 Eh   ::
         ::.................................................::
         :: total energy             -124.319190270815 Eh   ::
         :: zero point energy           0.601640097786 Eh   ::
         :: G(RRHO) w/o ZPVE           -0.067148575297 Eh   ::
         :: G(RRHO) contrib.            0.534491522488 Eh   ::
         :::::::::::::::::::::::::::::::::::::::::::::::::::::

           -------------------------------------------------
          | TOTAL ENERGY             -124.319190270815 Eh   |
          | TOTAL ENTHALPY           -123.678849806579 Eh   |
          | TOTAL FREE ENERGY        -123.784698748327 Eh   |
          | GRADIENT NORM               0.000084346439 Eh/α |
          | HOMO-LUMO GAP               2.102315529079 eV   |
           -------------------------------------------------

 * finished run on 2025/09/03 at 18:42:26.174
