   * xtb version 6.7.1 (edcfbbe) compiled by 'albert@albert-system' on 2024-07-22

   ID    Z sym.   atoms
    1    6 C      1-9, 11, 12, 14, 16-32, 34, 36-52, 54-59
    2    7 N      10, 15, 33, 35, 53
    3    9 F      13
    4    1 H      60-101

          program call               : xtb data2507/toluene/3DMACIPN/3DMACIPN_toluene_S0_crest.xyz --gfn 2 --gbsa toluene --ohess vtight --parallel 40 --molden --ceasefiles --namespace data2507/toluene/3DMACIPN/3DMACIPN_toluene_S0_finalOpt
      * Solvation model:               GBSA
        Solvent                        toluene
        Solvent mass                       9.2140E+01 g/mol
          :  Hamiltonian                  GFN2-xTB          :
 * total energy  :  -154.3497804 Eh     change       -0.6234018E-08 Eh
 * total energy  :  -154.3500955 Eh     change       -0.3150549E-03 Eh
 * total energy  :  -154.3502405 Eh     change       -0.1450430E-03 Eh
 * total energy  :  -154.3503006 Eh     change       -0.6011141E-04 Eh
 * total energy  :  -154.3503763 Eh     change       -0.7564769E-04 Eh
 * total energy  :  -154.3504265 Eh     change       -0.5024066E-04 Eh
 * total energy  :  -154.3504637 Eh     change       -0.3720595E-04 Eh
 * total energy  :  -154.3505101 Eh     change       -0.4644046E-04 Eh
 * total energy  :  -154.3505391 Eh     change       -0.2898690E-04 Eh
 * total energy  :  -154.3505845 Eh     change       -0.4540530E-04 Eh
 * total energy  :  -154.3523250 Eh     change       -0.2281103E-06 Eh
 * total energy  :  -154.3523253 Eh     change       -0.3608484E-06 Eh
 * total energy  :  -154.3523257 Eh     change       -0.3483790E-06 Eh
 * total energy  :  -154.3523257 Eh     change       -0.7846717E-07 Eh
 * total energy  :  -154.3523260 Eh     change       -0.2312920E-06 Eh
 * total energy  :  -154.3523261 Eh     change       -0.1354995E-06 Eh
 * total energy  :  -154.3523265 Eh     change       -0.3583471E-06 Eh
 * total energy  :  -154.3523267 Eh     change       -0.1892158E-06 Eh
 * total energy  :  -154.3523267 Eh     change       -0.7688800E-07 Eh
   *** GEOMETRY OPTIMIZATION CONVERGED AFTER 81 ITERATIONS ***

 final structure:
================
101
 xtb: 6.7.1 (edcfbbe)
C            5.06442840068529       -4.59755871133731        0.26666980489560
C            4.76853441246832       -3.14717594600926        0.69303633881073
C            5.99512417133352       -2.53034723989981        1.39104055020258
C            4.45799684687123       -2.33551906000998       -0.54788929140992
C            5.39876396329604       -2.25790914596661       -1.56772687157922
C            5.15216486730222       -1.57987981431275       -2.74602719428266
C            3.91901034995967       -0.98465800356250       -2.93858482864904
C            2.97091388394690       -1.04218473140656       -1.93880448539195
C            3.24068226410573       -1.67644598440265       -0.72448893898234
N            2.26068378079673       -1.69928245355711        0.27293832787190
C            1.13419378461438       -0.88374310247592        0.12335550351277
C           -0.14573104693667       -1.42839682053060        0.02016060753500
F           -0.27892341537637       -2.76935884986414        0.03247728691143
C           -1.29342063212504       -0.64460316115016       -0.09362012484430
N           -2.55985585501612       -1.22528267564064       -0.22324020121166
C           -2.88632523686325       -1.92412335583123       -1.39125709873728
C           -1.92991496456465       -2.10118377883834       -2.39273540174896
C           -2.22609223773955       -2.79292519684330       -3.54910395622727
C           -3.49579447070896       -3.30783394957325       -3.73276722136636
C           -4.45678502986586       -3.09299790841581       -2.76347984930153
C           -4.18480220121030       -2.40047115690266       -1.58966817456127
C           -5.30946671142543       -2.15027630371345       -0.60409233216466
C           -5.88566184023780       -3.50518370464905       -0.15106056997638
C           -6.39378679600385       -1.31140913099357       -1.30612350608252
C           -4.83223937405856       -1.39788329601272        0.62118648332574
C           -5.72939373252793       -1.11709720544458        1.64452476642746
C           -5.34164742551161       -0.48256603076763        2.80907753442813
C           -4.01225046429084       -0.14548284612750        2.98553839487524
C           -3.10371757496479       -0.40831629761087        1.98196710663666
C           -3.50602338731067       -0.99380703387668        0.77990961033010
C           -1.13945899326224        0.75658698268611       -0.10249620117527
C           -2.27207153301430        1.58389871719165       -0.26195351303963
N           -3.18108517138043        2.26334721803006       -0.42520516988713
C            0.12965961123425        1.34245546989307       -0.00957024086087
N            0.27257889269104        2.74046455702955       -0.02851644395688
C            0.81285285947087        3.34943817118804       -1.16268746895073
C            1.08950680877025        2.58047718208068       -2.29419776204290
C            1.64077349531178        3.14851005896230       -3.42391426714039
C            1.91118911499986        4.50399110453351       -3.44513833085028
C            1.59336855245613        5.27406028422142       -2.34234081414886
C            1.03354253731618        4.72753607592629       -1.19442750302588
C            0.65748931572870        5.63789276908947       -0.04215974246279
C           -0.36983485917335        6.66724489806613       -0.54910822818572
C            1.92853265182952        6.34654354222074        0.46230671126057
C            0.04795508250121        4.86851346556973        1.11336944041407
C           -0.35338248093214        5.55454014299690        2.25270837537050
C           -0.86719708660354        4.90653456057314        3.36007981923852
C           -0.96160788211021        3.52745629949583        3.35259277971254
C           -0.57264207597494        2.82274816076031        2.23229108155820
C           -0.09742097901752        3.47990148327115        1.09649259164327
C            1.25838927314305        0.51991988655156        0.10198884182495
C            2.53123347119905        1.11177698252896        0.25129026696784
N            3.55536516742923        1.60262297848587        0.40875963658312
C            2.43471368088943       -2.42949935677639        1.45449585270293
C            1.45704115685413       -2.39444539089982        2.45044562373001
C            1.60183381780426       -3.11270277866018        3.61941310984862
C            2.74168257486330       -3.86815995702263        3.82198384443827
C            3.73204841372225       -3.86508133373604        2.85850351188043
C            3.61108375699979       -3.15114203377148        1.67227888289615
H            4.18761080004221       -5.02823036971922       -0.21402586054702
H            5.31990482392486       -5.20888434989705        1.12683986495544
H            5.89309593324196       -4.63466007066935       -0.43386436784082
H            5.78389277683856       -1.49913691675594        1.66955640598335
H            6.85672276851635       -2.53684989002520        0.72989471972784
H            6.24905060500723       -3.08463082208221        2.28979411588990
H            6.35452102375581       -2.74146475834177       -1.44142591637693
H            5.90850663355246       -1.53243005305575       -3.51396226041537
H            3.68794873024104       -0.48184542575842       -3.86510262857170
H            2.00312186633432       -0.59509535726195       -2.11223073731372
H           -0.93861236279505       -1.68839022043647       -2.28058027018955
H           -1.46319935984129       -2.92045635225163       -4.30226661269816
H           -3.74116519599562       -3.85543503449453       -4.62950287943880
H           -5.45180754113595       -3.47350087054023       -2.93196972531302
H           -5.10866173812649       -4.09500631287868        0.33239386506450
H           -6.26562111290360       -4.06675756808575       -0.99912579291998
H           -6.69889435575657       -3.36429761344352        0.55440671916658
H           -5.97981196114964       -0.35179797047572       -1.61181617174251
H           -6.76787454429815       -1.82189249064283       -2.18870467398301
H           -7.22896561544547       -1.12645725819684       -0.63701083746237
H           -6.76381943046347       -1.40085317706626        1.53182556389758
H           -6.06642516083432       -0.27159626409339        3.57993072660025
H           -3.67693275897820        0.31535208541050        3.90201064399250
H           -2.06385211702072       -0.16403503188735        2.14290251403943
H            0.86022289904008        1.52498711427128       -2.29812521054308
H            1.84840792204535        2.53164114869547       -4.28498651879580
H            2.35012231737211        4.96102712407372       -4.31838320759461
H            1.78602593558330        6.33460320788114       -2.38177434692943
H           -1.26822242400999        6.15540348036699       -0.89048281185330
H           -0.64735764262255        7.35709632313597        0.24221548624428
H            0.03420211099971        7.24273531252778       -1.37661703244086
H            2.38425633540480        6.93148471509417       -0.33113008241106
H            1.69841495978171        7.01244225977958        1.28871016221613
H            2.65198023634167        5.60816020163019        0.80459652845220
H           -0.25946135788149        6.62865367489981        2.28218394840547
H           -1.17386307147493        5.47197758341957        4.22631285885555
H           -1.32915830950686        2.99547925438818        4.21684892332532
H           -0.62916611186532        1.74454171672181        2.24848078781615
H            0.57004737433848       -1.79196342891247        2.32452342815159
H            0.82478746147212       -3.07220187108635        4.36778311865506
H            2.86710519509855       -4.43927362472035        4.72877187302733
H            4.63038136623836       -4.43305818937226        3.04204711801958

          :  Hamiltonian                  GFN2-xTB          :
         :: gradient norm              0.000046331032 Eh/a0 ::
         :: HOMO-LUMO gap              1.224854368239 eV    ::
         :: SCC energy              -157.102279266180 Eh    ::
         :: -> dispersion             -0.159200398905 Eh    ::
         :: -> Gsolv                  -0.060644165167 Eh    ::
         :: repulsion energy           2.749952517087 Eh    ::

    * Orbital Energies and Occupations

         #    Occupation            Energy/Eh            Energy/eV
      -------------------------------------------------------------
         1        2.0000           -0.8547897             -23.2600
       ...           ...                  ...                  ...
       131        2.0000           -0.4178954             -11.3715
       132        2.0000           -0.4177498             -11.3676
       133        2.0000           -0.4176962             -11.3661
       134        2.0000           -0.4157290             -11.3126
       135        2.0000           -0.4107970             -11.1784
       136        2.0000           -0.4107888             -11.1781
       137        2.0000           -0.4090317             -11.1303
       138        2.0000           -0.4053331             -11.0297
       139        2.0000           -0.4053128             -11.0291
       140        2.0000           -0.4035654             -10.9816
       141        2.0000           -0.3692931             -10.0490
       142        2.0000           -0.3670647              -9.9883
       143        2.0000           -0.3636001              -9.8941 (HOMO)
       144                         -0.3185877              -8.6692 (LUMO)
       145                         -0.3020619              -8.2195
       146                         -0.2446987              -6.6586
       147                         -0.2395385              -6.5182
       148                         -0.2384167              -6.4876
       149                         -0.2377786              -6.4703
       150                         -0.2357245              -6.4144
       151                         -0.2342031              -6.3730
       152                         -0.2326639              -6.3311
       153                         -0.2321497              -6.3171
       154                         -0.2318945              -6.3102
       ...                                ...                  ...
       278                          1.1404325              31.0327
      -------------------------------------------------------------
                  HL-Gap            0.0450124 Eh            1.2249 eV

     #   Z          covCN         q      C6AA      α(0)
     1   6 C        3.761    -0.108    22.608     6.778
     2   6 C        3.909     0.022    20.147     6.380
     3   6 C        3.761    -0.107    22.596     6.776
     4   6 C        2.980    -0.007    28.198     8.710
     5   6 C        2.929    -0.034    28.848     8.808
     6   6 C        2.918    -0.039    28.969     8.826
     7   6 C        2.920    -0.032    28.793     8.799
     8   6 C        2.925    -0.054    29.350     8.884
     9   6 C        2.929     0.057    26.727     8.478
    10   7 N        2.752    -0.070    22.594     7.060
    11   6 C        2.926     0.068    26.487     8.440
    12   6 C        2.783     0.138    24.967     8.184
    13   9 F        0.787    -0.209    11.330     3.976
    14   6 C        2.926     0.068    26.487     8.440
    15   7 N        2.752    -0.070    22.602     7.061
    16   6 C        2.925     0.059    26.679     8.471
    17   6 C        2.924    -0.053    29.317     8.879
    18   6 C        2.920    -0.032    28.809     8.802
    19   6 C        2.917    -0.040    28.991     8.829
    20   6 C        2.929    -0.035    28.861     8.810
    21   6 C        2.979    -0.008    28.218     8.714
    22   6 C        3.909     0.022    20.147     6.380
    23   6 C        3.761    -0.108    22.607     6.778
    24   6 C        3.761    -0.107    22.595     6.776
    25   6 C        2.980    -0.007    28.199     8.711
    26   6 C        2.929    -0.034    28.848     8.808
    27   6 C        2.918    -0.039    28.971     8.826
    28   6 C        2.920    -0.032    28.794     8.799
    29   6 C        2.925    -0.054    29.348     8.884
    30   6 C        2.929     0.057    26.726     8.478
    31   6 C        2.976    -0.015    28.383     8.739
    32   6 C        1.912     0.134    27.829     8.520
    33   7 N        0.911    -0.244    26.353     7.425
    34   6 C        2.937     0.086    26.078     8.375
    35   7 N        2.753    -0.088    22.954     7.116
    36   6 C        2.928     0.057    26.712     8.476
    37   6 C        2.925    -0.057    29.418     8.895
    38   6 C        2.920    -0.033    28.812     8.802
    39   6 C        2.918    -0.041    29.020     8.834
    40   6 C        2.929    -0.035    28.862     8.810
    41   6 C        2.980    -0.009    28.240     8.717
    42   6 C        3.909     0.021    20.156     6.381
    43   6 C        3.761    -0.108    22.604     6.778
    44   6 C        3.761    -0.107    22.599     6.777
    45   6 C        2.980    -0.009    28.244     8.718
    46   6 C        2.929    -0.035    28.864     8.811
    47   6 C        2.918    -0.041    29.023     8.834
    48   6 C        2.920    -0.033    28.811     8.802
    49   6 C        2.925    -0.057    29.423     8.895
    50   6 C        2.927     0.057    26.711     8.476
    51   6 C        2.976    -0.015    28.386     8.739
    52   6 C        1.912     0.134    27.829     8.520
    53   7 N        0.911    -0.244    26.364     7.426
    54   6 C        2.925     0.059    26.680     8.471
    55   6 C        2.924    -0.053    29.315     8.879
    56   6 C        2.920    -0.032    28.808     8.802
    57   6 C        2.917    -0.040    28.989     8.829
    58   6 C        2.929    -0.035    28.861     8.810
    59   6 C        2.980    -0.008    28.216     8.713
    60   1 H        0.925     0.034     2.534     2.489
    61   1 H        0.925     0.050     2.323     2.384
    62   1 H        0.925     0.049     2.328     2.386
    63   1 H        0.925     0.033     2.551     2.498
    64   1 H        0.925     0.050     2.322     2.383
    65   1 H        0.925     0.049     2.328     2.386
    66   1 H        0.926     0.049     2.336     2.390
    67   1 H        0.926     0.042     2.428     2.437
    68   1 H        0.926     0.037     2.494     2.469
    69   1 H        0.926     0.007     2.944     2.683
    70   1 H        0.926     0.010     2.884     2.656
    71   1 H        0.926     0.036     2.507     2.476
    72   1 H        0.926     0.040     2.451     2.448
    73   1 H        0.926     0.048     2.350     2.397
    74   1 H        0.925     0.034     2.534     2.490
    75   1 H        0.925     0.050     2.324     2.384
    76   1 H        0.925     0.049     2.328     2.386
    77   1 H        0.925     0.033     2.551     2.498
    78   1 H        0.925     0.049     2.328     2.386
    79   1 H        0.925     0.050     2.323     2.383
    80   1 H        0.926     0.049     2.337     2.391
    81   1 H        0.926     0.041     2.430     2.438
    82   1 H        0.926     0.037     2.495     2.470
    83   1 H        0.926     0.006     2.954     2.688
    84   1 H        0.926     0.004     2.993     2.705
    85   1 H        0.926     0.035     2.511     2.478
    86   1 H        0.926     0.040     2.445     2.445
    87   1 H        0.926     0.048     2.351     2.398
    88   1 H        0.925     0.033     2.546     2.495
    89   1 H        0.925     0.050     2.326     2.385
    90   1 H        0.925     0.049     2.330     2.387
    91   1 H        0.925     0.049     2.326     2.385
    92   1 H        0.925     0.049     2.331     2.387
    93   1 H        0.925     0.033     2.549     2.497
    94   1 H        0.926     0.047     2.352     2.398
    95   1 H        0.926     0.040     2.447     2.446
    96   1 H        0.926     0.035     2.512     2.478
    97   1 H        0.926     0.004     2.986     2.702
    98   1 H        0.926     0.010     2.883     2.655
    99   1 H        0.926     0.036     2.506     2.475
   100   1 H        0.926     0.040     2.449     2.447
   101   1 H        0.926     0.048     2.349     2.397

molecular dipole:
                 x           y           z       tot (Debye)
 q only:       -0.006      -0.497       0.012
   full:       -0.050      -0.921       0.014       2.345

 projected vibrational frequencies (cm⁻¹)
eigval :       -0.00    -0.00    -0.00    -0.00     0.00     0.00
eigval :       12.25    13.70    16.30    19.76    21.42    27.67
eigval :       30.02    43.00    46.87    47.92    50.66    59.52
eigval :       81.21    89.30    94.80   100.59   102.52   105.40
eigval :      109.88   111.91   115.76   125.78   130.08   139.51
eigval :      140.68   143.27   147.83   153.48   153.74   183.95
eigval :      200.00   204.00   205.18   212.15   219.21   223.27
eigval :      223.80   228.02   237.23   238.37   239.63   267.26
eigval :      269.37   303.76   305.75   306.75   310.39   317.95
eigval :      318.50   331.71   332.47   333.98   344.63   347.26
eigval :      348.80   351.97   356.25   362.24   374.96   377.37
eigval :      380.44   383.47   407.74   408.14   411.29   430.46
eigval :      448.04   451.14   453.88   480.40   482.29   485.32
eigval :      486.40   493.38   504.44   508.96   512.72   514.39
eigval :      515.47   527.27   534.47   547.01   548.18   548.82
eigval :      550.79   553.01   567.89   575.86   585.97   587.97
eigval :      589.50   600.63   606.61   646.08   648.78   658.69
eigval :      668.49   671.02   681.09   683.18   684.11   692.28
eigval :      692.94   695.25   695.42   708.01   722.45   751.78
eigval :      754.90   770.93   772.41   773.69   776.12   778.80
eigval :      780.00   825.33   825.55   826.15   862.74   865.08
eigval :      865.34   867.80   870.24   872.83   874.42   905.69
eigval :      907.79   907.93   909.19   910.94   913.15   913.48
eigval :      914.19   914.52   918.50   920.24   920.53   922.10
eigval :      922.22   922.80   938.26   938.83   939.83   949.08
eigval :      958.95   959.55   961.80   965.85  1014.72  1015.09
eigval :     1016.26  1061.91  1062.30  1075.77  1075.89  1076.68
eigval :     1082.35  1113.42  1114.46  1116.27  1118.01  1119.04
eigval :     1119.78  1137.19  1139.42  1140.22  1140.62  1141.36
eigval :     1158.94  1158.99  1160.34  1175.25  1178.70  1179.59
eigval :     1181.28  1181.64  1187.24  1187.53  1188.55  1189.42
eigval :     1204.18  1234.26  1234.44  1244.98  1245.11  1248.29
eigval :     1251.97  1261.40  1262.00  1269.55  1275.24  1276.48
eigval :     1284.69  1285.03  1292.51  1292.61  1293.36  1315.33
eigval :     1317.03  1322.83  1324.64  1325.01  1327.06  1330.72
eigval :     1330.92  1331.74  1380.46  1399.91  1400.21  1401.02
eigval :     1405.67  1413.30  1418.61  1418.77  1419.55  1432.69
eigval :     1432.86  1433.95  1434.05  1435.64  1436.23  1472.66
eigval :     1474.15  1476.71  1478.21  1483.12  1484.19  1485.42
eigval :     1485.66  1486.00  1486.05  1487.55  1490.44  1493.97
eigval :     1495.01  1495.59  1496.56  1497.26  1501.10  1501.33
eigval :     1502.43  1577.01  1577.06  1578.17  1590.88  1590.95
eigval :     1591.40  1591.60  1592.36  1592.71  1599.48  1599.76
eigval :     1600.98  2358.90  2361.92  3023.23  3023.97  3024.20
eigval :     3026.02  3026.15  3026.29  3046.24  3046.59  3046.71
eigval :     3048.58  3049.53  3049.56  3053.70  3053.87  3054.23
eigval :     3058.35  3059.48  3059.60  3072.18  3073.45  3075.49
eigval :     3077.68  3078.14  3078.45  3084.97  3086.29  3086.46
eigval :     3086.76  3087.03  3087.35  3092.86  3093.40  3093.58
eigval :     3093.86  3094.60  3095.14  3102.87  3103.44  3103.49
eigval :     3103.92  3104.47  3104.63

   temp. (K)  partition function   enthalpy   heat capacity  entropy
                                   cal/mol     cal/K/mol   cal/K/mol   J/K/mol
 298.15  VIB  0.123E+24            30694.222    190.242    189.843
         ROT  0.100E+09              888.752      2.981     39.594
         INT  0.124E+32            31582.974    193.223    229.437
         TR   0.206E+29             1481.254      4.968     45.774
         TOT                       33064.2279   198.1915   275.2106  1151.4810

       T/K    H(0)-H(T)+PV         H(T)/Eh          T*S/Eh         G(T)/Eh
   ------------------------------------------------------------------------
    298.15    0.526912E-01    0.842661E+00    0.130761E+00    0.711899E+00
   ------------------------------------------------------------------------

         :::::::::::::::::::::::::::::::::::::::::::::::::::::
         ::                  THERMODYNAMIC                  ::
         :::::::::::::::::::::::::::::::::::::::::::::::::::::
         :: total free energy        -153.640427397370 Eh   ::
         ::.................................................::
         :: total energy             -154.352326749353 Eh   ::
         :: zero point energy           0.789969565224 Eh   ::
         :: G(RRHO) w/o ZPVE           -0.078070213240 Eh   ::
         :: G(RRHO) contrib.            0.711899351984 Eh   ::
         :::::::::::::::::::::::::::::::::::::::::::::::::::::

           -------------------------------------------------
          | TOTAL ENERGY             -154.352326749353 Eh   |
          | TOTAL ENTHALPY           -153.509665983098 Eh   |
          | TOTAL FREE ENERGY        -153.640427397370 Eh   |
          | GRADIENT NORM               0.000046161163 Eh/α |
          | HOMO-LUMO GAP               1.224850778720 eV   |
           -------------------------------------------------

 * finished run on 2025/09/10 at 17:24:43.003
