   * xtb version 6.7.1 (edcfbbe) compiled by 'albert@albert-system' on 2024-07-22

   ID    Z sym.   atoms
    1    6 C      1-9, 11, 12, 14, 16-32, 34, 36-52, 54-59
    2    7 N      10, 15, 33, 35, 53
    3    9 F      13
    4    1 H      60-101

          program call               : xtb data2507/toluene/3DMACIPN/3DMACIPN_toluene_T1_crest.xyz --gfn 2 --uhf 2 --gbsa toluene --ohess vtight --parallel 40 --molden --ceasefiles --namespace data2507/toluene/3DMACIPN/3DMACIPN_toluene_T1_finalOpt
      * Solvation model:               GBSA
        Solvent                        toluene
        Solvent mass                       9.2140E+01 g/mol
          :  Hamiltonian                  GFN2-xTB          :
 * total energy  :  -154.2951924 Eh     change       -0.1943457E-07 Eh
 * total energy  :  -154.2955879 Eh     change       -0.3955111E-03 Eh
 * total energy  :  -154.2957407 Eh     change       -0.1527490E-03 Eh
 * total energy  :  -154.2957866 Eh     change       -0.4598093E-04 Eh
 * total energy  :  -154.2958307 Eh     change       -0.4407828E-04 Eh
 * total energy  :  -154.2958528 Eh     change       -0.2204462E-04 Eh
 * total energy  :  -154.2958699 Eh     change       -0.1712124E-04 Eh
 * total energy  :  -154.2958871 Eh     change       -0.1719327E-04 Eh
 * total energy  :  -154.2959063 Eh     change       -0.1922853E-04 Eh
 * total energy  :  -154.2959215 Eh     change       -0.1521043E-04 Eh
 * total energy  :  -154.2961932 Eh     change       -0.1352087E-05 Eh
 * total energy  :  -154.2961942 Eh     change       -0.1064021E-05 Eh
 * total energy  :  -154.2961952 Eh     change       -0.9719248E-06 Eh
 * total energy  :  -154.2961960 Eh     change       -0.8316906E-06 Eh
 * total energy  :  -154.2961969 Eh     change       -0.8375305E-06 Eh
 * total energy  :  -154.2961973 Eh     change       -0.4643632E-06 Eh
 * total energy  :  -154.2961977 Eh     change       -0.3149757E-06 Eh
 * total energy  :  -154.2961979 Eh     change       -0.2923932E-06 Eh
 * total energy  :  -154.2961980 Eh     change       -0.4405385E-07 Eh
   *** GEOMETRY OPTIMIZATION CONVERGED AFTER 68 ITERATIONS ***

 final structure:
================
101
 xtb: 6.7.1 (edcfbbe)
C            5.37035511359320       -4.20124220870114       -0.00620766236746
C            5.12612311551548       -2.67943830518191        0.01723910493088
C            6.46829632575624       -1.92202229841148        0.04557747659582
C            4.37948766213141       -2.28744588793070       -1.23980907244303
C            4.94796808766036       -2.52870236166395       -2.48341676525366
C            4.31034269498044       -2.18472688567854       -3.66123016291125
C            3.06525019992978       -1.57774522774053       -3.61222136050836
C            2.47764400110555       -1.32714344656685       -2.39301289488643
C            3.11833027800590       -1.67665570389099       -1.19754984658887
N            2.49444534265950       -1.41837451588323        0.00873774574523
C            1.24113937689005       -0.75882311193190        0.00583954633444
C            0.04424794193211       -1.45348627945451       -0.02829813983379
F            0.08683201096297       -2.81134281508912       -0.05552054882784
C           -1.19317348913836       -0.83330114870499       -0.03716182340901
N           -2.40635083278188       -1.56351226738264       -0.06969167821801
C           -2.97245290996528       -1.86937420269889       -1.29328660887864
C           -2.29314051458544       -1.53021806752194       -2.47025710863958
C           -2.82332479737353       -1.82580190217541       -3.70560969506151
C           -4.04912221698080       -2.46725140482601       -3.78984425884570
C           -4.72462607293670       -2.80160844924021       -2.63052260546066
C           -4.21336447057872       -2.51718835737882       -1.37125871486439
C           -5.00006772091789       -2.90041873417765       -0.13613302480300
C           -5.21384078687695       -4.42705721616349       -0.13890176941466
C           -6.35729660282292       -2.17055486702336       -0.17329348201554
C           -4.28023786797143       -2.51240621869461        1.13762830169794
C           -4.85806815738691       -2.79137216272329        2.36899226116073
C           -4.24416818566888       -2.45413370091653        3.56128205764451
C           -3.01304781615326       -1.81775167603351        3.53988573431300
C           -2.41736586730867       -1.52808685440635        2.33329347103486
C           -3.03596025165488       -1.86671278777237        1.12317421126067
C           -1.23772287685448        0.61539871155553       -0.01072536811789
C           -2.45906272505441        1.27900557285155       -0.02013158798994
N           -3.47690562826134        1.82875587918892       -0.02769849265963
C           -0.04146694921276        1.32796410861002        0.02518509552043
N           -0.08332487654260        2.74865872330243        0.04973932658150
C           -0.05387436495128        3.43562777516093       -1.14823785210205
C           -0.00164111888533        2.72253126056331       -2.35177520852433
C            0.03000177787657        3.37870619691492       -3.56181929164012
C            0.00938045562568        4.76397087937455       -3.59175000858449
C           -0.04383928086038        5.47098737108554       -2.40463195784380
C           -0.07730207895897        4.83642209850521       -1.17014642502931
C           -0.13439479050014        5.66002666458300        0.09888084989892
C           -1.40774826359788        6.52777167591233        0.06575208048743
C            1.12172105535679        6.55130755619187        0.16191010839445
C           -0.17211042574970        4.79233429395004        1.33895904376548
C           -0.23295916353747        5.38304789592530        2.59398989637756
C           -0.26526049669498        4.63473352249328        3.75624968692204
C           -0.23430191841627        3.25145018080556        3.67963707764285
C           -0.17384552043840        2.63823275933357        2.44834448634134
C           -0.14324498854302        3.39318967029991        1.26992576221786
C            1.19657865344484        0.68965940003395        0.03602519545827
C            2.37344439034237        1.42845673839144        0.07426980736128
N            3.35178108447217        2.04500093218922        0.10593016984129
C            3.08968644824051       -1.72038467841042        1.21923526315830
C            2.41941892536137       -1.41569844480242        2.41069262956721
C            2.97830446105648       -1.70938404084588        3.63381096575425
C            4.22336575598893       -2.31573254938537        3.69077141049911
C            4.88948275260962       -2.61679037624595        2.51697350573237
C            4.35032933876721       -2.33160434323951        1.26960313674422
H            4.41813187831226       -4.72873296675007       -0.02526364537720
H            5.92114656412531       -4.51577688750189        0.87506636740081
H            5.93994668306462       -4.48601112916310       -0.88565480677682
H            6.28615768715385       -0.84854488717155        0.05956286655489
H            7.06310984259689       -2.15932878772508       -0.83131820028281
H            7.04111625696962       -2.18595100705752        0.92946955762541
H            5.91762558184134       -2.99777437022930       -2.54035551536934
H            4.78144305291772       -2.38673632920854       -4.61072698562321
H            2.55347798347086       -1.29930053772038       -4.52095359923737
H            1.50885324779867       -0.85266005267874       -2.35363503231701
H           -1.33938947778820       -1.02909107541372       -2.40363698370389
H           -2.28199981723422       -1.55521272337315       -4.59947579315165
H           -4.47588399942030       -2.70362029167697       -4.75228201913384
H           -5.67884373438898       -3.29739490424189       -2.71502803156020
H           -4.25178018493880       -4.93594247282478       -0.11215602945639
H           -5.74439275583827       -4.73941846149000       -1.03320413590832
H           -5.79168695516460       -4.73602828845523        0.72682083041001
H           -6.19833912625361       -1.09339987225183       -0.16775764506186
H           -6.91106237206244       -2.43244186274440       -1.06989995487559
H           -6.95972748745281       -2.43404922109208        0.69088656390251
H           -5.81646075885577       -3.28506913620300        2.40444002368039
H           -4.72220612201831       -2.68531071857224        4.50061283031711
H           -2.51841859421269       -1.54674350669204        4.46028756600203
H           -1.45859103404626       -1.03247088958594        2.31566880399517
H            0.01289822904696        1.64356043845145       -2.33017626428060
H            0.07022013091033        2.80983864745321       -4.47823955319953
H            0.03443846251058        5.28938644367761       -4.53382539536608
H           -0.05894084808881        6.54866771256494       -2.44626515941332
H           -2.28856838578691        5.88923117539005        0.02103692495143
H           -1.47519784256105        7.14652116287016        0.95534636723610
H           -1.40835949784640        7.17762720755752       -0.80401791897127
H            1.17481920455269        7.20275291633469       -0.70514261835958
H            1.11099971058980        7.16861820289472        1.05509605285330
H            2.01535886805810        5.92942384415427        0.18221146969298
H           -0.25564889835955        6.45856041512836        2.67217155256214
H           -0.31305564033521        5.12672196955627        4.71531777740761
H           -0.25751674352879        2.65092923634473        4.57622992725153
H           -0.15000127288869        1.56080446777437        2.38988674772681
H            1.45046128274246       -0.94211817083866        2.36530796478893
H            2.44416421986984       -1.46491702444123        4.53945408387290
H            4.67212397093223       -2.55113638224404        4.64339072808944
H            5.85816157399783       -3.08707130378897        2.58041089524068

          :  Hamiltonian                  GFN2-xTB          :
         :: gradient norm              0.000168506377 Eh/a0 ::
         :: HOMO-LUMO gap              0.514865658406 eV    ::
         :: SCC energy              -157.029477484364 Eh    ::
         :: -> dispersion             -0.156923028093 Eh    ::
         :: -> Gsolv                  -0.068070317186 Eh    ::
         :: repulsion energy           2.733279496569 Eh    ::

    * Orbital Energies and Occupations

         #    Occupation            Energy/Eh            Energy/eV
      -------------------------------------------------------------
         1        2.0000           -0.8305090             -22.5993
       ...           ...                  ...                  ...
       132        2.0000           -0.4179808             -11.3738
       133        2.0000           -0.4163876             -11.3305
       134        2.0000           -0.4135493             -11.2532
       135        2.0000           -0.4134721             -11.2511
       136        2.0000           -0.4134440             -11.2504
       137        2.0000           -0.4079834             -11.1018
       138        2.0000           -0.4077032             -11.0942
       139        2.0000           -0.4076581             -11.0929
       140        2.0000           -0.4076275             -11.0921
       141        1.9490           -0.3665599              -9.9746
       142        1.8954           -0.3658215              -9.9545
       143        1.1555           -0.3621742              -9.8553
       144        1.0000           -0.2889408              -7.8625 (HOMO)
       145        0.0000           -0.2700200              -7.3476 (LUMO)
       146                         -0.2411343              -6.5616
       147                         -0.2411170              -6.5611
       148                         -0.2410864              -6.5603
       149                         -0.2343006              -6.3756
       150                         -0.2342741              -6.3749
       151                         -0.2341992              -6.3729
       152                         -0.2336933              -6.3591
       153                         -0.2335907              -6.3563
       154                         -0.2335489              -6.3552
       155                         -0.2127095              -5.7881
       ...                                ...                  ...
       278                          1.1558332              31.4518
      -------------------------------------------------------------
                  HL-Gap            0.0189208 Eh            0.5149 eV

     #   Z          covCN         q      C6AA      α(0)
     1   6 C        3.761    -0.107    22.596     6.776
     2   6 C        3.909     0.024    20.120     6.376
     3   6 C        3.761    -0.107    22.588     6.775
     4   6 C        2.979    -0.004    28.122     8.699
     5   6 C        2.926    -0.034    28.843     8.807
     6   6 C        2.918    -0.034    28.858     8.809
     7   6 C        2.918    -0.030    28.748     8.792
     8   6 C        2.924    -0.047    29.179     8.858
     9   6 C        2.930     0.064    26.557     8.451
    10   7 N        2.753    -0.037    21.964     6.961
    11   6 C        2.924     0.001    28.015     8.680
    12   6 C        2.770     0.140    24.934     8.178
    13   9 F        0.787    -0.246    11.717     4.043
    14   6 C        2.924     0.001    28.014     8.680
    15   7 N        2.753    -0.038    21.967     6.961
    16   6 C        2.930     0.064    26.556     8.451
    17   6 C        2.924    -0.048    29.180     8.859
    18   6 C        2.918    -0.030    28.749     8.792
    19   6 C        2.918    -0.034    28.857     8.809
    20   6 C        2.926    -0.034    28.843     8.807
    21   6 C        2.979    -0.004    28.121     8.699
    22   6 C        3.909     0.024    20.120     6.376
    23   6 C        3.761    -0.107    22.599     6.777
    24   6 C        3.761    -0.107    22.585     6.775
    25   6 C        2.979    -0.004    28.120     8.698
    26   6 C        2.926    -0.034    28.843     8.807
    27   6 C        2.918    -0.034    28.856     8.809
    28   6 C        2.918    -0.030    28.748     8.792
    29   6 C        2.924    -0.048    29.181     8.859
    30   6 C        2.931     0.064    26.557     8.451
    31   6 C        2.967    -0.041    29.014     8.835
    32   6 C        1.911     0.111    28.349     8.599
    33   7 N        0.911    -0.339    28.719     7.751
    34   6 C        2.940     0.073    26.376     8.423
    35   7 N        2.757    -0.056    22.315     7.016
    36   6 C        2.930     0.065    26.542     8.449
    37   6 C        2.924    -0.050    29.233     8.867
    38   6 C        2.918    -0.030    28.744     8.792
    39   6 C        2.918    -0.035    28.865     8.810
    40   6 C        2.927    -0.034    28.839     8.807
    41   6 C        2.979    -0.004    28.123     8.699
    42   6 C        3.909     0.023    20.126     6.377
    43   6 C        3.761    -0.108    22.607     6.778
    44   6 C        3.761    -0.108    22.601     6.777
    45   6 C        2.979    -0.004    28.123     8.699
    46   6 C        2.927    -0.034    28.839     8.807
    47   6 C        2.918    -0.035    28.865     8.810
    48   6 C        2.918    -0.030    28.743     8.792
    49   6 C        2.924    -0.050    29.231     8.866
    50   6 C        2.930     0.065    26.541     8.449
    51   6 C        2.967    -0.041    29.012     8.835
    52   6 C        1.911     0.111    28.350     8.599
    53   7 N        0.911    -0.339    28.718     7.751
    54   6 C        2.930     0.065    26.555     8.451
    55   6 C        2.924    -0.048    29.181     8.859
    56   6 C        2.918    -0.030    28.748     8.792
    57   6 C        2.918    -0.034    28.857     8.809
    58   6 C        2.926    -0.034    28.843     8.807
    59   6 C        2.979    -0.004    28.122     8.699
    60   1 H        0.925     0.035     2.510     2.478
    61   1 H        0.925     0.052     2.295     2.369
    62   1 H        0.925     0.052     2.295     2.369
    63   1 H        0.925     0.035     2.523     2.484
    64   1 H        0.925     0.052     2.296     2.370
    65   1 H        0.925     0.052     2.297     2.370
    66   1 H        0.926     0.050     2.316     2.380
    67   1 H        0.926     0.045     2.387     2.416
    68   1 H        0.926     0.041     2.442     2.444
    69   1 H        0.926     0.021     2.714     2.576
    70   1 H        0.926     0.022     2.707     2.573
    71   1 H        0.926     0.041     2.441     2.443
    72   1 H        0.926     0.045     2.387     2.416
    73   1 H        0.926     0.050     2.316     2.380
    74   1 H        0.925     0.036     2.509     2.477
    75   1 H        0.925     0.052     2.294     2.368
    76   1 H        0.925     0.052     2.294     2.369
    77   1 H        0.925     0.035     2.522     2.484
    78   1 H        0.925     0.052     2.297     2.370
    79   1 H        0.925     0.052     2.297     2.370
    80   1 H        0.926     0.050     2.315     2.380
    81   1 H        0.926     0.045     2.386     2.416
    82   1 H        0.926     0.041     2.441     2.443
    83   1 H        0.926     0.021     2.711     2.575
    84   1 H        0.926     0.019     2.749     2.593
    85   1 H        0.926     0.042     2.419     2.432
    86   1 H        0.926     0.047     2.360     2.402
    87   1 H        0.926     0.052     2.290     2.366
    88   1 H        0.925     0.035     2.514     2.479
    89   1 H        0.925     0.053     2.281     2.362
    90   1 H        0.925     0.053     2.281     2.362
    91   1 H        0.925     0.053     2.282     2.362
    92   1 H        0.925     0.053     2.282     2.362
    93   1 H        0.925     0.035     2.516     2.480
    94   1 H        0.926     0.052     2.290     2.366
    95   1 H        0.926     0.047     2.360     2.402
    96   1 H        0.926     0.042     2.419     2.432
    97   1 H        0.926     0.019     2.750     2.593
    98   1 H        0.926     0.022     2.709     2.574
    99   1 H        0.926     0.041     2.442     2.444
   100   1 H        0.926     0.045     2.387     2.416
   101   1 H        0.926     0.050     2.316     2.380

molecular dipole:
                 x           y           z       tot (Debye)
 q only:        0.023      -0.829      -0.026
   full:        0.038      -1.236      -0.033       3.145

 projected vibrational frequencies (cm⁻¹)
eigval :       -0.00    -0.00    -0.00    -0.00     0.00     0.00
eigval :        4.02     8.77    11.97    12.92    15.49    20.66
eigval :       26.38    27.58    40.87    41.76    43.53    52.71
eigval :       72.68    75.02    88.54    91.96    92.50    94.77
eigval :       96.00    96.62    99.34   118.33   120.50   122.62
eigval :      135.34   140.44   140.55   145.83   145.95   169.99
eigval :      197.43   200.17   201.24   201.70   217.31   217.85
eigval :      218.17   219.23   235.51   236.33   237.95   259.88
eigval :      266.71   302.97   304.24   308.10   311.09   322.23
eigval :      326.02   326.10   326.26   326.40   338.62   345.42
eigval :      346.47   356.64   357.19   358.72   379.80   380.09
eigval :      384.28   395.62   404.61   408.73   417.23   425.73
eigval :      446.02   448.49   449.83   456.59   469.78   484.04
eigval :      491.45   496.34   499.27   504.35   504.72   505.30
eigval :      505.71   525.96   527.55   527.75   532.91   542.03
eigval :      542.82   543.24   549.64   550.78   583.43   583.65
eigval :      586.31   599.46   607.68   608.63   614.34   647.61
eigval :      653.89   666.70   669.86   685.06   686.94   687.03
eigval :      697.76   699.30   699.90   705.78   714.18   750.63
eigval :      753.76   766.61   768.38   769.34   771.38   772.27
eigval :      773.26   824.51   824.76   825.45   857.28   858.28
eigval :      862.19   863.57   864.77   865.30   867.19   906.37
eigval :      906.84   911.21   911.37   912.00   912.86   913.43
eigval :      914.19   914.59   917.97   919.50   919.91   920.42
eigval :      921.18   921.61   936.44   937.50   939.18   944.09
eigval :      953.54   959.52   959.60   962.12  1012.79  1013.08
eigval :     1014.00  1056.85  1060.44  1074.50  1074.82  1075.09
eigval :     1082.39  1103.64  1104.43  1108.00  1110.93  1111.57
eigval :     1112.69  1124.92  1129.70  1136.46  1137.04  1138.42
eigval :     1149.30  1149.56  1151.23  1170.73  1176.43  1176.84
eigval :     1179.53  1179.85  1180.61  1181.05  1183.16  1184.26
eigval :     1204.94  1224.96  1231.76  1233.83  1238.82  1239.56
eigval :     1240.42  1244.25  1251.03  1252.04  1261.29  1273.94
eigval :     1277.08  1292.28  1292.36  1292.54  1296.17  1308.53
eigval :     1309.20  1320.37  1329.12  1329.27  1330.07  1334.80
eigval :     1335.56  1335.96  1359.72  1368.06  1397.99  1398.42
eigval :     1399.06  1415.12  1416.22  1416.84  1417.33  1420.36
eigval :     1420.77  1425.36  1428.66  1431.35  1431.77  1437.78
eigval :     1454.30  1457.20  1457.73  1459.32  1475.43  1476.12
eigval :     1480.24  1480.47  1481.58  1483.73  1483.98  1484.08
eigval :     1484.42  1490.71  1490.90  1491.44  1497.97  1498.22
eigval :     1498.66  1557.14  1557.39  1559.37  1568.80  1569.96
eigval :     1574.08  1580.25  1580.43  1580.98  1589.91  1590.66
eigval :     1593.45  2243.30  2317.02  3024.30  3024.80  3025.56
eigval :     3026.58  3027.38  3027.78  3047.92  3048.14  3048.95
eigval :     3049.87  3050.09  3050.75  3054.30  3054.55  3055.02
eigval :     3058.05  3058.32  3058.71  3081.56  3082.12  3082.16
eigval :     3082.29  3082.88  3083.26  3088.15  3088.25  3088.53
eigval :     3089.07  3089.22  3090.35  3094.69  3095.00  3095.05
eigval :     3095.19  3096.11  3096.20  3102.89  3103.15  3103.21
eigval :     3103.46  3104.11  3104.77

   temp. (K)  partition function   enthalpy   heat capacity  entropy
                                   cal/mol     cal/K/mol   cal/K/mol   J/K/mol
 298.15  VIB  0.259E+26            31222.772    190.331    196.844
         ROT  0.101E+09              888.752      2.981     39.606
         INT  0.261E+34            32111.525    193.312    236.450
         TR   0.206E+29             1481.254      4.968     45.774
         TOT                       33592.7785   198.2800   282.2240  1180.8251

       T/K    H(0)-H(T)+PV         H(T)/Eh          T*S/Eh         G(T)/Eh
   ------------------------------------------------------------------------
    298.15    0.535335E-01    0.839919E+00    0.134094E+00    0.705826E+00
   ------------------------------------------------------------------------

         :::::::::::::::::::::::::::::::::::::::::::::::::::::
         ::                  THERMODYNAMIC                  ::
         :::::::::::::::::::::::::::::::::::::::::::::::::::::
         :: total free energy        -153.590372363945 Eh   ::
         ::.................................................::
         :: total energy             -154.296197979876 Eh   ::
         :: zero point energy           0.786385836015 Eh   ::
         :: G(RRHO) w/o ZPVE           -0.080560220085 Eh   ::
         :: G(RRHO) contrib.            0.705825615930 Eh   ::
         :::::::::::::::::::::::::::::::::::::::::::::::::::::

           -------------------------------------------------
          | TOTAL ENERGY             -154.296197979876 Eh   |
          | TOTAL ENTHALPY           -153.456278643730 Eh   |
          | TOTAL FREE ENERGY        -153.590372363945 Eh   |
          | GRADIENT NORM               0.000168259231 Eh/α |
          | HOMO-LUMO GAP               0.514861570231 eV   |
           -------------------------------------------------

 * finished run on 2025/09/10 at 17:53:14.938
