   * xtb version 6.7.1 (edcfbbe) compiled by 'albert@albert-system' on 2024-07-22

   ID    Z sym.   atoms
    1    6 C      1-9, 11, 12, 14, 16-32, 34, 36-52, 54-59
    2    7 N      10, 15, 33, 35, 53
    3    9 F      13
    4    1 H      60-101

          program call               : xtb data2507/toluene/3DMACIPN/3DMACIPN_toluene_S0_finalOpt.xtbopt.xyz --gfn 2 --uhf 2 --gbsa toluene --ohess vtight --parallel 40 --molden --ceasefiles --namespace data2507/toluene/3DMACIPN/3DMACIPN_toluene_T1_preOpt
      * Solvation model:               GBSA
        Solvent                        toluene
        Solvent mass                       9.2140E+01 g/mol
          :  Hamiltonian                  GFN2-xTB          :
 * total energy  :  -154.2878200 Eh     change       -0.4038583E-08 Eh
 * total energy  :  -154.2923678 Eh     change       -0.4547773E-02 Eh
 * total energy  :  -154.2935643 Eh     change       -0.1196502E-02 Eh
 * total energy  :  -154.2937807 Eh     change       -0.2164386E-03 Eh
 * total energy  :  -154.2940067 Eh     change       -0.2260040E-03 Eh
 * total energy  :  -154.2941755 Eh     change       -0.1687988E-03 Eh
 * total energy  :  -154.2943444 Eh     change       -0.1688771E-03 Eh
 * total energy  :  -154.2944984 Eh     change       -0.1540643E-03 Eh
 * total energy  :  -154.2946145 Eh     change       -0.1160716E-03 Eh
 * total energy  :  -154.2947024 Eh     change       -0.8790439E-04 Eh
 * total energy  :  -154.2962121 Eh     change       -0.3972318E-06 Eh
 * total energy  :  -154.2962123 Eh     change       -0.2048984E-06 Eh
 * total energy  :  -154.2962127 Eh     change       -0.3140973E-06 Eh
 * total energy  :  -154.2962130 Eh     change       -0.2935371E-06 Eh
 * total energy  :  -154.2962132 Eh     change       -0.2831060E-06 Eh
 * total energy  :  -154.2962136 Eh     change       -0.3443230E-06 Eh
 * total energy  :  -154.2962139 Eh     change       -0.2921460E-06 Eh
 * total energy  :  -154.2962140 Eh     change       -0.1260808E-06 Eh
 * total energy  :  -154.2962140 Eh     change       -0.4227027E-07 Eh
   *** GEOMETRY OPTIMIZATION CONVERGED AFTER 145 ITERATIONS ***

 final structure:
================
101
 xtb: 6.7.1 (edcfbbe)
C            4.66940553740979       -4.84021489159121        1.07499622507493
C            4.64652943815890       -3.30156895464372        0.98798158149045
C            6.06315587293330       -2.73219650948135        1.20136528094468
C            4.17109715946082       -2.89664160107801       -0.39084792077274
C            4.87873958481536       -3.30727934472112       -1.51271723367899
C            4.49569836469617       -2.95210144122981       -2.79306118808026
C            3.37542715359510       -2.15647515791611       -2.97501576039763
C            2.65372895159716       -1.73665723886276       -1.88073684243557
C            3.03317746420318       -2.10043221543321       -0.58248936490931
N            2.27638267229499       -1.67266031610941        0.49246226384792
C            1.14849251323375       -0.84978716978639        0.25460915309967
C           -0.10660091877163       -1.38044647308485        0.01058532681972
F           -0.24735677467183       -2.73195231495929        0.01421701150161
C           -1.22379909648257       -0.60337575282842       -0.24083169216717
N           -2.49892608737443       -1.17094469821829       -0.47948629801067
C           -2.84819880876074       -1.52187944576959       -1.77013749187779
C           -1.92045846797859       -1.35118116114167       -2.80543542694785
C           -2.22951234963556       -1.70302093385296       -4.09977056416385
C           -3.47698812658926       -2.23480043189513       -4.38651961435590
C           -4.39930949611523       -2.39661598621253       -3.36907383574503
C           -4.11607838118123       -2.04804801702316       -2.05524088758846
C           -5.17089082686662       -2.23007475927073       -0.98496987591336
C           -5.55930398493241       -3.72015082061039       -0.91750933816672
C           -6.39719668922765       -1.37356443135468       -1.35790038418617
C           -4.67694957800345       -1.79508088394781        0.37803941211915
C           -5.51769514281358       -1.89037221311043        1.47886607524250
C           -5.11568934238846       -1.50609954583180        2.74490227952444
C           -3.83503038550269       -1.01100676196904        2.93416195202936
C           -2.97955016193886       -0.90727951338708        1.86087902351733
C           -3.38427462736001       -1.28989828591655        0.57568652124343
C           -1.07180016784237        0.83809318595051       -0.24814428704657
C           -2.16715907340465        1.65455282824846       -0.50506764861695
N           -3.07991014561115        2.33107553810828       -0.72299972951344
C            0.18210178063169        1.38755486971463        0.00998258097968
N            0.32181862441403        2.80224293826514        0.02208902420827
C            0.68611181160309        3.44768660193747       -1.14358194880361
C            0.93251260265900        2.69779660041478       -2.29966350158710
C            1.30081853965904        3.31192663103409       -3.47571735939462
C            1.42794614152935        4.69120304818278       -3.51889706049844
C            1.18047488685387        5.43489280895226       -2.37973415831536
C            0.80856924364076        4.84305547269220       -1.18015190671759
C            0.54242182850666        5.70636726636882        0.03462614831088
C           -0.61466036736602        6.67013866000422       -0.29400991617888
C            1.82308471099054        6.49652362880549        0.36791678146904
C            0.15636684317612        4.88238272939299        1.24448634057358
C           -0.12054052536068        5.51324022743199        2.44994627770994
C           -0.47221035894673        4.80561533656212        3.58462898707735
C           -0.55084843570471        3.42317941981917        3.53073757209571
C           -0.28254932519272        2.77099565689475        2.34821473930909
C            0.06659151891193        3.48500688326172        1.19583221684269
C            1.29785555392830        0.59220752937724        0.26204290271642
C            2.53764953235421        1.16719282854534        0.51725667078483
N            3.57033729047525        1.64359641223070        0.72905699392350
C            2.61640562488465       -1.98310037114233        1.79576165508235
C            1.81795892210935       -1.51298751690886        2.84610090777354
C            2.12520694842352       -1.80473438534113        4.15572397075305
C            3.24003121894213       -2.57664924892145        4.44282483144500
C            4.03022093715615       -3.04422876719418        3.40886992832344
C            3.74457764389582       -2.76562850759680        2.07902103232386
H            3.66610280183102       -5.23471436552267        0.92364224061673
H            5.02441216093602       -5.16532355907154        2.04825884188341
H            5.32263870121283       -5.25905408152992        0.31560772474636
H            6.03657954768912       -1.64508546534584        1.14394910984085
H            6.74474446872962       -3.10108004496181        0.44078534734251
H            6.44942362418260       -3.01634008901000        2.17563919360591
H            5.75697106104401       -3.92132098144142       -1.38950061546504
H            5.06918015742748       -3.28908907718367       -3.64268798066589
H            3.06430959430254       -1.86367837996580       -3.96639764611912
H            1.78235510401708       -1.11519197378820       -2.02124906231037
H           -0.95037042483974       -0.93386476154406       -2.58195670251797
H           -1.49906923737263       -1.56287248549944       -4.88206049126810
H           -3.73042091185161       -2.51681763784823       -5.39675739111095
H           -5.36766855125708       -2.80534154554836       -3.61140176023759
H           -4.68890360480941       -4.31858832530374       -0.65387786555588
H           -5.93617823349441       -4.06327512911107       -1.87619172456331
H           -6.32908043243327       -3.88316155818666       -0.16937674552384
H           -6.11452170439144       -0.32281446673003       -1.39971610028107
H           -6.78920295780076       -1.66402525010292       -2.32796593604744
H           -7.18621915901233       -1.48887292414728       -0.62086372627671
H           -6.51721257531190       -2.27494531021033        1.35034729823028
H           -5.79615071345159       -1.59173509948186        3.57792656653877
H           -3.50263726348306       -0.70701186899482        3.91513620340067
H           -1.98131504080789       -0.52431743131999        2.00868909808963
H            0.83191875543040        1.62368063712618       -2.26803036830159
H            1.48757299360244        2.71505608333468       -4.35542348910113
H            1.71594048369419        5.18358300344969       -4.43475427344822
H            1.28116944705299        6.50749739661832       -2.43183973863514
H           -1.51280958818685        6.10115361721459       -0.52933747017967
H           -0.82811027289297        7.31765835095556        0.55101422134682
H           -0.36654979582971        7.29194451778656       -1.14885155733801
H            2.12256123561299        7.11649793306906       -0.47159025823913
H            1.66614782573372        7.13851350821478        1.22933373263614
H            2.63389231503687        5.80591660265780        0.59439595137318
H           -0.06112166736254        6.58846225006678        2.51042059350366
H           -0.68204615946006        5.32821252292601        4.50496698113470
H           -0.81988806259268        2.85347879227799        4.40711046120809
H           -0.34183856404326        1.69408348107962        2.30851003708241
H            0.94925644244408       -0.91287072390648        2.62176387749264
H            1.49657586919307       -1.43075921514801        4.94958672764127
H            3.49171014779617       -2.81184825958688        5.46535590239733
H            4.89474872888550       -3.64222826133595        3.65064747404794

          :  Hamiltonian                  GFN2-xTB          :
         :: gradient norm              0.000091473411 Eh/a0 ::
         :: HOMO-LUMO gap              0.512875624352 eV    ::
         :: SCC energy              -157.029437608667 Eh    ::
         :: -> dispersion             -0.156929026401 Eh    ::
         :: -> Gsolv                  -0.068137191878 Eh    ::
         :: repulsion energy           2.733223570557 Eh    ::

    * Orbital Energies and Occupations

         #    Occupation            Energy/Eh            Energy/eV
      -------------------------------------------------------------
         1        2.0000           -0.8304849             -22.5986
       ...           ...                  ...                  ...
       132        2.0000           -0.4179510             -11.3730
       133        2.0000           -0.4163785             -11.3302
       134        2.0000           -0.4135170             -11.2524
       135        2.0000           -0.4134435             -11.2504
       136        2.0000           -0.4134321             -11.2501
       137        2.0000           -0.4081156             -11.1054
       138        2.0000           -0.4076908             -11.0938
       139        2.0000           -0.4076218             -11.0920
       140        2.0000           -0.4075073             -11.0888
       141        1.9461           -0.3665001              -9.9730
       142        1.8988           -0.3658539              -9.9554
       143        1.1551           -0.3621680              -9.8551
       144        1.0000           -0.2888925              -7.8612 (HOMO)
       145        0.0000           -0.2700445              -7.3483 (LUMO)
       146                         -0.2411263              -6.5614
       147                         -0.2411130              -6.5610
       148                         -0.2411086              -6.5609
       149                         -0.2342820              -6.3751
       150                         -0.2342732              -6.3749
       151                         -0.2341858              -6.3725
       152                         -0.2336623              -6.3583
       153                         -0.2335626              -6.3556
       154                         -0.2335299              -6.3547
       155                         -0.2126118              -5.7855
       ...                                ...                  ...
       278                          1.1557033              31.4483
      -------------------------------------------------------------
                  HL-Gap            0.0188480 Eh            0.5129 eV

     #   Z          covCN         q      C6AA      α(0)
     1   6 C        3.761    -0.107    22.599     6.777
     2   6 C        3.909     0.024    20.120     6.376
     3   6 C        3.761    -0.107    22.585     6.775
     4   6 C        2.979    -0.004    28.122     8.699
     5   6 C        2.926    -0.034    28.843     8.807
     6   6 C        2.918    -0.034    28.859     8.809
     7   6 C        2.918    -0.030    28.747     8.792
     8   6 C        2.924    -0.047    29.176     8.858
     9   6 C        2.930     0.064    26.556     8.451
    10   7 N        2.753    -0.037    21.961     6.960
    11   6 C        2.924     0.000    28.018     8.680
    12   6 C        2.771     0.140    24.935     8.178
    13   9 F        0.787    -0.246    11.719     4.044
    14   6 C        2.924     0.001    28.012     8.679
    15   7 N        2.753    -0.037    21.960     6.960
    16   6 C        2.930     0.065    26.553     8.451
    17   6 C        2.924    -0.047    29.177     8.858
    18   6 C        2.918    -0.030    28.748     8.792
    19   6 C        2.918    -0.034    28.857     8.809
    20   6 C        2.926    -0.034    28.844     8.808
    21   6 C        2.979    -0.004    28.122     8.699
    22   6 C        3.909     0.024    20.120     6.376
    23   6 C        3.761    -0.107    22.598     6.777
    24   6 C        3.761    -0.107    22.587     6.775
    25   6 C        2.979    -0.004    28.118     8.698
    26   6 C        2.926    -0.034    28.844     8.807
    27   6 C        2.918    -0.034    28.855     8.809
    28   6 C        2.918    -0.030    28.747     8.792
    29   6 C        2.924    -0.048    29.182     8.859
    30   6 C        2.931     0.064    26.558     8.452
    31   6 C        2.967    -0.041    29.013     8.835
    32   6 C        1.911     0.112    28.348     8.599
    33   7 N        0.911    -0.339    28.723     7.751
    34   6 C        2.939     0.072    26.380     8.424
    35   7 N        2.757    -0.056    22.320     7.017
    36   6 C        2.930     0.065    26.541     8.449
    37   6 C        2.924    -0.050    29.233     8.867
    38   6 C        2.918    -0.030    28.744     8.792
    39   6 C        2.918    -0.035    28.865     8.810
    40   6 C        2.927    -0.034    28.839     8.807
    41   6 C        2.979    -0.004    28.125     8.699
    42   6 C        3.909     0.023    20.126     6.377
    43   6 C        3.761    -0.108    22.601     6.777
    44   6 C        3.761    -0.108    22.606     6.778
    45   6 C        2.979    -0.004    28.124     8.699
    46   6 C        2.927    -0.034    28.839     8.807
    47   6 C        2.918    -0.035    28.867     8.810
    48   6 C        2.918    -0.030    28.744     8.792
    49   6 C        2.924    -0.049    29.229     8.866
    50   6 C        2.930     0.065    26.544     8.449
    51   6 C        2.966    -0.041    29.009     8.834
    52   6 C        1.910     0.111    28.350     8.599
    53   7 N        0.911    -0.338    28.704     7.749
    54   6 C        2.930     0.065    26.554     8.451
    55   6 C        2.924    -0.048    29.181     8.859
    56   6 C        2.918    -0.030    28.748     8.792
    57   6 C        2.918    -0.034    28.856     8.809
    58   6 C        2.926    -0.034    28.844     8.808
    59   6 C        2.979    -0.004    28.121     8.699
    60   1 H        0.925     0.036     2.509     2.477
    61   1 H        0.925     0.052     2.295     2.369
    62   1 H        0.925     0.052     2.294     2.369
    63   1 H        0.925     0.034     2.525     2.485
    64   1 H        0.925     0.052     2.296     2.370
    65   1 H        0.925     0.052     2.296     2.370
    66   1 H        0.926     0.050     2.317     2.380
    67   1 H        0.926     0.045     2.388     2.416
    68   1 H        0.926     0.040     2.442     2.444
    69   1 H        0.926     0.021     2.717     2.578
    70   1 H        0.926     0.022     2.702     2.571
    71   1 H        0.926     0.041     2.441     2.443
    72   1 H        0.926     0.045     2.388     2.416
    73   1 H        0.926     0.050     2.316     2.380
    74   1 H        0.925     0.036     2.509     2.477
    75   1 H        0.925     0.052     2.294     2.368
    76   1 H        0.925     0.052     2.295     2.369
    77   1 H        0.925     0.035     2.523     2.484
    78   1 H        0.925     0.052     2.296     2.370
    79   1 H        0.925     0.052     2.296     2.370
    80   1 H        0.926     0.050     2.314     2.379
    81   1 H        0.926     0.045     2.385     2.415
    82   1 H        0.926     0.041     2.441     2.443
    83   1 H        0.926     0.021     2.712     2.575
    84   1 H        0.926     0.019     2.746     2.591
    85   1 H        0.926     0.042     2.420     2.432
    86   1 H        0.926     0.047     2.361     2.403
    87   1 H        0.926     0.052     2.291     2.367
    88   1 H        0.925     0.035     2.516     2.480
    89   1 H        0.925     0.053     2.282     2.362
    90   1 H        0.925     0.053     2.283     2.363
    91   1 H        0.925     0.053     2.282     2.362
    92   1 H        0.925     0.053     2.281     2.362
    93   1 H        0.925     0.035     2.515     2.480
    94   1 H        0.926     0.052     2.291     2.367
    95   1 H        0.926     0.047     2.361     2.403
    96   1 H        0.926     0.042     2.420     2.433
    97   1 H        0.926     0.018     2.757     2.597
    98   1 H        0.926     0.022     2.708     2.573
    99   1 H        0.926     0.041     2.442     2.444
   100   1 H        0.926     0.045     2.387     2.416
   101   1 H        0.926     0.050     2.315     2.380

molecular dipole:
                 x           y           z       tot (Debye)
 q only:       -0.146      -0.873       0.008
   full:       -0.183      -1.272       0.008       3.266

 projected vibrational frequencies (cm⁻¹)
eigval :       -0.00    -0.00    -0.00     0.00     0.00     0.00
eigval :        9.92    11.80    13.85    14.87    17.87    24.28
eigval :       28.44    32.07    40.81    44.09    45.05    57.28
eigval :       73.97    76.92    92.12    94.00    94.60    96.15
eigval :       99.19   101.39   104.17   119.62   121.15   123.88
eigval :      141.39   145.88   146.10   148.56   149.69   171.64
eigval :      201.32   204.44   206.33   209.32   220.29   221.12
eigval :      221.52   223.34   235.46   237.51   238.32   262.20
eigval :      267.83   302.91   304.16   308.05   311.52   322.27
eigval :      326.93   327.12   327.73   328.11   339.80   345.30
eigval :      347.67   357.65   358.85   359.19   379.52   379.69
eigval :      384.14   395.83   404.63   408.61   417.44   427.89
eigval :      447.17   450.08   451.08   456.96   470.84   485.30
eigval :      492.55   497.42   500.57   505.63   506.22   506.70
eigval :      507.11   526.28   527.89   528.95   533.46   543.19
eigval :      543.81   544.43   549.87   551.23   583.18   583.82
eigval :      586.28   599.55   607.61   608.69   614.52   647.55
eigval :      653.90   666.81   669.85   687.77   687.81   687.87
eigval :      699.58   700.59   701.03   705.78   714.88   750.90
eigval :      753.53   767.56   768.97   769.88   772.16   772.70
eigval :      774.96   824.22   825.15   826.57   858.99   859.66
eigval :      863.30   865.49   866.58   867.19   867.94   906.43
eigval :      906.87   910.97   911.14   911.65   913.02   913.80
eigval :      914.31   914.99   918.83   919.17   919.84   920.15
eigval :      922.41   923.66   936.70   937.19   938.14   944.20
eigval :      953.59   960.19   960.26   960.72  1011.79  1013.81
eigval :     1016.89  1056.35  1060.65  1074.12  1075.43  1076.05
eigval :     1082.51  1103.92  1104.49  1108.07  1111.18  1111.70
eigval :     1112.79  1125.07  1130.95  1135.81  1136.95  1138.19
eigval :     1149.57  1149.67  1150.92  1170.62  1176.29  1176.86
eigval :     1178.58  1179.49  1180.22  1180.55  1182.90  1184.08
eigval :     1204.95  1224.36  1231.56  1233.77  1239.52  1239.93
eigval :     1240.89  1244.70  1251.37  1253.81  1260.83  1273.19
eigval :     1277.22  1292.10  1292.32  1292.56  1296.07  1308.53
eigval :     1309.08  1319.99  1329.24  1329.29  1330.05  1334.91
eigval :     1335.58  1335.98  1359.54  1368.13  1397.27  1397.80
eigval :     1399.54  1414.65  1415.96  1416.29  1418.76  1420.11
eigval :     1420.62  1425.24  1428.62  1430.43  1431.99  1437.33
eigval :     1453.96  1457.25  1457.85  1459.35  1475.28  1476.12
eigval :     1481.04  1482.01  1482.31  1482.94  1484.05  1484.19
eigval :     1484.33  1491.13  1491.55  1492.65  1497.32  1498.37
eigval :     1499.42  1556.95  1557.24  1559.33  1568.55  1569.94
eigval :     1573.92  1580.18  1580.38  1581.04  1589.60  1590.44
eigval :     1593.47  2243.23  2316.94  3024.08  3024.85  3025.86
eigval :     3025.95  3027.09  3027.77  3048.25  3048.65  3049.45
eigval :     3050.44  3050.71  3051.23  3054.84  3054.99  3055.69
eigval :     3058.75  3059.00  3059.37  3081.72  3081.84  3082.11
eigval :     3082.19  3083.00  3083.17  3088.38  3088.46  3088.70
eigval :     3088.76  3089.50  3090.48  3094.72  3094.84  3094.92
eigval :     3094.96  3096.08  3096.23  3102.86  3103.09  3103.18
eigval :     3103.51  3104.15  3104.75

   temp. (K)  partition function   enthalpy   heat capacity  entropy
                                   cal/mol     cal/K/mol   cal/K/mol   J/K/mol
 298.15  VIB  0.193E+25            31052.306    190.471    193.712
         ROT  0.101E+09              888.752      2.981     39.607
         INT  0.195E+33            31941.058    193.452    233.319
         TR   0.206E+29             1481.254      4.968     45.774
         TOT                       33422.3118   198.4203   279.0930  1167.7252

       T/K    H(0)-H(T)+PV         H(T)/Eh          T*S/Eh         G(T)/Eh
   ------------------------------------------------------------------------
    298.15    0.532618E-01    0.840105E+00    0.132606E+00    0.707499E+00
   ------------------------------------------------------------------------

         :::::::::::::::::::::::::::::::::::::::::::::::::::::
         ::                  THERMODYNAMIC                  ::
         :::::::::::::::::::::::::::::::::::::::::::::::::::::
         :: total free energy        -153.588715519947 Eh   ::
         ::.................................................::
         :: total energy             -154.296214033943 Eh   ::
         :: zero point energy           0.786842765280 Eh   ::
         :: G(RRHO) w/o ZPVE           -0.079344251285 Eh   ::
         :: G(RRHO) contrib.            0.707498513996 Eh   ::
         :::::::::::::::::::::::::::::::::::::::::::::::::::::

           -------------------------------------------------
          | TOTAL ENERGY             -154.296214033943 Eh   |
          | TOTAL ENTHALPY           -153.456109424576 Eh   |
          | TOTAL FREE ENERGY        -153.588715519947 Eh   |
          | GRADIENT NORM               0.000091876493 Eh/α |
          | HOMO-LUMO GAP               0.512881185905 eV   |
           -------------------------------------------------

 * finished run on 2025/09/10 at 17:26:39.227
