   * xtb version 6.7.1 (edcfbbe) compiled by 'albert@albert-system' on 2024-07-22

   ID    Z sym.   atoms
    1    6 C      1-9, 11, 12, 14, 16-32, 34, 36-52, 54-59
    2    7 N      10, 15, 33, 35, 53
    3    9 F      13
    4    1 H      60-101

          program call               : xtb data2507/toluene/3DMACIPN/3DMACIPN.xyz --gfn 2 --gbsa toluene --ohess vtight --parallel 40 --molden --ceasefiles --namespace data2507/toluene/3DMACIPN/3DMACIPN_toluene_S0_preOpt
      * Solvation model:               GBSA
        Solvent                        toluene
        Solvent mass                       9.2140E+01 g/mol
          :  Hamiltonian                  GFN2-xTB          :
 * total energy  :  -154.3104668 Eh     change       -0.3426265E-08 Eh
 * total energy  :  -154.3338779 Eh     change       -0.2341113E-01 Eh
 * total energy  :  -154.3431062 Eh     change       -0.9228311E-02 Eh
 * total energy  :  -154.3456200 Eh     change       -0.2513769E-02 Eh
 * total energy  :  -154.3471312 Eh     change       -0.1511175E-02 Eh
 * total energy  :  -154.3474836 Eh     change       -0.3524167E-03 Eh
 * total energy  :  -154.3481412 Eh     change       -0.6576418E-03 Eh
 * total energy  :  -154.3482553 Eh     change       -0.1140674E-03 Eh
 * total energy  :  -154.3483300 Eh     change       -0.7469144E-04 Eh
 * total energy  :  -154.3481819 Eh     change        0.1481166E-03 Eh
 * total energy  :  -154.3521093 Eh     change       -0.2368228E-06 Eh
 * total energy  :  -154.3521095 Eh     change       -0.1962377E-06 Eh
 * total energy  :  -154.3521097 Eh     change       -0.1757264E-06 Eh
 * total energy  :  -154.3521098 Eh     change       -0.1791324E-06 Eh
 * total energy  :  -154.3521101 Eh     change       -0.2664602E-06 Eh
 * total energy  :  -154.3521105 Eh     change       -0.3557778E-06 Eh
 * total energy  :  -154.3521108 Eh     change       -0.3876045E-06 Eh
 * total energy  :  -154.3521112 Eh     change       -0.3349405E-06 Eh
 * total energy  :  -154.3521112 Eh     change       -0.3855234E-08 Eh
   *** GEOMETRY OPTIMIZATION CONVERGED AFTER 152 ITERATIONS ***

 final structure:
================
101
 xtb: 6.7.1 (edcfbbe)
C            5.33932892528002       -4.24483696578519       -0.26938792469964
C            5.02490817913718       -2.78899473289697        0.12375046242280
C            6.31020316613241       -2.05754810124496        0.55462262082953
C            4.44532410813674       -2.07885643046329       -1.08210827281944
C            5.18716857723100       -2.01411696623584       -2.25558935833192
C            4.69431521528058       -1.43032749209840       -3.40640929284061
C            3.40634377241242       -0.92721195311215       -3.41004369428947
C            2.65197175019720       -0.97573689924321       -2.25671354061791
C            3.17301379410472       -1.50522061595427       -1.07424093198923
N            2.38845860080677       -1.51474582584949        0.08547268464936
C            1.19056475540260       -0.79461051426795        0.08906797165469
C           -0.04315995700449       -1.43051698977099        0.23254737257104
F           -0.06764964898187       -2.77112238325909        0.36020365457109
C           -1.25658956221777       -0.74499557423620        0.19279110852566
N           -2.47523654252333       -1.42944193121162        0.26058847589929
C           -3.30517998710612       -1.45635478570598       -0.86619724288873
C           -2.88635744505115       -0.85983620829225       -2.05724739554843
C           -3.68954896094376       -0.86423181509391       -3.17872336205669
C           -4.92408712542902       -1.48498238929938       -3.13424756465161
C           -5.31751741085604       -2.12057049063311       -1.97240446649790
C           -4.52738256217272       -2.13120239220275       -0.82911216704464
C           -5.00090531877096       -2.89983240989170        0.38866511602816
C           -5.16327648533536       -4.38103501514612       -0.00115218310264
C           -6.34825819011452       -2.31270010606036        0.84981626595993
C           -4.01943585712387       -2.80048568563005        1.53881201819212
C           -4.31216888125151       -3.42856148287820        2.74315639572844
C           -3.48899214821257       -3.32196591529950        3.84816302615876
C           -2.35452461967323       -2.53512847639912        3.77276857935398
C           -2.03974888916451       -1.90527777733878        2.58680524057864
C           -2.83748858737912       -2.06244145512568        1.45228497459495
C           -1.22215227931820        0.65504082424047        0.03033756190578
C           -2.42809509699686        1.38862079342690        0.01479583308941
N           -3.40200711260917        1.99361514561111        0.01425954674651
C           -0.00404719504998        1.33056480411776       -0.10964788202679
N            0.01633612791056        2.73086717203147       -0.25592098005763
C            0.22123348186323        3.27464335399810       -1.52267250316264
C            0.34997915479300        2.42779561535338       -2.62432339747155
C            0.56698220385646        2.93376229712338       -3.88928995466793
C            0.64711517649796        4.30144454545467       -4.07318587241216
C            0.48458717613229        5.14167409868558       -2.98727265582282
C            0.26209705566546        4.65829019019612       -1.70443357141637
C            0.05337176839189        5.63361902272819       -0.56213752415340
C           -1.17536508997883        6.50575915169986       -0.88144138425343
C            1.31469293120766        6.50647457075530       -0.42494043648781
C           -0.18881258191157        4.92312008924807        0.75578030576048
C           -0.40580006149400        5.67006303855860        1.90658062287772
C           -0.60791453451159        5.08011133361917        3.14038775191377
C           -0.57295903115906        3.70226411576958        3.24606333489151
C           -0.35746622295250        2.93642301309699        2.11872974903009
C           -0.18776275882029        3.53138450377822        0.86768629717229
C            1.19208683622994        0.60586272038394       -0.08709257178758
C            2.41735214985017        1.29768085132866       -0.20341370566093
N            3.40587394064384        1.87498747518338       -0.26678234926063
C            2.82161590457095       -2.15304973828348        1.25372947605324
C            2.04112336766561       -2.09887187079057        2.40947597224230
C            2.43667780953859       -2.73081445404878        3.56999393525066
C            3.63830396051134       -3.41354783567309        3.60195011211930
C            4.43834289420244       -3.42178528569519        2.47563486305891
C            4.06195707663606       -2.79453640546825        1.29395319244667
H            6.02605383542645       -4.28049699443545       -1.10958640709690
H            4.42206027548950       -4.75860423972831       -0.55219076708357
H            5.79095761663284       -4.77989059132272        0.56047866483102
H            6.08281998089838       -1.02088383869137        0.79820979420273
H            7.04455691412800       -2.06823559988396       -0.24540043956073
H            6.74934244083680       -2.52832744639583        1.42924637855121
H            6.18140778714145       -2.43158356363843       -2.27428324609072
H            5.30137366100252       -1.38734848469180       -4.29724695752703
H            2.98241607860092       -0.50299059457241       -4.30720279514105
H            1.63760044890950       -0.60678372150943       -2.28462017098761
H           -1.91631584212532       -0.39027804014485       -2.12156596683353
H           -3.34260802985310       -0.38600394530812       -4.08221966102914
H           -5.56660072954702       -1.48939561771414       -4.00093904784363
H           -6.26987367516144       -2.62656913230359       -1.95932549919356
H           -5.87553261857435       -4.49182029870154       -0.81333852916643
H           -5.51567983662896       -4.96499609614123        0.84394900541545
H           -4.20587257439551       -4.78632318121337       -0.32457791105435
H           -6.22532281490510       -1.26123689561663        1.10462849125580
H           -7.09268701131768       -2.39029137718406        0.06310691849635
H           -6.72075396460078       -2.83772895163649        1.72432212662623
H           -5.21209713780327       -4.01738497825614        2.82571336934245
H           -3.74314541855654       -3.82959410172928        4.76567864345790
H           -1.71825664161197       -2.40120644197299        4.63422744893260
H           -1.16807610759551       -1.26860999586449        2.54874424649130
H            0.27247805521798        1.35810524793490       -2.49311155955876
H            0.66575880572523        2.25794945448722       -4.72527987816047
H            0.82274873267893        4.71216179678266       -5.05536543556192
H            0.53140867518368        6.20712200473729       -3.14918031475140
H           -1.33332298036995        7.24843744121195       -0.10508805164193
H           -1.04799676879252        7.02308737192380       -1.82770469011042
H           -2.06493398999372        5.88099939372667       -0.94638049896565
H            1.49953960139114        7.06297869084226       -1.33904186984525
H            1.20806188297597        7.21509876427313        0.39108124429289
H            2.17981461885458        5.87630086183100       -0.22419686045406
H           -0.41768298273596        6.74677947911113        1.84248337812551
H           -0.77994079310325        5.69163805508469        4.01253327177956
H           -0.70870307374990        3.21781586492640        4.20126870246275
H           -0.31580623081420        1.86116420294665        2.21600913232444
H            1.11423089875129       -1.54688992430401        2.41347555299115
H            1.80869656689599       -2.67909869601809        4.44612350610371
H            3.95910153076247       -3.91737206621321        4.50051697852997
H            5.38934109846951       -3.92827117029758        2.52331236719745

          :  Hamiltonian                  GFN2-xTB          :
         :: gradient norm              0.000108789707 Eh/a0 ::
         :: HOMO-LUMO gap              1.199337187619 eV    ::
         :: SCC energy              -157.102519195772 Eh    ::
         :: -> dispersion             -0.159146276870 Eh    ::
         :: -> Gsolv                  -0.060668318650 Eh    ::
         :: repulsion energy           2.750408010064 Eh    ::

    * Orbital Energies and Occupations

         #    Occupation            Energy/Eh            Energy/eV
      -------------------------------------------------------------
         1        2.0000           -0.8560017             -23.2930
       ...           ...                  ...                  ...
       131        2.0000           -0.4181936             -11.3796
       132        2.0000           -0.4179572             -11.3732
       133        2.0000           -0.4175413             -11.3619
       134        2.0000           -0.4152613             -11.2998
       135        2.0000           -0.4111538             -11.1881
       136        2.0000           -0.4109251             -11.1818
       137        2.0000           -0.4087705             -11.1232
       138        2.0000           -0.4057069             -11.0398
       139        2.0000           -0.4054980             -11.0342
       140        2.0000           -0.4032838             -10.9739
       141        2.0000           -0.3688201             -10.0361
       142        2.0000           -0.3681138             -10.0169
       143        2.0000           -0.3627758              -9.8716 (HOMO)
       144                         -0.3187010              -8.6723 (LUMO)
       145                         -0.3026730              -8.2362
       146                         -0.2445346              -6.6541
       147                         -0.2399379              -6.5290
       148                         -0.2389511              -6.5022
       149                         -0.2380433              -6.4775
       150                         -0.2353573              -6.4044
       151                         -0.2346510              -6.3852
       152                         -0.2327653              -6.3339
       153                         -0.2324663              -6.3257
       154                         -0.2316369              -6.3032
       ...                                ...                  ...
       278                          1.1409552              31.0470
      -------------------------------------------------------------
                  HL-Gap            0.0440748 Eh            1.1993 eV

     #   Z          covCN         q      C6AA      α(0)
     1   6 C        3.761    -0.108    22.611     6.779
     2   6 C        3.909     0.022    20.146     6.380
     3   6 C        3.761    -0.107    22.599     6.777
     4   6 C        2.980    -0.007    28.187     8.709
     5   6 C        2.929    -0.034    28.846     8.808
     6   6 C        2.918    -0.039    28.959     8.825
     7   6 C        2.920    -0.032    28.788     8.799
     8   6 C        2.925    -0.054    29.347     8.884
     9   6 C        2.928     0.056    26.740     8.480
    10   7 N        2.751    -0.068    22.549     7.053
    11   6 C        2.925     0.067    26.506     8.443
    12   6 C        2.783     0.140    24.941     8.180
    13   9 F        0.787    -0.208    11.320     3.974
    14   6 C        2.926     0.068    26.487     8.440
    15   7 N        2.752    -0.069    22.584     7.058
    16   6 C        2.926     0.057    26.727     8.478
    17   6 C        2.924    -0.056    29.381     8.889
    18   6 C        2.920    -0.032    28.794     8.800
    19   6 C        2.917    -0.039    28.976     8.827
    20   6 C        2.929    -0.034    28.852     8.809
    21   6 C        2.980    -0.007    28.201     8.711
    22   6 C        3.909     0.022    20.145     6.380
    23   6 C        3.761    -0.107    22.596     6.776
    24   6 C        3.761    -0.108    22.607     6.778
    25   6 C        2.980    -0.008    28.210     8.712
    26   6 C        2.929    -0.034    28.856     8.809
    27   6 C        2.918    -0.040    28.985     8.829
    28   6 C        2.920    -0.032    28.795     8.800
    29   6 C        2.925    -0.052    29.280     8.874
    30   6 C        2.927     0.059    26.667     8.469
    31   6 C        2.976    -0.015    28.382     8.739
    32   6 C        1.911     0.134    27.824     8.519
    33   7 N        0.911    -0.243    26.350     7.424
    34   6 C        2.938     0.088    26.043     8.370
    35   7 N        2.754    -0.091    23.013     7.125
    36   6 C        2.928     0.058    26.696     8.473
    37   6 C        2.925    -0.057    29.417     8.894
    38   6 C        2.920    -0.033    28.818     8.803
    39   6 C        2.918    -0.042    29.039     8.837
    40   6 C        2.929    -0.035    28.864     8.811
    41   6 C        2.979    -0.010    28.257     8.720
    42   6 C        3.909     0.021    20.158     6.382
    43   6 C        3.761    -0.107    22.599     6.777
    44   6 C        3.761    -0.107    22.597     6.776
    45   6 C        2.979    -0.010    28.255     8.719
    46   6 C        2.929    -0.035    28.866     8.811
    47   6 C        2.918    -0.042    29.035     8.836
    48   6 C        2.920    -0.033    28.824     8.804
    49   6 C        2.924    -0.059    29.459     8.901
    50   6 C        2.928     0.058    26.705     8.475
    51   6 C        2.976    -0.015    28.373     8.737
    52   6 C        1.912     0.134    27.827     8.519
    53   7 N        0.911    -0.243    26.335     7.422
    54   6 C        2.925     0.059    26.685     8.471
    55   6 C        2.925    -0.052    29.289     8.875
    56   6 C        2.920    -0.032    28.795     8.800
    57   6 C        2.917    -0.039    28.980     8.828
    58   6 C        2.929    -0.034    28.859     8.810
    59   6 C        2.980    -0.008    28.210     8.712
    60   1 H        0.925     0.049     2.326     2.385
    61   1 H        0.925     0.034     2.533     2.489
    62   1 H        0.925     0.050     2.318     2.381
    63   1 H        0.925     0.033     2.548     2.496
    64   1 H        0.925     0.050     2.319     2.381
    65   1 H        0.925     0.050     2.324     2.384
    66   1 H        0.926     0.049     2.326     2.385
    67   1 H        0.926     0.042     2.421     2.433
    68   1 H        0.926     0.037     2.490     2.467
    69   1 H        0.926     0.007     2.939     2.681
    70   1 H        0.926     0.006     2.953     2.687
    71   1 H        0.926     0.036     2.499     2.472
    72   1 H        0.926     0.041     2.430     2.438
    73   1 H        0.926     0.049     2.333     2.389
    74   1 H        0.925     0.049     2.331     2.387
    75   1 H        0.925     0.050     2.325     2.384
    76   1 H        0.925     0.033     2.540     2.492
    77   1 H        0.925     0.033     2.544     2.494
    78   1 H        0.925     0.050     2.323     2.384
    79   1 H        0.925     0.050     2.325     2.384
    80   1 H        0.926     0.047     2.352     2.398
    81   1 H        0.926     0.040     2.447     2.446
    82   1 H        0.926     0.036     2.503     2.474
    83   1 H        0.926     0.007     2.933     2.678
    84   1 H        0.926     0.002     3.032     2.723
    85   1 H        0.926     0.035     2.522     2.483
    86   1 H        0.926     0.039     2.457     2.451
    87   1 H        0.926     0.047     2.363     2.404
    88   1 H        0.925     0.049     2.330     2.387
    89   1 H        0.925     0.049     2.335     2.390
    90   1 H        0.925     0.033     2.550     2.497
    91   1 H        0.925     0.049     2.330     2.387
    92   1 H        0.925     0.049     2.337     2.391
    93   1 H        0.925     0.033     2.549     2.497
    94   1 H        0.926     0.047     2.359     2.402
    95   1 H        0.926     0.040     2.454     2.450
    96   1 H        0.926     0.035     2.517     2.481
    97   1 H        0.926     0.003     3.006     2.711
    98   1 H        0.926     0.011     2.866     2.647
    99   1 H        0.926     0.036     2.498     2.471
   100   1 H        0.926     0.040     2.444     2.445
   101   1 H        0.926     0.048     2.346     2.395

molecular dipole:
                 x           y           z       tot (Debye)
 q only:        0.125      -0.801       0.014
   full:        0.107      -1.210       0.045       3.089

 projected vibrational frequencies (cm⁻¹)
eigval :       -0.00    -0.00    -0.00     0.00     0.00     0.00
eigval :        3.96    12.89    13.93    16.43    21.09    22.07
eigval :       26.76    42.29    44.37    47.08    56.21    57.12
eigval :       85.05    87.91    96.62    98.11    99.59   103.83
eigval :      104.80   105.89   109.92   112.21   123.61   129.46
eigval :      135.36   136.93   150.46   152.96   153.72   181.01
eigval :      184.23   199.05   204.29   209.98   217.25   221.94
eigval :      222.66   227.53   237.48   238.31   238.72   267.88
eigval :      270.32   303.99   305.40   307.57   311.13   316.30
eigval :      317.92   330.64   331.62   332.51   343.10   346.63
eigval :      346.76   352.08   352.87   359.91   376.37   377.70
eigval :      380.77   392.57   407.71   408.33   412.78   429.31
eigval :      444.97   449.15   453.13   477.35   482.39   483.21
eigval :      486.28   495.78   505.12   507.50   513.11   514.54
eigval :      515.21   528.36   531.94   547.45   547.99   548.79
eigval :      551.72   557.78   566.16   575.64   586.48   587.52
eigval :      589.66   599.87   606.82   646.42   652.39   656.78
eigval :      668.59   671.11   679.82   681.98   683.61   691.23
eigval :      693.34   694.12   695.12   708.04   721.96   751.30
eigval :      755.02   770.52   771.41   774.57   775.48   777.90
eigval :      778.10   824.31   825.34   826.04   860.20   860.94
eigval :      865.63   868.94   869.80   870.39   870.81   905.46
eigval :      909.16   909.49   909.78   911.68   912.87   912.91
eigval :      913.34   914.02   919.14   919.36   919.58   921.80
eigval :      922.18   923.51   937.84   938.27   939.09   948.29
eigval :      958.69   958.90   959.19   966.62  1013.51  1014.31
eigval :     1015.68  1061.83  1062.28  1075.45  1076.07  1076.23
eigval :     1082.09  1112.72  1114.26  1116.17  1117.63  1118.97
eigval :     1120.50  1136.67  1139.28  1139.53  1141.04  1141.20
eigval :     1158.54  1158.98  1160.27  1174.90  1178.59  1179.82
eigval :     1181.45  1182.05  1185.63  1188.36  1189.64  1191.00
eigval :     1204.60  1234.00  1234.46  1244.28  1244.81  1247.27
eigval :     1251.74  1261.50  1263.09  1268.68  1273.75  1276.71
eigval :     1285.48  1286.00  1292.14  1292.88  1293.35  1313.83
eigval :     1317.30  1324.39  1325.15  1325.45  1329.37  1330.71
eigval :     1330.86  1332.24  1381.53  1399.23  1399.73  1400.14
eigval :     1404.85  1414.68  1417.55  1418.06  1418.43  1432.82
eigval :     1433.06  1434.22  1434.84  1436.06  1437.18  1472.46
eigval :     1473.52  1476.80  1478.00  1481.62  1483.12  1483.63
eigval :     1484.25  1485.11  1487.30  1487.78  1490.63  1492.19
eigval :     1494.34  1494.38  1494.95  1498.21  1499.66  1499.97
eigval :     1503.17  1576.95  1577.24  1578.34  1590.81  1590.98
eigval :     1591.40  1591.82  1592.34  1593.07  1599.49  1599.97
eigval :     1601.06  2359.36  2362.46  3021.56  3023.15  3023.19
eigval :     3024.04  3025.36  3025.82  3045.47  3046.08  3046.10
eigval :     3047.53  3048.47  3048.59  3052.67  3053.44  3053.76
eigval :     3057.00  3058.47  3058.79  3068.21  3069.92  3073.55
eigval :     3078.52  3079.53  3084.27  3084.66  3084.77  3086.75
eigval :     3088.19  3088.44  3089.78  3091.52  3091.83  3093.37
eigval :     3094.55  3095.59  3097.96  3102.05  3103.08  3103.44
eigval :     3104.58  3104.83  3105.56

   temp. (K)  partition function   enthalpy   heat capacity  entropy
                                   cal/mol     cal/K/mol   cal/K/mol   J/K/mol
 298.15  VIB  0.125E+25            30838.105    190.221    192.769
         ROT  0.100E+09              888.752      2.981     39.597
         INT  0.125E+33            31726.858    193.201    232.366
         TR   0.206E+29             1481.254      4.968     45.774
         TOT                       33208.1115   198.1695   278.1400  1163.7376

       T/K    H(0)-H(T)+PV         H(T)/Eh          T*S/Eh         G(T)/Eh
   ------------------------------------------------------------------------
    298.15    0.529205E-01    0.842496E+00    0.132153E+00    0.710342E+00
   ------------------------------------------------------------------------

         :::::::::::::::::::::::::::::::::::::::::::::::::::::
         ::                  THERMODYNAMIC                  ::
         :::::::::::::::::::::::::::::::::::::::::::::::::::::
         :: total free energy        -153.641768925004 Eh   ::
         ::.................................................::
         :: total energy             -154.352111194254 Eh   ::
         :: zero point energy           0.789575049076 Eh   ::
         :: G(RRHO) w/o ZPVE           -0.079232779826 Eh   ::
         :: G(RRHO) contrib.            0.710342269250 Eh   ::
         :::::::::::::::::::::::::::::::::::::::::::::::::::::

           -------------------------------------------------
          | TOTAL ENERGY             -154.352111194254 Eh   |
          | TOTAL ENTHALPY           -153.509615650930 Eh   |
          | TOTAL FREE ENERGY        -153.641768925004 Eh   |
          | GRADIENT NORM               0.000108990505 Eh/α |
          | HOMO-LUMO GAP               1.199335755263 eV   |
           -------------------------------------------------

 * finished run on 2025/09/10 at 17:04:41.315
