   * xtb version 6.7.1 (edcfbbe) compiled by 'albert@albert-system' on 2024-07-22

   ID    Z sym.   atoms
    1    6 C      1-6, 8-20, 22-34, 36-41, 43-48
    2    7 N      7
    3    9 F      21, 35
    4    8 O      42
    5    1 H      49-85

          program call               : xtb data2507/toluene/DFPFPhe/DFPFPhe.xyz --gfn 2 --gbsa toluene --ohess vtight --parallel 40 --molden --ceasefiles --namespace data2507/toluene/DFPFPhe/DFPFPhe_toluene_S0_preOpt
      * Solvation model:               GBSA
        Solvent                        toluene
        Solvent mass                       9.2140E+01 g/mol
          :  Hamiltonian                  GFN2-xTB          :
 * total energy  :  -129.6088209 Eh     change       -0.3162796E-08 Eh
 * total energy  :  -129.6180171 Eh     change       -0.9196220E-02 Eh
 * total energy  :  -129.6201976 Eh     change       -0.2180488E-02 Eh
 * total energy  :  -129.6207551 Eh     change       -0.5575105E-03 Eh
 * total energy  :  -129.6211012 Eh     change       -0.3460850E-03 Eh
 * total energy  :  -129.6212522 Eh     change       -0.1510126E-03 Eh
 * total energy  :  -129.6214219 Eh     change       -0.1696368E-03 Eh
 * total energy  :  -129.6216291 Eh     change       -0.2072490E-03 Eh
 * total energy  :  -129.6217776 Eh     change       -0.1484862E-03 Eh
 * total energy  :  -129.6218655 Eh     change       -0.8793129E-04 Eh
 * total energy  :  -129.6222295 Eh     change       -0.3607254E-06 Eh
 * total energy  :  -129.6222299 Eh     change       -0.3773684E-06 Eh
 * total energy  :  -129.6222303 Eh     change       -0.4148202E-06 Eh
 * total energy  :  -129.6222307 Eh     change       -0.4373384E-06 Eh
 * total energy  :  -129.6222311 Eh     change       -0.4164150E-06 Eh
 * total energy  :  -129.6222315 Eh     change       -0.3761391E-06 Eh
 * total energy  :  -129.6222319 Eh     change       -0.3408017E-06 Eh
 * total energy  :  -129.6222322 Eh     change       -0.3310257E-06 Eh
 * total energy  :  -129.6222322 Eh     change       -0.1755410E-08 Eh
   *** GEOMETRY OPTIMIZATION CONVERGED AFTER 68 ITERATIONS ***

 final structure:
================
85
 xtb: 6.7.1 (edcfbbe)
C            9.12636304685438        0.11826185062798        1.24650247355016
C            7.98870031664040        0.94446210390143        1.83690015670807
C            7.05231975044551        0.13382820646387        2.73589190148948
C            6.28220969963320       -0.98383149506566        2.02937360907795
C            5.31004890675101       -0.47004928272151        0.96970162323139
C            4.46025832175993       -1.60966038340700        0.39656445971013
N            3.52141162359415       -1.16367830087397       -0.60854307728714
C            2.24771930066338       -0.74448911299405       -0.22567496577362
C            1.85726928456651       -0.57020996213738        1.04810004447564
C            0.47888403613840       -0.15987268789540        1.45257106846886
C           -0.53212716183400       -0.09144559762611        0.33339391588887
C           -1.82594569503921        0.10032104269346        0.63621998258434
C           -2.97883104331133        0.24314090825017       -0.31177527361163
C           -4.08175421548641       -0.74375965454645       -0.01470435315164
C           -4.02735170936989       -2.11864563959068       -0.03022940625812
C           -5.17320654571917       -2.85074958357116        0.29221762386757
C           -5.14144773002648       -4.32154012574142        0.27824963094817
C           -5.76905458823009       -5.05668227481427        1.28314122330873
C           -5.74509826536608       -6.43892516718868        1.27425444097751
C           -5.08871052917130       -7.08279057001864        0.24231553255671
F           -5.06382115332543       -8.44368065878563        0.22377819213429
C           -4.45644474248926       -6.38760951046954       -0.77119292852050
C           -4.48487057101530       -5.00574874831330       -0.74398395220838
C           -6.35017200603226       -2.17608719551129        0.62195767583893
C           -6.41039857401393       -0.79430938570699        0.63442810171484
C           -5.26958074805621       -0.07291328181547        0.31755526366042
C           -5.02511358391350        1.35653432034620        0.25279524020168
C           -5.85487346897013        2.44142560549368        0.49131554000823
C           -5.33703393009290        3.71774055525520        0.36401733785782
C           -4.00711486810968        3.93119000575921       -0.00362308258270
C           -3.48125740129889        5.29867884745413       -0.13407940902332
C           -2.62911061627893        5.63148227997007       -1.18654304183235
C           -2.12772329424176        6.91297447697722       -1.31840818490010
C           -2.48469773717136        7.86318100082978       -0.38034043937523
F           -1.99248496215510        9.12656449685153       -0.50061668163592
C           -3.32556700473632        7.56992522295054        0.67665445681558
C           -3.82178252486065        6.28467903661438        0.79125526758087
C           -3.17707243505264        2.83391894080897       -0.24877076732100
C           -3.68781053170866        1.56273771865004       -0.12094593723774
C           -0.02101377702252       -0.21387991722143       -1.00298144861897
C            1.26716573256737       -0.50642784011689       -1.27860539557257
O            1.61493776388622       -0.58728261880944       -2.59461922853843
C            2.92605335705904       -0.81652937440754       -2.91703877988162
C            3.25073626943418       -0.76716958480722       -4.26272549796650
C            4.55130083309516       -0.99549768965274       -4.67554730038299
C            5.52265413629041       -1.26132853331575       -3.72720441924275
C            5.20330748698427       -1.30793491213179       -2.38182069672346
C            3.89565866129470       -1.09811484375116       -1.94075169885352
H            9.81380395405085        0.76107673661940        0.70030780073137
H            9.68172084415172       -0.38423425382171        2.03616513627075
H            8.75099912404001       -0.63399700992755        0.55762110693749
H            8.41700082984965        1.75136084661949        2.43740591338061
H            7.41901526680058        1.40986424372901        1.03068139419333
H            7.64295635835905       -0.31030003329783        3.54149662510884
H            6.33339917154148        0.81783665873084        3.19455470552883
H            5.71756308690508       -1.53683941221476        2.78486210822442
H            6.98343210252001       -1.68424628091466        1.57312923584418
H            4.65301845634191        0.28335469606963        1.40871774428734
H            5.85727900773514        0.00603430366571        0.15539628432974
H            3.89466786072491       -2.09508248362919        1.19595770842716
H            5.10516417364478       -2.37226826508522       -0.04700028122083
H            2.53876227597548       -0.70303536713734        1.87168591551039
H            0.12119177681010       -0.84493628218902        2.22924536546348
H            0.54213040765502        0.82739364638359        1.93061270802677
H           -2.10749537384330        0.18089820870612        1.67864246720724
H           -2.64164500582094        0.13576381085137       -1.34540538178298
H           -3.10430054020988       -2.62779481405268       -0.26618367362023
H           -6.26542501052018       -4.54149089465381        2.09136455422043
H           -6.22285670341414       -7.01631177368380        2.05051946116879
H           -3.95779549452729       -6.92601029792954       -1.56219925041071
H           -4.00814622383760       -4.45086531988240       -1.53763961689192
H           -7.23745876217333       -2.74866810478149        0.84955370674394
H           -7.33205070193116       -0.29017879493424        0.88500915575062
H           -6.88764192610496        2.29694949269296        0.77207005205946
H           -5.97913960967112        4.57024105664322        0.53071162433896
H           -2.37055062227915        4.88414465320232       -1.92116254649941
H           -1.47231835279688        7.18113463001838       -2.13249302908076
H           -3.57809703300482        8.33794414396083        1.39118440761073
H           -4.46624578262816        6.03901947842207        1.62146083298585
H           -2.14001591988967        2.98342505596810       -0.51146268839733
H           -0.68533590922202       -0.08121533153369       -1.84286381189924
H            2.46320162482979       -0.55226766099727       -4.96849055316460
H            4.79937847725849       -0.95972713270456       -5.72473410639006
H            6.54451073226806       -1.43177122271958       -4.03133313750987
H            5.99179232685612       -1.50540461304274       -1.67581473358386

          :  Hamiltonian                  GFN2-xTB          :
         :: gradient norm              0.000032298434 Eh/a0 ::
         :: HOMO-LUMO gap              2.162893015849 eV    ::
         :: SCC energy              -131.764494225397 Eh    ::
         :: -> dispersion             -0.102022158820 Eh    ::
         :: -> Gsolv                  -0.053462008217 Eh    ::
         :: repulsion energy           2.142262027829 Eh    ::

    * Orbital Energies and Occupations

         #    Occupation            Energy/Eh            Energy/eV
      -------------------------------------------------------------
         1        2.0000           -0.8181971             -22.2643
       ...           ...                  ...                  ...
       107        2.0000           -0.4191703             -11.4062
       108        2.0000           -0.4190524             -11.4030
       109        2.0000           -0.4173434             -11.3565
       110        2.0000           -0.4161250             -11.3233
       111        2.0000           -0.4149235             -11.2906
       112        2.0000           -0.4097730             -11.1505
       113        2.0000           -0.4053990             -11.0315
       114        2.0000           -0.3987410             -10.8503
       115        2.0000           -0.3982657             -10.8374
       116        2.0000           -0.3943269             -10.7302
       117        2.0000           -0.3727282             -10.1425
       118        2.0000           -0.3501268              -9.5274
       119        2.0000           -0.3447954              -9.3824 (HOMO)
       120                         -0.2653105              -7.2195 (LUMO)
       121                         -0.2552817              -6.9466
       122                         -0.2417213              -6.5776
       123                         -0.2375159              -6.4631
       124                         -0.2374978              -6.4626
       125                         -0.2232038              -6.0737
       126                         -0.2214138              -6.0250
       127                         -0.2185976              -5.9483
       128                         -0.2172180              -5.9108
       129                         -0.2169483              -5.9035
       130                         -0.1799973              -4.8980
       ...                                ...                  ...
       229                          0.7327790              19.9399
      -------------------------------------------------------------
                  HL-Gap            0.0794848 Eh            2.1629 eV

     #   Z          covCN         q      C6AA      α(0)
     1   6 C        3.751    -0.101    22.495     6.764
     2   6 C        3.799    -0.053    21.536     6.608
     3   6 C        3.801    -0.058    21.624     6.621
     4   6 C        3.802    -0.059    21.627     6.621
     5   6 C        3.801    -0.064    21.720     6.635
     6   6 C        3.748    -0.006    20.747     6.497
     7   7 N        2.744    -0.072    22.637     7.066
     8   6 C        2.903     0.036    27.195     8.551
     9   6 C        2.907    -0.079    29.977     8.978
    10   6 C        3.815    -0.063    21.701     6.630
    11   6 C        2.948     0.004    27.927     8.667
    12   6 C        2.907    -0.056    29.389     8.889
    13   6 C        3.892    -0.022    20.919     6.502
    14   6 C        3.052     0.005    27.853     8.655
    15   6 C        2.919    -0.041    29.009     8.832
    16   6 C        2.978     0.007    27.850     8.657
    17   6 C        2.975     0.011    27.755     8.642
    18   6 C        2.930    -0.033    28.814     8.803
    19   6 C        2.914    -0.048    29.203     8.861
    20   6 C        2.789     0.162    24.481     8.105
    21   9 F        0.786    -0.259    11.865     4.069
    22   6 C        2.914    -0.048    29.201     8.861
    23   6 C        2.930    -0.032    28.807     8.802
    24   6 C        2.925    -0.039    28.960     8.825
    25   6 C        2.912    -0.035    28.873     8.811
    26   6 C        3.037    -0.000    28.002     8.680
    27   6 C        3.036    -0.000    28.002     8.680
    28   6 C        2.912    -0.035    28.873     8.811
    29   6 C        2.925    -0.039    28.961     8.825
    30   6 C        2.978     0.007    27.852     8.657
    31   6 C        2.975     0.011    27.756     8.642
    32   6 C        2.930    -0.032    28.809     8.802
    33   6 C        2.914    -0.048    29.202     8.861
    34   6 C        2.789     0.162    24.481     8.105
    35   9 F        0.786    -0.259    11.865     4.069
    36   6 C        2.914    -0.048    29.203     8.862
    37   6 C        2.930    -0.033    28.815     8.803
    38   6 C        2.919    -0.041    29.012     8.833
    39   6 C        3.053     0.005    27.852     8.655
    40   6 C        2.907    -0.076    29.886     8.964
    41   6 C        2.871     0.127    25.206     8.230
    42   8 O        1.711    -0.260    18.304     5.776
    43   6 C        2.884     0.117    25.418     8.265
    44   6 C        2.919    -0.058    29.447     8.899
    45   6 C        2.918    -0.045    29.116     8.848
    46   6 C        2.919    -0.041    29.027     8.835
    47   6 C        2.924    -0.064    29.604     8.923
    48   6 C        2.916     0.041    27.073     8.532
    49   1 H        0.925     0.031     2.578     2.511
    50   1 H        0.925     0.033     2.542     2.493
    51   1 H        0.925     0.035     2.512     2.478
    52   1 H        0.924     0.028     2.620     2.531
    53   1 H        0.924     0.032     2.565     2.505
    54   1 H        0.924     0.033     2.544     2.494
    55   1 H        0.924     0.030     2.584     2.514
    56   1 H        0.924     0.031     2.570     2.507
    57   1 H        0.924     0.037     2.486     2.466
    58   1 H        0.924     0.039     2.457     2.451
    59   1 H        0.924     0.043     2.416     2.431
    60   1 H        0.924     0.051     2.312     2.378
    61   1 H        0.924     0.050     2.318     2.381
    62   1 H        0.926     0.040     2.451     2.448
    63   1 H        0.924     0.054     2.265     2.353
    64   1 H        0.923     0.056     2.243     2.342
    65   1 H        0.925     0.024     2.668     2.554
    66   1 H        0.924     0.057     2.235     2.338
    67   1 H        0.926     0.035     2.514     2.479
    68   1 H        0.926     0.053     2.279     2.361
    69   1 H        0.926     0.056     2.250     2.346
    70   1 H        0.926     0.055     2.255     2.348
    71   1 H        0.926     0.053     2.285     2.364
    72   1 H        0.926     0.036     2.509     2.477
    73   1 H        0.926     0.035     2.518     2.481
    74   1 H        0.926     0.035     2.518     2.481
    75   1 H        0.926     0.036     2.508     2.476
    76   1 H        0.926     0.053     2.283     2.363
    77   1 H        0.926     0.055     2.256     2.349
    78   1 H        0.926     0.056     2.251     2.346
    79   1 H        0.926     0.053     2.278     2.360
    80   1 H        0.926     0.035     2.512     2.478
    81   1 H        0.926     0.042     2.426     2.436
    82   1 H        0.926     0.042     2.420     2.433
    83   1 H        0.926     0.035     2.510     2.478
    84   1 H        0.926     0.036     2.498     2.472
    85   1 H        0.926     0.044     2.391     2.418

molecular dipole:
                 x           y           z       tot (Debye)
 q only:        0.810      -0.160       0.970
   full:        0.868      -0.179       0.967       3.334

 projected vibrational frequencies (cm⁻¹)
eigval :       -0.00    -0.00     0.00     0.00     0.00     0.00
eigval :        4.56     6.55    13.59    16.51    17.63    25.65
eigval :       30.76    31.66    41.08    45.04    47.69    51.60
eigval :       61.03    67.75    70.06    86.50    92.89   111.73
eigval :      133.30   138.66   143.69   151.77   163.85   167.70
eigval :      171.49   178.17   194.97   228.06   244.07   250.37
eigval :      252.94   256.34   263.31   272.73   284.00   292.15
eigval :      312.08   320.19   353.95   358.59   373.90   375.08
eigval :      378.72   379.79   385.21   389.53   405.10   409.29
eigval :      411.02   418.67   425.45   439.66   446.07   454.34
eigval :      471.66   482.16   490.78   502.06   507.43   513.20
eigval :      519.61   528.76   540.99   543.95   566.79   569.58
eigval :      579.85   597.70   599.25   608.03   618.55   627.20
eigval :      633.19   660.63   672.57   673.45   680.78   684.92
eigval :      695.90   702.21   723.20   752.33   760.50   768.89
eigval :      771.82   774.30   794.13   796.70   805.01   812.31
eigval :      816.97   821.66   828.44   833.00   836.06   842.37
eigval :      847.19   855.47   863.68   868.62   868.77   886.28
eigval :      891.37   892.29   896.06   898.37   905.01   908.58
eigval :      910.55   912.17   913.16   914.60   918.04   919.51
eigval :      921.90   926.88   940.96   995.95  1005.39  1005.45
eigval :     1006.28  1023.85  1040.86  1050.50  1062.24  1071.82
eigval :     1072.83  1074.01  1092.84  1101.43  1120.04  1120.22
eigval :     1127.70  1129.29  1135.80  1143.78  1144.69  1149.64
eigval :     1157.20  1159.12  1161.05  1165.28  1167.73  1172.10
eigval :     1181.09  1183.46  1184.11  1185.34  1206.11  1206.88
eigval :     1220.14  1228.18  1234.93  1238.84  1240.25  1247.26
eigval :     1257.08  1257.61  1257.85  1261.87  1269.91  1275.17
eigval :     1275.43  1288.85  1292.01  1297.33  1309.45  1318.58
eigval :     1319.00  1324.77  1330.03  1334.45  1337.82  1351.46
eigval :     1355.59  1361.12  1361.83  1364.84  1366.33  1398.23
eigval :     1399.97  1401.52  1412.81  1418.43  1437.54  1437.89
eigval :     1440.09  1445.69  1459.63  1483.46  1486.86  1488.03
eigval :     1491.06  1491.48  1494.39  1498.41  1498.99  1504.40
eigval :     1511.83  1567.25  1571.29  1577.68  1582.36  1585.53
eigval :     1585.98  1588.35  1590.97  1600.05  1605.07  1609.93
eigval :     1646.94  1667.20  2876.04  2928.87  2951.83  2954.44
eigval :     2955.56  2956.85  2959.40  2971.32  2972.69  2981.71
eigval :     2987.48  2992.77  3002.79  3024.17  3028.06  3042.56
eigval :     3052.23  3074.25  3075.62  3080.73  3081.17  3082.52
eigval :     3085.74  3087.60  3090.26  3090.90  3091.95  3092.52
eigval :     3092.58  3094.09  3103.27  3103.29  3103.45  3105.31
eigval :     3105.39  3110.10  3122.83

   temp. (K)  partition function   enthalpy   heat capacity  entropy
                                   cal/mol     cal/K/mol   cal/K/mol   J/K/mol
 298.15  VIB  0.150E+22            24508.020    148.705    156.114
         ROT  0.147E+09              888.752      2.981     40.350
         INT  0.220E+30            25396.772    151.685    196.464
         TR   0.154E+29             1481.254      4.968     45.202
         TOT                       26878.0264   156.6536   241.6654  1011.1281

       T/K    H(0)-H(T)+PV         H(T)/Eh          T*S/Eh         G(T)/Eh
   ------------------------------------------------------------------------
    298.15    0.428329E-01    0.715778E+00    0.114823E+00    0.600955E+00
   ------------------------------------------------------------------------

         :::::::::::::::::::::::::::::::::::::::::::::::::::::
         ::                  THERMODYNAMIC                  ::
         :::::::::::::::::::::::::::::::::::::::::::::::::::::
         :: total free energy        -129.021277643672 Eh   ::
         ::.................................................::
         :: total energy             -129.622232200525 Eh   ::
         :: zero point energy           0.672944735363 Eh   ::
         :: G(RRHO) w/o ZPVE           -0.071990178510 Eh   ::
         :: G(RRHO) contrib.            0.600954556853 Eh   ::
         :::::::::::::::::::::::::::::::::::::::::::::::::::::

           -------------------------------------------------
          | TOTAL ENERGY             -129.622232200525 Eh   |
          | TOTAL ENTHALPY           -128.906454603727 Eh   |
          | TOTAL FREE ENERGY        -129.021277643672 Eh   |
          | GRADIENT NORM               0.000032303950 Eh/α |
          | HOMO-LUMO GAP               2.162892814398 eV   |
           -------------------------------------------------

 * finished run on 2025/09/09 at 14:46:15.354
