   * xtb version 6.7.1 (edcfbbe) compiled by 'albert@albert-system' on 2024-07-22

   ID    Z sym.   atoms
    1    6 C      1-6, 8-20, 22-34, 36-41, 43-48
    2    7 N      7
    3    9 F      21, 35
    4    8 O      42
    5    1 H      49-85

          program call               : xtb data2507/toluene/DFPFPhe/DFPFPhe_toluene_S0_crest.xyz --gfn 2 --gbsa toluene --ohess vtight --parallel 40 --molden --ceasefiles --namespace data2507/toluene/DFPFPhe/DFPFPhe_toluene_S0_finalOpt
      * Solvation model:               GBSA
        Solvent                        toluene
        Solvent mass                       9.2140E+01 g/mol
          :  Hamiltonian                  GFN2-xTB          :
 * total energy  :  -129.6202633 Eh     change       -0.3386077E-08 Eh
 * total energy  :  -129.6204061 Eh     change       -0.1427744E-03 Eh
 * total energy  :  -129.6205106 Eh     change       -0.1044780E-03 Eh
 * total energy  :  -129.6205685 Eh     change       -0.5787777E-04 Eh
 * total energy  :  -129.6206275 Eh     change       -0.5901571E-04 Eh
 * total energy  :  -129.6207287 Eh     change       -0.1012264E-03 Eh
 * total energy  :  -129.6208160 Eh     change       -0.8725825E-04 Eh
 * total energy  :  -129.6208814 Eh     change       -0.6540688E-04 Eh
 * total energy  :  -129.6209299 Eh     change       -0.4847919E-04 Eh
 * total energy  :  -129.6209602 Eh     change       -0.3030842E-04 Eh
 * total energy  :  -129.6213772 Eh     change       -0.1802106E-05 Eh
 * total energy  :  -129.6213782 Eh     change       -0.1024026E-05 Eh
 * total energy  :  -129.6213783 Eh     change       -0.4822232E-07 Eh
 * total energy  :  -129.6213789 Eh     change       -0.5952838E-06 Eh
 * total energy  :  -129.6213796 Eh     change       -0.7415319E-06 Eh
 * total energy  :  -129.6213801 Eh     change       -0.5359911E-06 Eh
 * total energy  :  -129.6213805 Eh     change       -0.3188592E-06 Eh
 * total energy  :  -129.6213807 Eh     change       -0.2447053E-06 Eh
 * total energy  :  -129.6213807 Eh     change       -0.3300386E-08 Eh
   *** GEOMETRY OPTIMIZATION CONVERGED AFTER 44 ITERATIONS ***

 final structure:
================
85
 xtb: 6.7.1 (edcfbbe)
C           -2.63750628070300       -3.67965850102377        3.35870021399281
C           -2.30376965227696       -2.20187374424719        3.19298889162083
C           -3.56087125946219       -1.34190226257086        3.08240138866851
C           -3.22309742142756        0.13627314638381        2.90281436244823
C           -4.47238651115831        0.98975848391753        2.69224290297477
C           -4.14042516891925        2.44689856181984        2.34231530233027
N           -3.54897212906249        2.57664018923278        1.02579604263299
C           -2.16327942986646        2.61857161526942        0.86921707490541
C           -1.26739815218990        2.77613323863387        1.85845655284882
C            0.21150796272591        2.76209451327297        1.60917111610609
C            0.55765891762416        1.92677193168260        0.40893392526703
C            1.58917548915813        1.07672360268825        0.41005886296813
C            1.95701318368969        0.13790974153330       -0.70996981723235
C            3.31368675758770       -0.47962647295655       -0.49849873027884
C            4.54002390361992        0.14275080374586       -0.45231256288638
C            5.68683749430358       -0.62123330569696       -0.21890640476413
C            7.00852821553743        0.02303534664843       -0.17208719252888
C            7.17906047736155        1.24462911911781        0.47831589467929
C            8.41814791596876        1.85523666431184        0.53184154958611
C            9.48993738128940        1.23277539795024       -0.07970875119391
F           10.71286013926338        1.82867125588579       -0.03382063324276
C            9.35815172568621        0.02394885080051       -0.73677928585522
C            8.11322103599653       -0.57582279855539       -0.77635879308749
C            5.56728201725593       -1.99862170434910       -0.02686080700107
C            4.33556907373596       -2.62750320340820       -0.06013899122687
C            3.20237109110116       -1.86575536315169       -0.29934759806601
C            1.80257931726561       -2.23591026224135       -0.40923324110557
C            1.16131635123005       -3.46110359191405       -0.30031891151033
C           -0.20883633742602       -3.52130179912027       -0.48344107207523
C           -0.95368007570486       -2.37924135494659       -0.78640465860036
C           -2.40548080576175       -2.44608678422173       -1.00952030099869
C           -3.22948110747783       -1.38548511227634       -0.62988932704408
C           -4.59200440318470       -1.41917769118392       -0.85501336988951
C           -5.13321948551640       -2.53443893595094       -1.46601840137533
F           -6.47415258933837       -2.57785062180277       -1.69260517098912
C           -4.35194228709471       -3.60681821770731       -1.85333076240130
C           -2.98971760309946       -3.55399303985381       -1.62361360298415
C           -0.29970859749969       -1.14806516545905       -0.88715158523562
C            1.05876587366473       -1.07967987790072       -0.69027175830493
C           -0.35149095841093        2.10926782731257       -0.70083649078786
C           -1.63487310343171        2.45657196737517       -0.48945600985442
O           -2.44301280004868        2.61682766688308       -1.57613963102393
C           -3.79845503741389        2.60486359578592       -1.37828270529228
C           -4.58397555610279        2.63404848576800       -2.51897823237178
C           -5.96208510454438        2.58015445511341       -2.42005992572943
C           -6.54098274465053        2.48496891296460       -1.16725604285849
C           -5.76009740072960        2.46098054279344       -0.02562510619773
C           -4.36607006925341        2.53758086866455       -0.09468138998987
H           -1.72728667973157       -4.27269970577514        3.41402646953141
H           -3.21067177124647       -3.84309500752136        4.26936174666685
H           -3.22794207991869       -4.03338330359810        2.51574371869498
H           -1.70871698936164       -1.86679316950683        4.04601828065891
H           -1.69790761666034       -2.06649769811166        2.29374480768436
H           -4.14948565553246       -1.68408746043036        2.22742671909199
H           -4.17189728789431       -1.47143964184253        3.97913169205194
H           -2.55841364938981        0.24223090611313        2.04363774789166
H           -2.67993743028067        0.49331934659930        3.78066215867237
H           -5.06807991488111        0.55352059547758        1.88807863235552
H           -5.07888711798467        0.97995357389017        3.60015300344707
H           -3.45229944892462        2.85144659253955        3.08157944536705
H           -5.04357382169674        3.06092002440574        2.37987982372318
H           -1.55736667697586        2.93880855018373        2.88177121981785
H            0.55423846973086        3.79312249636131        1.43547472277364
H            0.73207403072624        2.39523563263231        2.49529716472049
H            2.18923243678148        0.97837186069277        1.30419081506661
H            1.89307013130358        0.65452570393143       -1.67315653446064
H            4.62142222258564        1.20722126446134       -0.61781084315193
H            6.33730051427906        1.71335066237596        0.96491839641120
H            8.56148818397429        2.79707655823741        1.03834822286817
H           10.21753965650212       -0.42869968197184       -1.20664298356937
H            7.99390026153795       -1.51221172215399       -1.29974333305974
H            6.45531841749547       -2.57957783846655        0.17526243329735
H            4.26252178807924       -3.69318946592633        0.09895188812354
H            1.71930470624795       -4.35752905070611       -0.07321190592184
H           -0.71473557582345       -4.46879930419686       -0.37145077390912
H           -2.80246247981622       -0.52668514359688       -0.13653983277089
H           -5.23054857661281       -0.59698954199267       -0.57096562315491
H           -4.80938843353950       -4.45873766348231       -2.33215805444986
H           -2.37073113406576       -4.37673385431382       -1.94654648373247
H           -0.85613547048600       -0.26004512689592       -1.13892430310836
H           -0.01922138403520        1.92559588259174       -1.71137048387701
H           -4.08722764725595        2.69095573078417       -3.47526002114478
H           -6.57080582022241        2.60181254940503       -3.31023955273774
H           -7.61471033141441        2.42527533185629       -1.06963605430658
H           -6.25869499471988        2.38077351423187        0.92513765889804

          :  Hamiltonian                  GFN2-xTB          :
         :: gradient norm              0.000043003929 Eh/a0 ::
         :: HOMO-LUMO gap              2.158244371262 eV    ::
         :: SCC energy              -131.763492666855 Eh    ::
         :: -> dispersion             -0.112968075311 Eh    ::
         :: -> Gsolv                  -0.048031022547 Eh    ::
         :: repulsion energy           2.142111967239 Eh    ::

    * Orbital Energies and Occupations

         #    Occupation            Energy/Eh            Energy/eV
      -------------------------------------------------------------
         1        2.0000           -0.8185357             -22.2735
       ...           ...                  ...                  ...
       107        2.0000           -0.4194138             -11.4128
       108        2.0000           -0.4185689             -11.3898
       109        2.0000           -0.4184691             -11.3871
       110        2.0000           -0.4166408             -11.3374
       111        2.0000           -0.4109707             -11.1831
       112        2.0000           -0.4074963             -11.0885
       113        2.0000           -0.4047425             -11.0136
       114        2.0000           -0.3986946             -10.8490
       115        2.0000           -0.3982709             -10.8375
       116        2.0000           -0.3953886             -10.7591
       117        2.0000           -0.3726680             -10.1408
       118        2.0000           -0.3539428              -9.6313
       119        2.0000           -0.3461413              -9.4190 (HOMO)
       120                         -0.2668273              -7.2607 (LUMO)
       121                         -0.2537691              -6.9054
       122                         -0.2429202              -6.6102
       123                         -0.2378631              -6.4726
       124                         -0.2376208              -6.4660
       125                         -0.2235654              -6.0835
       126                         -0.2215021              -6.0274
       127                         -0.2189127              -5.9569
       128                         -0.2178604              -5.9283
       129                         -0.2161875              -5.8828
       130                         -0.1799697              -4.8972
       ...                                ...                  ...
       229                          0.7335474              19.9608
      -------------------------------------------------------------
                  HL-Gap            0.0793140 Eh            2.1582 eV

     #   Z          covCN         q      C6AA      α(0)
     1   6 C        3.752    -0.101    22.497     6.764
     2   6 C        3.801    -0.053    21.518     6.605
     3   6 C        3.803    -0.059    21.634     6.622
     4   6 C        3.803    -0.057    21.597     6.616
     5   6 C        3.802    -0.064    21.721     6.635
     6   6 C        3.747    -0.008    20.779     6.502
     7   7 N        2.742    -0.067    22.547     7.052
     8   6 C        2.903     0.035    27.208     8.553
     9   6 C        2.909    -0.079    29.968     8.976
    10   6 C        3.817    -0.062    21.671     6.625
    11   6 C        2.956     0.005    27.902     8.664
    12   6 C        2.904    -0.051    29.266     8.870
    13   6 C        3.892    -0.021    20.900     6.499
    14   6 C        3.052     0.004    27.873     8.659
    15   6 C        2.919    -0.041    29.016     8.833
    16   6 C        2.978     0.007    27.850     8.657
    17   6 C        2.975     0.011    27.757     8.642
    18   6 C        2.930    -0.032    28.809     8.802
    19   6 C        2.914    -0.048    29.203     8.861
    20   6 C        2.789     0.162    24.480     8.105
    21   9 F        0.786    -0.259    11.867     4.069
    22   6 C        2.914    -0.048    29.202     8.861
    23   6 C        2.930    -0.033    28.815     8.803
    24   6 C        2.925    -0.038    28.954     8.824
    25   6 C        2.912    -0.035    28.866     8.810
    26   6 C        3.037    -0.000    27.997     8.679
    27   6 C        3.035    -0.000    27.998     8.679
    28   6 C        2.913    -0.035    28.873     8.811
    29   6 C        2.924    -0.038    28.945     8.823
    30   6 C        2.977     0.008    27.846     8.656
    31   6 C        2.974     0.012    27.743     8.640
    32   6 C        2.931    -0.029    28.713     8.788
    33   6 C        2.914    -0.047    29.173     8.857
    34   6 C        2.789     0.162    24.483     8.105
    35   9 F        0.786    -0.258    11.856     4.067
    36   6 C        2.914    -0.049    29.209     8.862
    37   6 C        2.930    -0.033    28.815     8.803
    38   6 C        2.921    -0.043    29.080     8.843
    39   6 C        3.053     0.006    27.840     8.653
    40   6 C        2.910    -0.074    29.858     8.960
    41   6 C        2.877     0.126    25.238     8.236
    42   8 O        1.710    -0.263    18.365     5.786
    43   6 C        2.887     0.118    25.402     8.263
    44   6 C        2.919    -0.058    29.440     8.898
    45   6 C        2.918    -0.045    29.105     8.847
    46   6 C        2.919    -0.041    29.029     8.835
    47   6 C        2.924    -0.065    29.624     8.926
    48   6 C        2.916     0.041    27.077     8.533
    49   1 H        0.925     0.034     2.530     2.487
    50   1 H        0.925     0.034     2.531     2.488
    51   1 H        0.925     0.031     2.570     2.507
    52   1 H        0.924     0.030     2.583     2.513
    53   1 H        0.924     0.028     2.619     2.531
    54   1 H        0.924     0.028     2.610     2.527
    55   1 H        0.924     0.032     2.562     2.503
    56   1 H        0.924     0.031     2.570     2.507
    57   1 H        0.924     0.033     2.545     2.495
    58   1 H        0.924     0.041     2.438     2.442
    59   1 H        0.924     0.042     2.424     2.435
    60   1 H        0.925     0.057     2.238     2.340
    61   1 H        0.924     0.050     2.316     2.380
    62   1 H        0.926     0.036     2.504     2.475
    63   1 H        0.923     0.052     2.292     2.367
    64   1 H        0.924     0.049     2.326     2.385
    65   1 H        0.925     0.032     2.556     2.500
    66   1 H        0.924     0.057     2.235     2.338
    67   1 H        0.926     0.037     2.496     2.470
    68   1 H        0.926     0.054     2.271     2.357
    69   1 H        0.926     0.056     2.251     2.346
    70   1 H        0.926     0.055     2.256     2.349
    71   1 H        0.926     0.053     2.283     2.363
    72   1 H        0.926     0.035     2.511     2.478
    73   1 H        0.926     0.035     2.520     2.482
    74   1 H        0.926     0.035     2.512     2.478
    75   1 H        0.926     0.038     2.482     2.464
    76   1 H        0.926     0.048     2.339     2.391
    77   1 H        0.926     0.051     2.307     2.375
    78   1 H        0.926     0.055     2.253     2.347
    79   1 H        0.926     0.054     2.272     2.357
    80   1 H        0.926     0.037     2.493     2.469
    81   1 H        0.926     0.044     2.397     2.421
    82   1 H        0.926     0.041     2.432     2.439
    83   1 H        0.926     0.034     2.533     2.489
    84   1 H        0.926     0.035     2.523     2.484
    85   1 H        0.926     0.043     2.407     2.426

molecular dipole:
                 x           y           z       tot (Debye)
 q only:       -0.369      -0.317       1.261
   full:       -0.422      -0.224       1.216       3.320

 projected vibrational frequencies (cm⁻¹)
eigval :       -0.00    -0.00    -0.00     0.00     0.00     0.00
eigval :      -12.54    14.84    21.43    22.25    25.99    33.56
eigval :       35.82    40.95    46.12    51.07    58.12    65.73
eigval :       75.69    79.88    85.06    93.71   101.71   114.91
eigval :      126.82   142.69   146.43   153.63   157.59   166.71
eigval :      176.66   184.61   206.85   223.39   226.64   241.26
eigval :      250.16   251.51   274.26   277.56   278.92   307.95
eigval :      321.01   334.77   346.93   361.16   374.04   375.05
eigval :      380.97   383.50   387.01   391.22   402.13   412.65
eigval :      418.09   419.57   432.76   440.13   444.10   453.22
eigval :      466.74   474.67   491.18   501.83   510.25   515.17
eigval :      522.18   529.62   538.78   540.71   563.89   567.47
eigval :      589.54   595.96   601.02   607.88   621.43   624.71
eigval :      638.99   660.37   661.48   676.62   678.06   683.54
eigval :      690.19   701.88   724.57   728.01   753.14   766.71
eigval :      768.85   772.29   792.65   793.34   807.70   812.41
eigval :      813.70   822.10   828.27   832.73   835.24   841.51
eigval :      847.76   854.42   866.88   869.62   874.95   882.60
eigval :      886.90   894.54   896.29   906.89   909.19   912.73
eigval :      913.69   915.73   915.87   918.57   924.61   928.67
eigval :      929.24   939.86   944.58   967.18   997.26  1005.66
eigval :     1006.79  1013.01  1055.13  1062.30  1070.57  1072.77
eigval :     1075.86  1091.38  1092.77  1107.02  1113.13  1119.50
eigval :     1120.87  1122.44  1125.98  1129.85  1138.33  1146.31
eigval :     1151.48  1156.74  1159.60  1160.90  1166.00  1166.93
eigval :     1179.91  1181.87  1185.69  1194.49  1206.18  1211.56
eigval :     1212.60  1224.22  1226.17  1238.02  1242.91  1248.74
eigval :     1251.83  1257.33  1260.60  1263.83  1267.68  1276.61
eigval :     1282.13  1285.11  1293.35  1296.66  1308.31  1311.74
eigval :     1318.85  1319.55  1320.02  1326.08  1327.61  1327.88
eigval :     1344.04  1356.57  1362.36  1363.45  1378.22  1380.99
eigval :     1398.63  1402.07  1411.90  1420.18  1436.04  1439.66
eigval :     1441.04  1449.59  1460.19  1479.03  1484.87  1487.16
eigval :     1491.13  1492.05  1492.50  1494.80  1500.19  1502.54
eigval :     1505.45  1567.20  1570.32  1577.42  1582.00  1585.48
eigval :     1587.25  1588.44  1591.36  1601.49  1607.32  1617.57
eigval :     1659.25  1671.85  2858.00  2918.10  2954.14  2960.87
eigval :     2963.17  2969.27  2972.69  2976.76  2979.37  2980.96
eigval :     2987.40  2993.38  3022.92  3026.87  3029.17  3033.90
eigval :     3063.10  3074.11  3076.19  3079.26  3082.33  3085.70
eigval :     3085.95  3088.30  3090.69  3092.47  3092.86  3093.75
eigval :     3095.37  3103.44  3103.94  3104.12  3105.58  3106.13
eigval :     3114.15  3114.41  3125.14

   temp. (K)  partition function   enthalpy   heat capacity  entropy
                                   cal/mol     cal/K/mol   cal/K/mol   J/K/mol
 298.15  VIB  0.125E+20            24282.269    150.161    151.768
         ROT  0.870E+08              888.752      2.981     39.311
         INT  0.109E+28            25171.022    153.142    191.079
         TR   0.154E+29             1481.254      4.968     45.202
         TOT                       26652.2756   158.1097   236.2806   988.5980

       T/K    H(0)-H(T)+PV         H(T)/Eh          T*S/Eh         G(T)/Eh
   ------------------------------------------------------------------------
    298.15    0.424731E-01    0.715811E+00    0.112265E+00    0.603546E+00
   ------------------------------------------------------------------------

         :::::::::::::::::::::::::::::::::::::::::::::::::::::
         ::                  THERMODYNAMIC                  ::
         :::::::::::::::::::::::::::::::::::::::::::::::::::::
         :: total free energy        -129.017834380945 Eh   ::
         ::.................................................::
         :: total energy             -129.621380693412 Eh   ::
         :: zero point energy           0.673337741640 Eh   ::
         :: G(RRHO) w/o ZPVE           -0.069791429173 Eh   ::
         :: G(RRHO) contrib.            0.603546312467 Eh   ::
         :::::::::::::::::::::::::::::::::::::::::::::::::::::

           -------------------------------------------------
          | TOTAL ENERGY             -129.621380693412 Eh   |
          | TOTAL ENTHALPY           -128.905569847057 Eh   |
          | TOTAL FREE ENERGY        -129.017834380945 Eh   |
          | GRADIENT NORM               0.000043009278 Eh/α |
          | HOMO-LUMO GAP               2.158244161562 eV   |
           -------------------------------------------------

 * finished run on 2025/09/09 at 15:10:07.593
