   * xtb version 6.7.1 (edcfbbe) compiled by 'albert@albert-system' on 2024-07-22

   ID    Z sym.   atoms
    1    6 C      1-6, 8-20, 22-34, 36-41, 43-48
    2    7 N      7
    3    9 F      21, 35
    4    8 O      42
    5    1 H      49-85

          program call               : xtb data2507/toluene/DFPFPhe/DFPFPhe_toluene_S0_finalOpt.xtbopt.xyz --gfn 2 --uhf 2 --gbsa toluene --ohess vtight --parallel 40 --molden --ceasefiles --namespace data2507/toluene/DFPFPhe/DFPFPhe_toluene_T1_preOpt
      * Solvation model:               GBSA
        Solvent                        toluene
        Solvent mass                       9.2140E+01 g/mol
          :  Hamiltonian                  GFN2-xTB          :
 * total energy  :  -129.5279885 Eh     change       -0.6095203E-07 Eh
 * total energy  :  -129.5354526 Eh     change       -0.7464077E-02 Eh
 * total energy  :  -129.5394330 Eh     change       -0.3980373E-02 Eh
 * total energy  :  -129.5400186 Eh     change       -0.5856240E-03 Eh
 * total energy  :  -129.5408330 Eh     change       -0.8144354E-03 Eh
 * total energy  :  -129.5410665 Eh     change       -0.2334753E-03 Eh
 * total energy  :  -129.5412906 Eh     change       -0.2240439E-03 Eh
 * total energy  :  -129.5414273 Eh     change       -0.1367064E-03 Eh
 * total energy  :  -129.5415108 Eh     change       -0.8354330E-04 Eh
 * total energy  :  -129.5415898 Eh     change       -0.7898042E-04 Eh
 * total energy  :  -129.5452996 Eh     change       -0.1037701E-05 Eh
 * total energy  :  -129.5453006 Eh     change       -0.9463568E-06 Eh
 * total energy  :  -129.5453014 Eh     change       -0.8060654E-06 Eh
 * total energy  :  -129.5453019 Eh     change       -0.5897826E-06 Eh
 * total energy  :  -129.5453024 Eh     change       -0.4775435E-06 Eh
 * total energy  :  -129.5453030 Eh     change       -0.5984284E-06 Eh
 * total energy  :  -129.5453036 Eh     change       -0.6215718E-06 Eh
 * total energy  :  -129.5453044 Eh     change       -0.7125974E-06 Eh
 * total energy  :  -129.5453044 Eh     change       -0.7270614E-08 Eh
   *** GEOMETRY OPTIMIZATION CONVERGED AFTER 260 ITERATIONS ***

 final structure:
================
85
 xtb: 6.7.1 (edcfbbe)
C           -5.46873796703032       -3.12051627989307        4.38821798822476
C           -4.42274686717495       -2.03324503880436        4.16986860113415
C           -5.06163215621892       -0.66475637129412        3.93997528745768
C           -4.01858198219800        0.41571800614019        3.66027206866118
C           -4.65803243071170        1.79426020394160        3.50925759446437
C           -3.65370439224810        2.88926980189731        3.11960961056523
N           -3.17689281479602        2.76158152388570        1.76046065119237
C           -1.95014453482221        2.17088214163331        1.45786160900138
C           -1.09712643300329        1.64148349002007        2.42242230330148
C            0.23011635715140        1.06029138927003        2.11509787010769
C            0.53831518042904        0.90611395576920        0.65290026558107
C            1.70380579439023        0.20743177412694        0.33193891266013
C            2.09652173625580       -0.21692314004183       -1.04083428037294
C            3.56246570751081       -0.54497339666982       -1.15859875493569
C            4.63989495725992        0.29498359803770       -1.00449464453358
C            5.93421268330836       -0.21609295197282       -1.15042586968254
C            7.09906045588055        0.66487994309416       -0.99031173604800
C            7.12720247814993        1.62603461510439        0.02079745264223
C            8.21787470743637        2.45941897483058        0.18124703164535
C            9.28617699182323        2.32642901521024       -0.68588611285342
F           10.36403803079357        3.14536214384504       -0.53604570790966
C            9.29354247272717        1.38783632901050       -1.70076241551188
C            8.19709791167450        0.55877290625808       -1.84446084864037
C            6.10637629238174       -1.57039185257877       -1.44604340493543
C            5.02661488579503       -2.42118242156109       -1.59247651973756
C            3.74499183143067       -1.90849170058763       -1.44832200525539
C            2.44432890243748       -2.53818589849298       -1.54402190928400
C            2.07111639721390       -3.85139062289353       -1.79645683667152
C            0.72711365107482       -4.17078127534040       -1.83545559700442
C           -0.26097044834817       -3.20404379485512       -1.62235943514482
C           -1.68488534780346       -3.56311953089561       -1.66287720411407
C           -2.58900132169948       -2.97648790020506       -0.77559649625377
C           -3.93114120846194       -3.30361141550672       -0.80480333787888
C           -4.36787405353281       -4.22750951275448       -1.73581514430526
F           -5.68924421109274       -4.55494199353895       -1.77091362161320
C           -3.50386924718036       -4.82802917275314       -2.63203679539448
C           -2.16416918077477       -4.49088794211233       -2.58854435125001
C            0.11998912405225       -1.88440158571358       -1.36228835604336
C            1.45577957137105       -1.56167744844714       -1.33329146469622
C           -0.33420561922597        1.44967279118128       -0.26420174850732
C           -1.54547035891602        2.09155287736650        0.12113549673885
O           -2.29086227810263        2.58663757300266       -0.91711291304983
C           -3.50271940114497        3.14332571273672       -0.61072605657262
C           -4.25062493224825        3.61827442330101       -1.67373196272883
C           -5.49451950838371        4.19497584444220       -1.45402288360388
C           -5.97576574265087        4.27929647600784       -0.16605618364573
C           -5.22667776750613        3.80047632365021        0.90431592070342
C           -3.97259119070523        3.22968526863257        0.71232533100854
H           -4.99105121716420       -4.08310828221558        4.55812699365904
H           -6.08836610301204       -2.88713453160238        5.25186991418452
H           -6.11635033353477       -3.20919970261812        3.51790844966704
H           -3.76666932967259       -1.98282654556635        5.04234787460683
H           -3.80424853997275       -2.29438107840162        3.30793687131921
H           -5.75331546385220       -0.72681866806915        3.09591958075041
H           -5.64378792710271       -0.38797245010239        4.82257278759101
H           -3.47736276819549        0.16135070957122        2.74641815030585
H           -3.29862497436294        0.43547856635629        4.48171647335667
H           -5.44014312752270        1.73936933901743        2.74962875539465
H           -5.12702145532697        2.08028122295201        4.45309189935592
H           -2.80192839771702        2.87037149627970        3.79795926618781
H           -4.12029784964623        3.87293038111788        3.22602061125895
H           -1.37027485071890        1.62705302229124        3.46174657559705
H            1.02017224030514        1.68152338711400        2.57066949876487
H            0.32460951097106        0.08337286763806        2.61244048145925
H            2.31023536844353       -0.17878091099907        1.13727769917128
H            1.79241529420375        0.52948610903737       -1.78121854332244
H            4.49191261256898        1.34464480763274       -0.79678003516751
H            6.29393533652731        1.70882820288454        0.70180762044425
H            8.25087256031356        3.20091953350801        0.96439914604401
H           10.14399695665476        1.31763718786092       -2.36113284311148
H            8.18425644370292       -0.16629842063091       -2.64394774369231
H            7.10830949947665       -1.96400225878790       -1.53670145378788
H            5.18149869984817       -3.46713607113008       -1.81241984001145
H            2.81826780316264       -4.61531389833507       -1.95399834617219
H            0.43139888088360       -5.19518509035256       -2.00813007734385
H           -2.23332513638455       -2.26845735657476       -0.04260561373261
H           -4.63680195124688       -2.85749754198044       -0.12140276209818
H           -3.88298153380744       -5.54027442381178       -3.34844548240410
H           -1.48546385761969       -4.93918062785650       -3.29786790754198
H           -0.62909212572286       -1.12264710612370       -1.20816429915588
H           -0.13976196485952        1.41298842077740       -1.32396875240434
H           -3.83879398297696        3.52788889431472       -2.66693533428677
H           -6.07074810270461        4.56543318044988       -2.28738301301476
H           -6.94276417546656        4.71816796306325        0.02790894419556
H           -5.65010330512967        3.88494448557074        1.89020193053500

          :  Hamiltonian                  GFN2-xTB          :
         :: gradient norm              0.000060793503 Eh/a0 ::
         :: HOMO-LUMO gap              0.153891981765 eV    ::
         :: SCC energy              -131.666079702325 Eh    ::
         :: -> dispersion             -0.103991406770 Eh    ::
         :: -> Gsolv                  -0.053569869406 Eh    ::
         :: repulsion energy           2.120775335229 Eh    ::

    * Orbital Energies and Occupations

         #    Occupation            Energy/Eh            Energy/eV
      -------------------------------------------------------------
         1        2.0000           -0.8173727             -22.2418
       ...           ...                  ...                  ...
       108        2.0000           -0.4178983             -11.3716
       109        2.0000           -0.4175953             -11.3633
       110        2.0000           -0.4158589             -11.3161
       111        2.0000           -0.4140127             -11.2659
       112        2.0000           -0.4092676             -11.1367
       113        2.0000           -0.4041975             -10.9988
       114        2.0000           -0.3979360             -10.8284
       115        2.0000           -0.3972049             -10.8085
       116        2.0000           -0.3951776             -10.7533
       117        2.0000           -0.3710164             -10.0959
       118        1.9971           -0.3482933              -9.4775
       119        1.0029           -0.3371674              -9.1748
       120        0.9515           -0.2709441              -7.3728 (HOMO)
       121        0.0485           -0.2652886              -7.2189 (LUMO)
       122                         -0.2412831              -6.5656
       123                         -0.2363073              -6.4303
       124                         -0.2360870              -6.4243
       125                         -0.2235257              -6.0824
       126                         -0.2216076              -6.0302
       127                         -0.2185970              -5.9483
       128                         -0.2176552              -5.9227
       129                         -0.2156347              -5.8677
       130                         -0.1801353              -4.9017
       131                         -0.1770769              -4.8185
       ...                                ...                  ...
       229                          0.7339186              19.9709
      -------------------------------------------------------------
                  HL-Gap            0.0056555 Eh            0.1539 eV

     #   Z          covCN         q      C6AA      α(0)
     1   6 C        3.752    -0.102    22.504     6.765
     2   6 C        3.801    -0.053    21.523     6.605
     3   6 C        3.803    -0.059    21.633     6.622
     4   6 C        3.802    -0.058    21.613     6.619
     5   6 C        3.801    -0.065    21.745     6.639
     6   6 C        3.745    -0.007    20.778     6.502
     7   7 N        2.743    -0.067    22.533     7.050
     8   6 C        2.900     0.041    27.087     8.534
     9   6 C        2.909    -0.082    30.039     8.987
    10   6 C        3.815    -0.060    21.636     6.620
    11   6 C        2.949     0.007    27.853     8.656
    12   6 C        2.911    -0.052    29.297     8.875
    13   6 C        3.890    -0.019    20.852     6.492
    14   6 C        3.050     0.003    27.907     8.664
    15   6 C        2.918    -0.042    29.037     8.837
    16   6 C        2.978     0.005    27.898     8.664
    17   6 C        2.975     0.010    27.781     8.646
    18   6 C        2.930    -0.033    28.834     8.806
    19   6 C        2.914    -0.049    29.216     8.863
    20   6 C        2.788     0.161    24.513     8.110
    21   9 F        0.786    -0.261    11.885     4.072
    22   6 C        2.914    -0.049    29.214     8.863
    23   6 C        2.929    -0.034    28.836     8.806
    24   6 C        2.925    -0.038    28.957     8.825
    25   6 C        2.912    -0.036    28.900     8.815
    26   6 C        3.036    -0.001    28.027     8.683
    27   6 C        3.034    -0.002    28.047     8.687
    28   6 C        2.912    -0.036    28.892     8.814
    29   6 C        2.924    -0.040    28.991     8.830
    30   6 C        2.978     0.005    27.902     8.665
    31   6 C        2.974     0.010    27.785     8.646
    32   6 C        2.930    -0.033    28.816     8.803
    33   6 C        2.914    -0.049    29.204     8.862
    34   6 C        2.788     0.161    24.512     8.110
    35   9 F        0.786    -0.260    11.879     4.071
    36   6 C        2.914    -0.049    29.217     8.864
    37   6 C        2.929    -0.034    28.836     8.807
    38   6 C        2.919    -0.042    29.048     8.838
    39   6 C        3.055     0.006    27.839     8.653
    40   6 C        2.906    -0.073    29.813     8.953
    41   6 C        2.881     0.103    25.728     8.315
    42   8 O        1.709    -0.262    18.336     5.782
    43   6 C        2.888     0.120    25.365     8.257
    44   6 C        2.919    -0.061    29.527     8.911
    45   6 C        2.917    -0.042    29.053     8.839
    46   6 C        2.918    -0.043    29.068     8.841
    47   6 C        2.924    -0.066    29.634     8.927
    48   6 C        2.917     0.041    27.077     8.533
    49   1 H        0.925     0.033     2.546     2.495
    50   1 H        0.925     0.034     2.535     2.490
    51   1 H        0.925     0.032     2.561     2.502
    52   1 H        0.924     0.030     2.585     2.514
    53   1 H        0.924     0.029     2.598     2.521
    54   1 H        0.924     0.029     2.599     2.521
    55   1 H        0.924     0.032     2.563     2.503
    56   1 H        0.924     0.034     2.531     2.488
    57   1 H        0.924     0.033     2.537     2.491
    58   1 H        0.924     0.043     2.413     2.429
    59   1 H        0.924     0.043     2.412     2.429
    60   1 H        0.925     0.058     2.219     2.330
    61   1 H        0.924     0.051     2.310     2.377
    62   1 H        0.926     0.042     2.416     2.430
    63   1 H        0.923     0.071     2.080     2.255
    64   1 H        0.923     0.066     2.133     2.284
    65   1 H        0.926     0.034     2.524     2.484
    66   1 H        0.924     0.059     2.210     2.325
    67   1 H        0.926     0.035     2.512     2.479
    68   1 H        0.926     0.053     2.285     2.364
    69   1 H        0.926     0.054     2.267     2.354
    70   1 H        0.926     0.054     2.273     2.358
    71   1 H        0.926     0.051     2.301     2.372
    72   1 H        0.926     0.034     2.529     2.487
    73   1 H        0.926     0.033     2.543     2.494
    74   1 H        0.926     0.034     2.529     2.487
    75   1 H        0.926     0.035     2.521     2.483
    76   1 H        0.926     0.051     2.308     2.376
    77   1 H        0.926     0.055     2.262     2.352
    78   1 H        0.926     0.054     2.270     2.356
    79   1 H        0.926     0.052     2.296     2.370
    80   1 H        0.926     0.038     2.481     2.463
    81   1 H        0.926     0.041     2.438     2.442
    82   1 H        0.926     0.041     2.433     2.439
    83   1 H        0.926     0.035     2.511     2.478
    84   1 H        0.926     0.036     2.503     2.474
    85   1 H        0.926     0.045     2.380     2.412

molecular dipole:
                 x           y           z       tot (Debye)
 q only:       -0.555      -0.004       1.550
   full:       -0.608       0.043       1.575       4.293

 projected vibrational frequencies (cm⁻¹)
eigval :       -0.00    -0.00    -0.00     0.00     0.00     0.00
eigval :        2.51    10.36    15.04    21.15    25.69    28.98
eigval :       33.27    39.58    47.48    51.20    56.36    59.93
eigval :       61.32    69.74    76.26    87.10   102.37   110.87
eigval :      114.88   130.04   136.41   139.75   147.11   163.49
eigval :      164.52   176.82   183.54   208.03   215.25   234.49
eigval :      244.60   247.28   270.04   274.07   277.23   283.14
eigval :      317.53   334.46   346.44   359.02   370.00   372.64
eigval :      380.15   381.11   382.32   388.17   397.84   409.07
eigval :      413.35   419.99   425.26   432.69   443.75   445.49
eigval :      451.06   467.40   474.54   488.47   503.84   507.99
eigval :      515.30   523.15   531.30   535.60   549.89   558.13
eigval :      567.25   578.43   589.10   595.10   604.83   612.06
eigval :      622.10   625.53   652.96   660.57   661.81   677.20
eigval :      677.39   684.67   686.83   703.11   720.12   752.89
eigval :      763.68   767.29   768.09   772.93   797.52   803.49
eigval :      805.85   809.74   815.38   825.66   830.00   832.03
eigval :      836.87   848.43   863.36   865.21   872.18   881.75
eigval :      885.22   886.84   890.06   893.08   904.31   906.46
eigval :      908.15   908.75   912.01   912.88   915.91   922.95
eigval :      923.41   939.12   950.38   967.06   993.17  1005.14
eigval :     1006.08  1011.35  1052.44  1065.24  1070.16  1071.31
eigval :     1072.98  1086.74  1094.69  1105.46  1108.03  1113.03
eigval :     1119.01  1121.33  1121.80  1123.46  1126.99  1135.02
eigval :     1138.08  1153.25  1158.24  1159.07  1165.08  1167.17
eigval :     1167.60  1175.98  1188.86  1190.21  1203.60  1207.77
eigval :     1208.23  1214.52  1221.53  1223.89  1233.01  1241.41
eigval :     1248.72  1258.81  1259.84  1262.48  1267.48  1277.05
eigval :     1279.96  1285.05  1295.03  1296.80  1298.87  1307.01
eigval :     1319.54  1319.88  1320.35  1321.95  1324.30  1325.06
eigval :     1332.01  1342.10  1353.99  1356.57  1363.65  1376.67
eigval :     1398.03  1399.41  1408.69  1415.43  1415.87  1427.52
eigval :     1434.04  1437.07  1438.27  1457.21  1462.06  1477.11
eigval :     1483.37  1484.33  1487.04  1492.74  1493.76  1495.29
eigval :     1500.31  1501.48  1504.69  1520.85  1552.60  1555.38
eigval :     1567.75  1571.20  1575.67  1578.49  1582.37  1586.03
eigval :     1594.46  1602.05  2794.20  2867.49  2918.71  2947.50
eigval :     2952.52  2961.76  2968.07  2972.11  2975.98  2979.17
eigval :     2983.66  2990.04  3014.86  3022.30  3025.75  3033.00
eigval :     3072.90  3074.27  3079.98  3082.41  3082.58  3084.62
eigval :     3085.83  3088.13  3090.84  3090.92  3092.44  3092.73
eigval :     3092.83  3102.71  3102.98  3103.81  3104.52  3104.92
eigval :     3105.23  3126.47  3133.23

   temp. (K)  partition function   enthalpy   heat capacity  entropy
                                   cal/mol     cal/K/mol   cal/K/mol   J/K/mol
 298.15  VIB  0.630E+21            24805.793    151.573    157.942
         ROT  0.115E+09              888.752      2.981     39.863
         INT  0.723E+29            25694.545    154.554    197.805
         TR   0.154E+29             1481.254      4.968     45.202
         TOT                       27175.7992   159.5221   243.0068  1016.7403

       T/K    H(0)-H(T)+PV         H(T)/Eh          T*S/Eh         G(T)/Eh
   ------------------------------------------------------------------------
    298.15    0.433074E-01    0.711744E+00    0.115460E+00    0.596284E+00
   ------------------------------------------------------------------------

         :::::::::::::::::::::::::::::::::::::::::::::::::::::
         ::                  THERMODYNAMIC                  ::
         :::::::::::::::::::::::::::::::::::::::::::::::::::::
         :: total free energy        -128.949020225481 Eh   ::
         ::.................................................::
         :: total energy             -129.545304367000 Eh   ::
         :: zero point energy           0.668437105552 Eh   ::
         :: G(RRHO) w/o ZPVE           -0.072152964033 Eh   ::
         :: G(RRHO) contrib.            0.596284141519 Eh   ::
         :::::::::::::::::::::::::::::::::::::::::::::::::::::

           -------------------------------------------------
          | TOTAL ENERGY             -129.545304367000 Eh   |
          | TOTAL ENTHALPY           -128.833559868834 Eh   |
          | TOTAL FREE ENERGY        -128.949020225481 Eh   |
          | GRADIENT NORM               0.000060779009 Eh/α |
          | HOMO-LUMO GAP               0.153892788613 eV   |
           -------------------------------------------------

 * finished run on 2025/09/09 at 15:10:32.190
