   * xtb version 6.7.1 (edcfbbe) compiled by 'albert@albert-system' on 2024-07-22

   ID    Z sym.   atoms
    1    6 C      1-6, 8-20, 22-34, 36-41, 43-48
    2    7 N      7
    3    9 F      21, 35
    4    8 O      42
    5    1 H      49-85

          program call               : xtb data2507/toluene/DFPFPhe/DFPFPhe_toluene_T1_crest.xyz --gfn 2 --uhf 2 --gbsa toluene --ohess vtight --parallel 40 --molden --ceasefiles --namespace data2507/toluene/DFPFPhe/DFPFPhe_toluene_T1_finalOpt
      * Solvation model:               GBSA
        Solvent                        toluene
        Solvent mass                       9.2140E+01 g/mol
          :  Hamiltonian                  GFN2-xTB          :
 * total energy  :  -129.5411959 Eh     change       -0.6734240E-08 Eh
 * total energy  :  -129.5413361 Eh     change       -0.1402058E-03 Eh
 * total energy  :  -129.5414396 Eh     change       -0.1035052E-03 Eh
 * total energy  :  -129.5414832 Eh     change       -0.4357787E-04 Eh
 * total energy  :  -129.5415596 Eh     change       -0.7634378E-04 Eh
 * total energy  :  -129.5416509 Eh     change       -0.9137713E-04 Eh
 * total energy  :  -129.5417387 Eh     change       -0.8772516E-04 Eh
 * total energy  :  -129.5418150 Eh     change       -0.7635315E-04 Eh
 * total energy  :  -129.5419119 Eh     change       -0.9690657E-04 Eh
 * total energy  :  -129.5419639 Eh     change       -0.5198042E-04 Eh
 * total energy  :  -129.5453312 Eh     change       -0.3507365E-06 Eh
 * total energy  :  -129.5453315 Eh     change       -0.3073686E-06 Eh
 * total energy  :  -129.5453318 Eh     change       -0.2714195E-06 Eh
 * total energy  :  -129.5453321 Eh     change       -0.2719058E-06 Eh
 * total energy  :  -129.5453324 Eh     change       -0.3264806E-06 Eh
 * total energy  :  -129.5453328 Eh     change       -0.4017793E-06 Eh
 * total energy  :  -129.5453333 Eh     change       -0.4667630E-06 Eh
 * total energy  :  -129.5453337 Eh     change       -0.4490210E-06 Eh
 * total energy  :  -129.5453337 Eh     change       -0.3820674E-08 Eh
   *** GEOMETRY OPTIMIZATION CONVERGED AFTER 221 ITERATIONS ***

 final structure:
================
85
 xtb: 6.7.1 (edcfbbe)
C            5.77127785722321        3.64944141172070        3.66357864661394
C            4.70985554531510        2.55596255941317        3.62214246888298
C            5.32904932189434        1.16030687868749        3.57000299851847
C            4.26687468073448        0.06600165568059        3.48125206854628
C            4.88658167647272       -1.32962933622252        3.49499893594756
C            3.85516551647228       -2.45247000724953        3.30766445721022
N            3.31215410343881       -2.50443100177257        1.96845228763519
C            2.07856032001619       -1.93833648323311        1.64711232433212
C            1.28226330836777       -1.26630205184138        2.57009652135667
C           -0.04927582138404       -0.70259847151369        2.24998585591502
C           -0.43764622890236       -0.75864755149264        0.80004113176729
C           -1.61746846263105       -0.10024879097167        0.44747229936203
C           -2.09060172311662        0.12610201989367       -0.94636173414455
C           -3.56407588546854        0.43275686757756       -1.02327782908336
C           -4.62325415468518       -0.38006948970936       -0.69520879708458
C           -5.92859370006223        0.10505547158836       -0.83286439745848
C           -7.07469566330801       -0.74832387970321       -0.49126685721307
C           -7.03296849430166       -1.57838439827861        0.62968319675900
C           -8.10589197309088       -2.38415563035601        0.96036762056389
C           -9.22752987194731       -2.35783083942460        0.15289764619292
F          -10.28845444345063       -3.15074079365400        0.47011890904596
C           -9.30493763487156       -1.55121173994443       -0.96705898282613
C           -8.22510660577308       -0.74786760923347       -1.28096969748377
C           -6.12929189711353        1.40741691440276       -1.29678239699009
C           -5.06752656495221        2.23166915217881       -1.61948245430908
C           -3.77510065794788        1.74461363604838       -1.48264332457651
C           -2.48801734388802        2.35754147288447       -1.73723005624704
C           -2.14190739344092        3.62599367366219       -2.18314575507684
C           -0.80542480236925        3.93796602082882       -2.34505081931837
C            0.20193335287935        3.00957492486963       -2.06272926846333
C            1.61739583425528        3.36037955805024       -2.24018360696804
C            2.57958120067747        2.90680140196319       -1.33636204392391
C            3.91433208533949        3.22660499105068       -1.49606981487721
C            4.28407537019656        4.00793222243391       -2.57490538637505
F            5.59786639166059        4.32610733415583       -2.73988633409615
C            3.36088025737287        4.47423959230942       -3.49180040963176
C            2.02958108081574        4.14711571932223       -3.31640159133505
C           -0.15093265533938        1.73703852462899       -1.60439081476259
C           -1.48001994224894        1.41956393475512       -1.45492372192222
C            0.38194530937436       -1.43633093034412       -0.07562139901296
C            1.60785461862337       -2.03434096945242        0.33315562148241
O            2.29652163964404       -2.67630022070135       -0.66293552315549
C            3.51634801636075       -3.20698682374817       -0.34208284220093
C            4.20597886826407       -3.83269206799797       -1.36569970468384
C            5.45266614171227       -4.39667500725849       -1.12941593567360
C            5.99440668332853       -4.31898120139917        0.13473132403583
C            5.30461429584980       -3.68732000319815        1.16490368922806
C            4.04951603051404       -3.12429512332390        0.95704165267849
H            5.30688746150038        4.63237496379846        3.70663894123117
H            6.40773159200789        3.53172677876825        4.53843452662549
H            6.39991588083579        3.60683080218031        2.77610953655179
H            4.07466729663081        2.63574339649370        4.50776743251433
H            4.07337941944584        2.70297569750172        2.74631697774167
H            5.99210060055316        1.09219100071979        2.70372726852257
H            5.93794156196516        1.00400484241504        4.46399565194197
H            3.69118587060444        0.20130791996941        2.56311824502028
H            3.58091735104995        0.16877318083365        4.32524342108902
H            5.63255089907068       -1.39294899685126        2.70046742854045
H            5.39665117249148       -1.48917130500918        4.44737599364032
H            3.03829658191676       -2.32913014832298        4.01739060563873
H            4.31870251166458       -3.41901519740541        3.52505869439826
H            1.60709621384696       -1.11656685998024        3.58350762769432
H           -0.82306692151192       -1.22671113198320        2.83630042744583
H           -0.09696490042409        0.34032581193038        2.59830896802278
H           -2.17441740451383        0.40525007053995        1.22205384855114
H           -1.82087797129715       -0.71521208468468       -1.59193538656816
H           -4.45350913625113       -1.39221152294205       -0.35818761242374
H           -6.15810506283508       -1.57849904060328        1.26173291334881
H           -8.08446192648735       -3.02356248292768        1.82928179953003
H          -10.19564970789167       -1.56196269365224       -1.57600882451492
H           -8.26773492966809       -0.12766280644718       -2.16329614382955
H           -7.13799122271425        1.78501308568170       -1.38023075393141
H           -5.24405117414369        3.23846034754826       -1.96828323747231
H           -2.90368800277358        4.36135526528952       -2.39650216703902
H           -0.52918202737818        4.93012592607065       -2.67060669154754
H            2.27625585786954        2.31044058102812       -0.48928777818602
H            4.66516145961706        2.88332440111762       -0.80147795881786
H            3.68821691644863        5.07666421743293       -4.32496600378061
H            1.30339729614427        4.48868028012797       -4.03808737183222
H            0.61289546688897        1.00436494422007       -1.39204405667965
H            0.13207044793676       -1.54491199181596       -1.11872952691249
H            3.74726144398337       -3.86791050410079       -2.34168869588776
H            5.98335307989487       -4.88441540797800       -1.93209018061379
H            6.96430025886959       -4.74592694223024        0.34042510875322
H            5.77504867087656       -3.64734148877795        2.13216191016381

          :  Hamiltonian                  GFN2-xTB          :
         :: gradient norm              0.000043677260 Eh/a0 ::
         :: HOMO-LUMO gap              0.153759856284 eV    ::
         :: SCC energy              -131.666091564517 Eh    ::
         :: -> dispersion             -0.103889149755 Eh    ::
         :: -> Gsolv                  -0.053630754806 Eh    ::
         :: repulsion energy           2.120757835529 Eh    ::

    * Orbital Energies and Occupations

         #    Occupation            Energy/Eh            Energy/eV
      -------------------------------------------------------------
         1        2.0000           -0.8173616             -22.2415
       ...           ...                  ...                  ...
       108        2.0000           -0.4178620             -11.3706
       109        2.0000           -0.4175680             -11.3626
       110        2.0000           -0.4158211             -11.3151
       111        2.0000           -0.4141236             -11.2689
       112        2.0000           -0.4092802             -11.1371
       113        2.0000           -0.4042020             -10.9989
       114        2.0000           -0.3979624             -10.8291
       115        2.0000           -0.3971559             -10.8072
       116        2.0000           -0.3951816             -10.7534
       117        2.0000           -0.3709747             -10.0947
       118        1.9971           -0.3483253              -9.4784
       119        1.0029           -0.3372064              -9.1759
       120        0.9514           -0.2709678              -7.3734 (HOMO)
       121        0.0486           -0.2653175              -7.2197 (LUMO)
       122                         -0.2413072              -6.5663
       123                         -0.2363220              -6.4307
       124                         -0.2359933              -6.4217
       125                         -0.2235719              -6.0837
       126                         -0.2215876              -6.0297
       127                         -0.2186254              -5.9491
       128                         -0.2176340              -5.9221
       129                         -0.2155572              -5.8656
       130                         -0.1801512              -4.9022
       131                         -0.1769969              -4.8163
       ...                                ...                  ...
       229                          0.7338451              19.9689
      -------------------------------------------------------------
                  HL-Gap            0.0056502 Eh            0.1538 eV

     #   Z          covCN         q      C6AA      α(0)
     1   6 C        3.752    -0.102    22.505     6.765
     2   6 C        3.801    -0.053    21.523     6.605
     3   6 C        3.803    -0.059    21.634     6.622
     4   6 C        3.802    -0.058    21.613     6.619
     5   6 C        3.801    -0.065    21.744     6.639
     6   6 C        3.745    -0.007    20.779     6.502
     7   7 N        2.743    -0.067    22.532     7.050
     8   6 C        2.900     0.041    27.085     8.533
     9   6 C        2.909    -0.081    30.038     8.987
    10   6 C        3.815    -0.060    21.637     6.620
    11   6 C        2.949     0.007    27.854     8.656
    12   6 C        2.911    -0.052    29.291     8.875
    13   6 C        3.890    -0.018    20.851     6.491
    14   6 C        3.049     0.003    27.908     8.664
    15   6 C        2.918    -0.042    29.038     8.837
    16   6 C        2.978     0.005    27.899     8.664
    17   6 C        2.975     0.010    27.783     8.646
    18   6 C        2.930    -0.034    28.835     8.806
    19   6 C        2.914    -0.049    29.217     8.864
    20   6 C        2.788     0.161    24.514     8.110
    21   9 F        0.786    -0.261    11.886     4.072
    22   6 C        2.914    -0.049    29.215     8.863
    23   6 C        2.930    -0.034    28.838     8.807
    24   6 C        2.925    -0.039    28.958     8.825
    25   6 C        2.912    -0.036    28.901     8.815
    26   6 C        3.036    -0.001    28.027     8.683
    27   6 C        3.034    -0.002    28.048     8.687
    28   6 C        2.912    -0.036    28.891     8.814
    29   6 C        2.924    -0.040    28.991     8.830
    30   6 C        2.978     0.005    27.903     8.665
    31   6 C        2.974     0.010    27.785     8.646
    32   6 C        2.930    -0.033    28.816     8.804
    33   6 C        2.914    -0.049    29.205     8.862
    34   6 C        2.788     0.161    24.512     8.110
    35   9 F        0.786    -0.261    11.879     4.071
    36   6 C        2.914    -0.049    29.217     8.864
    37   6 C        2.930    -0.034    28.836     8.807
    38   6 C        2.918    -0.042    29.045     8.838
    39   6 C        3.055     0.006    27.839     8.653
    40   6 C        2.906    -0.073    29.811     8.953
    41   6 C        2.881     0.103    25.727     8.315
    42   8 O        1.709    -0.262    18.335     5.781
    43   6 C        2.888     0.120    25.365     8.257
    44   6 C        2.919    -0.061    29.527     8.911
    45   6 C        2.917    -0.042    29.053     8.839
    46   6 C        2.918    -0.043    29.068     8.841
    47   6 C        2.924    -0.066    29.632     8.927
    48   6 C        2.916     0.041    27.077     8.533
    49   1 H        0.925     0.033     2.545     2.495
    50   1 H        0.925     0.034     2.535     2.490
    51   1 H        0.925     0.032     2.559     2.502
    52   1 H        0.924     0.030     2.585     2.514
    53   1 H        0.924     0.029     2.600     2.521
    54   1 H        0.924     0.029     2.598     2.521
    55   1 H        0.924     0.032     2.562     2.503
    56   1 H        0.924     0.034     2.532     2.488
    57   1 H        0.924     0.034     2.536     2.491
    58   1 H        0.924     0.043     2.414     2.430
    59   1 H        0.924     0.043     2.411     2.428
    60   1 H        0.925     0.058     2.219     2.330
    61   1 H        0.924     0.051     2.309     2.376
    62   1 H        0.926     0.043     2.414     2.429
    63   1 H        0.923     0.070     2.081     2.256
    64   1 H        0.923     0.066     2.127     2.281
    65   1 H        0.926     0.034     2.524     2.485
    66   1 H        0.924     0.059     2.214     2.327
    67   1 H        0.926     0.035     2.513     2.479
    68   1 H        0.926     0.053     2.286     2.364
    69   1 H        0.926     0.054     2.268     2.355
    70   1 H        0.926     0.054     2.274     2.358
    71   1 H        0.926     0.051     2.301     2.372
    72   1 H        0.926     0.034     2.529     2.487
    73   1 H        0.926     0.033     2.544     2.494
    74   1 H        0.926     0.034     2.529     2.487
    75   1 H        0.926     0.035     2.521     2.483
    76   1 H        0.926     0.051     2.308     2.376
    77   1 H        0.926     0.055     2.263     2.352
    78   1 H        0.926     0.054     2.270     2.356
    79   1 H        0.926     0.052     2.296     2.370
    80   1 H        0.926     0.037     2.484     2.465
    81   1 H        0.926     0.041     2.439     2.442
    82   1 H        0.926     0.041     2.433     2.439
    83   1 H        0.926     0.035     2.511     2.478
    84   1 H        0.926     0.036     2.503     2.474
    85   1 H        0.926     0.045     2.380     2.413

molecular dipole:
                 x           y           z       tot (Debye)
 q only:        0.651       0.213       1.524
   full:        0.705       0.171       1.551       4.354

 projected vibrational frequencies (cm⁻¹)
eigval :       -0.00    -0.00     0.00     0.00     0.00     0.00
eigval :       -1.17    12.77    16.20    19.38    26.70    29.54
eigval :       33.16    43.02    47.52    51.82    54.45    60.33
eigval :       66.92    68.76    73.95    85.48   101.66   111.25
eigval :      114.24   128.39   132.01   138.75   146.25   155.58
eigval :      163.70   174.51   183.86   207.42   209.91   232.48
eigval :      244.65   246.65   270.16   276.14   277.59   279.84
eigval :      317.23   335.35   346.04   358.22   369.80   372.44
eigval :      380.16   381.07   382.73   388.04   397.65   408.96
eigval :      412.99   419.47   424.72   430.19   443.06   444.05
eigval :      451.03   466.86   474.29   488.65   503.97   507.89
eigval :      514.75   522.87   532.01   535.41   551.59   557.86
eigval :      567.57   577.61   588.59   595.33   604.82   611.25
eigval :      620.86   624.57   651.13   658.88   661.52   676.70
eigval :      677.55   683.60   686.80   702.44   718.92   753.08
eigval :      764.35   766.98   768.69   772.90   795.76   803.15
eigval :      804.87   809.25   815.56   825.50   828.65   831.94
eigval :      835.72   847.43   862.61   866.16   871.94   874.48
eigval :      883.38   885.23   886.62   892.12   903.75   906.49
eigval :      908.11   909.07   912.60   912.89   915.42   921.72
eigval :      924.90   939.62   950.20   965.32   992.74  1005.06
eigval :     1005.97  1011.46  1052.29  1064.91  1069.95  1070.79
eigval :     1072.59  1087.28  1094.14  1105.63  1107.99  1112.80
eigval :     1119.13  1120.52  1121.11  1121.95  1126.13  1131.70
eigval :     1137.50  1153.18  1157.74  1159.00  1164.89  1166.73
eigval :     1167.45  1178.96  1187.89  1191.94  1203.27  1207.52
eigval :     1208.04  1214.13  1221.42  1223.03  1232.70  1241.08
eigval :     1249.08  1258.62  1259.24  1261.49  1266.77  1277.17
eigval :     1279.87  1283.95  1294.03  1296.54  1299.11  1307.22
eigval :     1319.71  1320.13  1320.27  1321.50  1324.23  1325.08
eigval :     1331.25  1342.03  1353.91  1356.66  1363.43  1376.31
eigval :     1397.87  1399.26  1408.12  1413.02  1414.62  1428.55
eigval :     1432.18  1436.89  1438.20  1456.88  1461.44  1476.49
eigval :     1483.09  1484.35  1486.74  1491.05  1494.17  1495.13
eigval :     1499.72  1501.01  1505.16  1520.69  1551.97  1555.71
eigval :     1567.63  1570.92  1575.63  1578.35  1582.20  1585.97
eigval :     1594.41  1602.06  2794.47  2863.28  2919.93  2949.31
eigval :     2952.78  2961.75  2967.87  2972.04  2975.22  2978.47
eigval :     2983.06  2989.98  3013.90  3022.72  3026.42  3033.88
eigval :     3073.11  3074.75  3079.36  3080.66  3083.66  3084.93
eigval :     3086.24  3088.17  3090.37  3090.95  3092.15  3092.68
eigval :     3092.82  3102.52  3103.13  3103.28  3104.13  3104.62
eigval :     3105.22  3126.95  3133.03

   temp. (K)  partition function   enthalpy   heat capacity  entropy
                                   cal/mol     cal/K/mol   cal/K/mol   J/K/mol
 298.15  VIB  0.110E+22            24839.996    151.788    158.867
         ROT  0.116E+09              888.752      2.981     39.878
         INT  0.127E+30            25728.749    154.768    198.744
         TR   0.154E+29             1481.254      4.968     45.202
         TOT                       27210.0026   159.7366   243.9460  1020.6700

       T/K    H(0)-H(T)+PV         H(T)/Eh          T*S/Eh         G(T)/Eh
   ------------------------------------------------------------------------
    298.15    0.433619E-01    0.711584E+00    0.115907E+00    0.595678E+00
   ------------------------------------------------------------------------

         :::::::::::::::::::::::::::::::::::::::::::::::::::::
         ::                  THERMODYNAMIC                  ::
         :::::::::::::::::::::::::::::::::::::::::::::::::::::
         :: total free energy        -128.949656207164 Eh   ::
         ::.................................................::
         :: total energy             -129.545333733995 Eh   ::
         :: zero point energy           0.668222235400 Eh   ::
         :: G(RRHO) w/o ZPVE           -0.072544708569 Eh   ::
         :: G(RRHO) contrib.            0.595677526830 Eh   ::
         :::::::::::::::::::::::::::::::::::::::::::::::::::::

           -------------------------------------------------
          | TOTAL ENERGY             -129.545333733995 Eh   |
          | TOTAL ENTHALPY           -128.833749599359 Eh   |
          | TOTAL FREE ENERGY        -128.949656207164 Eh   |
          | GRADIENT NORM               0.000043863899 Eh/α |
          | HOMO-LUMO GAP               0.153750870339 eV   |
           -------------------------------------------------

 * finished run on 2025/09/09 at 15:39:10.342
