   * xtb version 6.7.1 (edcfbbe) compiled by 'albert@albert-system' on 2024-07-22

   ID    Z sym.   atoms
    1    6 C      1-8, 10-24, 26-38
    2    7 N      9, 25
    3    1 H      39-62

          program call               : xtb data2507/toluene/mCBP/mCBP_toluene_S0_crest.xyz --gfn 2 --gbsa toluene --ohess vtight --parallel 40 --molden --ceasefiles --namespace data2507/toluene/mCBP/mCBP_toluene_S0_finalOpt
      * Solvation model:               GBSA
        Solvent                        toluene
        Solvent mass                       9.2140E+01 g/mol
          :  Hamiltonian                  GFN2-xTB          :
 * total energy  :   -95.2767066 Eh     change       -0.1581313E-08 Eh
 * total energy  :   -95.2767512 Eh     change       -0.4453597E-04 Eh
 * total energy  :   -95.2767987 Eh     change       -0.4751158E-04 Eh
 * total energy  :   -95.2768263 Eh     change       -0.2764568E-04 Eh
 * total energy  :   -95.2768651 Eh     change       -0.3874836E-04 Eh
 * total energy  :   -95.2768978 Eh     change       -0.3272279E-04 Eh
 * total energy  :   -95.2769318 Eh     change       -0.3396262E-04 Eh
 * total energy  :   -95.2769709 Eh     change       -0.3912119E-04 Eh
 * total energy  :   -95.2770136 Eh     change       -0.4273704E-04 Eh
 * total energy  :   -95.2770590 Eh     change       -0.4540713E-04 Eh
 * total energy  :   -95.2777546 Eh     change       -0.2859386E-05 Eh
 * total energy  :   -95.2777570 Eh     change       -0.2450476E-05 Eh
 * total energy  :   -95.2777593 Eh     change       -0.2227263E-05 Eh
 * total energy  :   -95.2777612 Eh     change       -0.1886335E-05 Eh
 * total energy  :   -95.2777624 Eh     change       -0.1232157E-05 Eh
 * total energy  :   -95.2777630 Eh     change       -0.6398297E-06 Eh
 * total energy  :   -95.2777635 Eh     change       -0.4323693E-06 Eh
 * total energy  :   -95.2777640 Eh     change       -0.5289088E-06 Eh
 * total energy  :   -95.2777640 Eh     change       -0.3309978E-08 Eh
   *** GEOMETRY OPTIMIZATION CONVERGED AFTER 44 ITERATIONS ***

 final structure:
================
62
 xtb: 6.7.1 (edcfbbe)
C            2.49340902642624       -3.60287354296411       -1.44159324672483
C            1.20374505104080       -3.63412330454926       -0.94157173747464
C            0.68492345602060       -2.53003333295366       -0.26955983295508
C           -0.69102457211671       -2.52730447709152        0.25297851413213
C           -1.21523871984808       -3.63107223081846        0.92127949550308
C           -2.50467300047707       -3.59520640323491        1.42157637558452
C           -3.29063797413196       -2.46722483532313        1.26533996111618
C           -2.78377429176102       -1.36466271174811        0.58304386700663
N           -3.56624204244125       -0.21384534214214        0.40226114193669
C           -3.16186184301215        1.08185314038029        0.65928313969440
C           -1.97178914623541        1.54764080111080        1.20129335229669
C           -1.82860342271426        2.91081930352590        1.37560828705316
C           -2.84705621404659        3.79817109160896        1.03280812964149
C           -4.04476445956588        3.33977528920640        0.52095267470209
C           -4.21053569419516        1.97316983867515        0.33366177754062
C           -5.29671364425606        1.16595544706534       -0.14790702493530
C           -6.56828861090694        1.46063092102867       -0.62349619558692
C           -7.37664206972546        0.42190785553545       -1.04075884628887
C           -6.92492620706513       -0.89591479934536       -1.00334776881275
C           -5.66443933087114       -1.21399688660625       -0.53457636518264
C           -4.85652353205163       -0.17704771970268       -0.08876424721354
C           -1.48921440144547       -1.40196268258062        0.07964778991779
C            1.48879662909627       -1.40946493350664       -0.09227741933668
C            2.78344185048170       -1.37652997852694       -0.59586490458644
N            3.57025929742197       -0.22935165457011       -0.41116824843267
C            3.16770560211703        1.06878165276140       -0.65870009104361
C            1.97886321841464        1.53998548115929       -1.19877656951073
C            1.83687751586536        2.90468770807815       -1.36170488400638
C            2.85548801885412        3.78833408091981       -1.00990348861783
C            4.05235373917531        3.32469343922271       -0.50079032285345
C            4.21685867324854        1.95641401053522       -0.32482679895525
C            5.30163342894330        1.14422010700442        0.15154372646293
C            6.57290886208007        1.43395004102220        0.63092086131133
C            7.37980479748232        0.39122911650782        1.04097667478735
C            6.92684177215836       -0.92579795776495        0.99272083502164
C            5.66651185514413       -1.23898394429289        0.52020034676990
C            4.86001186670364       -0.19783809428081        0.08168507358452
C            3.28495289194476       -2.47924320206501       -1.28179544502659
H            2.88411286240755       -4.45809891243704       -1.97322872303807
H            0.58691414356665       -4.50735703589653       -1.09108049177796
H           -0.60266239023945       -4.50781055388904        1.06771965703390
H           -2.89952752752622       -4.45022549088710        1.95046916169299
H           -4.28699844248419       -2.42990935920497        1.67897563205662
H           -1.18479015379623        0.86880558021993        1.49269397623138
H           -0.90746121893474        3.29623503445050        1.78843678423544
H           -2.69649130892616        4.85752386237239        1.18150907676686
H           -4.84091900009158        4.02596558648025        0.27274319213870
H           -6.91196146147351        2.48348416717857       -0.66800403895933
H           -8.36988975168378        0.62955041737993       -1.41139075387949
H           -7.57324636983083       -1.68657775409518       -1.35241248849378
H           -5.31882001231436       -2.23667425239639       -0.52770921231065
H           -1.11444823644259       -0.55545262655654       -0.47590494889153
H            1.11834847075328       -0.56317990637638        0.46648008556938
H            1.19184068918616        0.86417804636615       -1.49711640753142
H            0.91657036480621        3.29424754175430       -1.77251610580397
H            2.70573004349425        4.84904434213313       -1.14947586570041
H            4.84870733977426        4.00817598459662       -0.24584308011074
H            6.91746443198809        2.45610601795129        0.68382606498519
H            8.37280608888388        0.59503086649633        1.41439902221950
H            7.57408569749151       -1.71983789109834        1.33609554420270
H            5.32004052246632       -2.26127076259179        0.50505243040677
H            4.28135908757464       -2.44554679743170       -1.69561471796103

          :  Hamiltonian                  GFN2-xTB          :
         :: gradient norm              0.000044044922 Eh/a0 ::
         :: HOMO-LUMO gap              2.945903496180 eV    ::
         :: SCC energy               -97.098509951469 Eh    ::
         :: -> dispersion             -0.084929290557 Eh    ::
         :: -> Gsolv                  -0.038728727984 Eh    ::
         :: repulsion energy           1.820745954001 Eh    ::

    * Orbital Energies and Occupations

         #    Occupation            Energy/Eh            Energy/eV
      -------------------------------------------------------------
         1        2.0000           -0.6757791             -18.3889
       ...           ...                  ...                  ...
        77        2.0000           -0.4187902             -11.3959
        78        2.0000           -0.4182368             -11.3808
        79        2.0000           -0.4177127             -11.3665
        80        2.0000           -0.4174193             -11.3586
        81        2.0000           -0.4114599             -11.1964
        82        2.0000           -0.4112326             -11.1902
        83        2.0000           -0.4049820             -11.0201
        84        2.0000           -0.4048834             -11.0174
        85        2.0000           -0.3957230             -10.7682
        86        2.0000           -0.3783177             -10.2945
        87        2.0000           -0.3782575             -10.2929
        88        2.0000           -0.3624344              -9.8623
        89        2.0000           -0.3619826              -9.8500 (HOMO)
        90                         -0.2537226              -6.9041 (LUMO)
        91                         -0.2458608              -6.6902
        92                         -0.2452329              -6.6731
        93                         -0.2332466              -6.3470
        94                         -0.2330398              -6.3413
        95                         -0.2217631              -6.0345
        96                         -0.2217209              -6.0333
        97                         -0.2115145              -5.7556
        98                         -0.1911781              -5.2022
        99                         -0.1866292              -5.0784
       100                         -0.1858769              -5.0580
       ...                                ...                  ...
       176                          0.7445805              20.2611
      -------------------------------------------------------------
                  HL-Gap            0.1082600 Eh            2.9459 eV

     #   Z          covCN         q      C6AA      α(0)
     1   6 C        2.918    -0.028    28.712     8.787
     2   6 C        2.923    -0.038    28.943     8.822
     3   6 C        2.977     0.013    27.721     8.636
     4   6 C        2.977     0.013    27.721     8.636
     5   6 C        2.923    -0.038    28.943     8.822
     6   6 C        2.918    -0.028    28.712     8.787
     7   6 C        2.921    -0.045    29.108     8.848
     8   6 C        2.911     0.064    26.562     8.451
     9   7 N        2.802    -0.047    22.138     6.988
    10   6 C        3.075     0.048    26.855     8.497
    11   6 C        2.910    -0.051    29.265     8.871
    12   6 C        2.923    -0.035    28.859     8.810
    13   6 C        2.920    -0.042    29.054     8.839
    14   6 C        2.912    -0.035    28.870     8.811
    15   6 C        3.067    -0.019    28.407     8.740
    16   6 C        3.067    -0.019    28.407     8.740
    17   6 C        2.912    -0.035    28.871     8.811
    18   6 C        2.919    -0.043    29.063     8.841
    19   6 C        2.924    -0.035    28.877     8.812
    20   6 C        2.910    -0.052    29.294     8.875
    21   6 C        3.074     0.048    26.857     8.497
    22   6 C        2.929    -0.048    29.180     8.859
    23   6 C        2.930    -0.048    29.181     8.859
    24   6 C        2.911     0.064    26.562     8.451
    25   7 N        2.802    -0.047    22.138     6.988
    26   6 C        3.075     0.048    26.855     8.497
    27   6 C        2.910    -0.051    29.265     8.871
    28   6 C        2.923    -0.035    28.859     8.810
    29   6 C        2.920    -0.042    29.054     8.839
    30   6 C        2.912    -0.035    28.869     8.811
    31   6 C        3.067    -0.019    28.407     8.740
    32   6 C        3.067    -0.019    28.406     8.739
    33   6 C        2.912    -0.035    28.871     8.811
    34   6 C        2.919    -0.043    29.063     8.841
    35   6 C        2.924    -0.035    28.877     8.812
    36   6 C        2.910    -0.052    29.295     8.875
    37   6 C        3.074     0.048    26.857     8.497
    38   6 C        2.921    -0.045    29.109     8.848
    39   1 H        0.926     0.042     2.428     2.437
    40   1 H        0.926     0.042     2.422     2.434
    41   1 H        0.926     0.042     2.422     2.434
    42   1 H        0.926     0.042     2.428     2.437
    43   1 H        0.926     0.042     2.419     2.432
    44   1 H        0.926     0.028     2.618     2.530
    45   1 H        0.926     0.029     2.601     2.522
    46   1 H        0.926     0.027     2.625     2.534
    47   1 H        0.926     0.030     2.589     2.516
    48   1 H        0.926     0.030     2.592     2.518
    49   1 H        0.926     0.027     2.624     2.533
    50   1 H        0.926     0.030     2.589     2.516
    51   1 H        0.926     0.031     2.579     2.511
    52   1 H        0.926     0.041     2.431     2.438
    53   1 H        0.926     0.041     2.431     2.438
    54   1 H        0.926     0.028     2.618     2.530
    55   1 H        0.926     0.029     2.601     2.522
    56   1 H        0.926     0.027     2.625     2.534
    57   1 H        0.926     0.030     2.589     2.516
    58   1 H        0.926     0.030     2.592     2.518
    59   1 H        0.926     0.027     2.624     2.533
    60   1 H        0.926     0.030     2.589     2.516
    61   1 H        0.926     0.031     2.578     2.511
    62   1 H        0.926     0.042     2.419     2.432

molecular dipole:
                 x           y           z       tot (Debye)
 q only:       -0.001      -1.119      -0.003
   full:       -0.001      -1.163      -0.003       2.956

 projected vibrational frequencies (cm⁻¹)
eigval :       -0.00    -0.00     0.00     0.00     0.00     0.00
eigval :       13.20    20.28    31.15    39.86    42.29    61.10
eigval :       80.19    82.83    97.40   107.93   113.42   143.93
eigval :      144.90   173.14   182.25   216.83   219.55   235.35
eigval :      238.02   271.80   272.22   279.54   295.46   298.64
eigval :      335.65   342.88   387.97   388.98   395.77   398.93
eigval :      423.59   424.01   433.70   437.03   441.22   456.60
eigval :      514.63   517.98   521.09   529.89   537.86   540.30
eigval :      541.20   568.53   585.86   590.48   590.78   608.52
eigval :      611.38   624.43   645.32   669.65   672.99   674.97
eigval :      679.83   685.22   707.29   708.83   722.97   754.14
eigval :      756.41   767.52   767.86   779.61   780.37   792.58
eigval :      806.57   810.38   867.60   868.21   870.79   871.42
eigval :      887.68   894.12   894.31   898.03   898.99   899.78
eigval :      902.81   904.39   907.71   908.53   918.61   919.16
eigval :      923.02   926.16   926.56   931.08   932.69   984.93
eigval :      998.40  1003.38  1010.80  1012.27  1068.40  1068.82
eigval :     1072.19  1072.64  1093.99  1116.45  1117.16  1124.38
eigval :     1126.31  1150.98  1151.19  1171.34  1175.18  1178.15
eigval :     1180.30  1180.61  1181.36  1190.21  1191.71  1229.72
eigval :     1234.42  1234.65  1241.07  1256.79  1258.05  1283.30
eigval :     1298.82  1300.42  1301.95  1303.44  1314.22  1319.72
eigval :     1353.14  1354.18  1357.34  1357.88  1360.53  1362.77
eigval :     1412.80  1419.17  1426.04  1426.70  1430.61  1447.07
eigval :     1471.71  1473.42  1474.72  1486.62  1486.99  1487.12
eigval :     1569.13  1571.16  1573.21  1577.02  1585.17  1586.64
eigval :     1587.25  1590.25  1597.19  1597.37  1612.81  1612.90
eigval :     3069.96  3070.06  3070.83  3070.83  3075.63  3075.68
eigval :     3076.77  3076.81  3077.61  3078.24  3084.13  3084.28
eigval :     3085.31  3085.40  3089.17  3090.11  3090.87  3091.00
eigval :     3091.60  3092.23  3093.16  3093.25  3097.99  3098.76

   temp. (K)  partition function   enthalpy   heat capacity  entropy
                                   cal/mol     cal/K/mol   cal/K/mol   J/K/mol
 298.15  VIB  0.274E+12            16198.165    108.621     97.831
         ROT  0.197E+08              888.752      2.981     36.357
         INT  0.539E+19            17086.917    111.602    134.187
         TR   0.103E+29             1481.254      4.968     44.402
         TOT                       18568.1711   116.5699   178.5893   747.2175

       T/K    H(0)-H(T)+PV         H(T)/Eh          T*S/Eh         G(T)/Eh
   ------------------------------------------------------------------------
    298.15    0.295903E-01    0.508919E+00    0.848535E-01    0.424066E+00
   ------------------------------------------------------------------------

         :::::::::::::::::::::::::::::::::::::::::::::::::::::
         ::                  THERMODYNAMIC                  ::
         :::::::::::::::::::::::::::::::::::::::::::::::::::::
         :: total free energy         -94.853698462276 Eh   ::
         ::.................................................::
         :: total energy              -95.277763999080 Eh   ::
         :: zero point energy           0.479328802553 Eh   ::
         :: G(RRHO) w/o ZPVE           -0.055263265749 Eh   ::
         :: G(RRHO) contrib.            0.424065536804 Eh   ::
         :::::::::::::::::::::::::::::::::::::::::::::::::::::

           -------------------------------------------------
          | TOTAL ENERGY              -95.277763999080 Eh   |
          | TOTAL ENTHALPY            -94.768844932426 Eh   |
          | TOTAL FREE ENERGY         -94.853698462276 Eh   |
          | GRADIENT NORM               0.000044046963 Eh/α |
          | HOMO-LUMO GAP               2.945903490551 eV   |
           -------------------------------------------------

 * finished run on 2025/09/14 at 03:24:12.428
