   * xtb version 6.7.1 (edcfbbe) compiled by 'albert@albert-system' on 2024-07-22

   ID    Z sym.   atoms
    1    6 C      1-8, 10-24, 26-38
    2    7 N      9, 25
    3    1 H      39-62

          program call               : xtb data2507/toluene/mCBP/mCBP.xyz --gfn 2 --gbsa toluene --ohess vtight --parallel 40 --molden --ceasefiles --namespace data2507/toluene/mCBP/mCBP_toluene_S0_preOpt
      * Solvation model:               GBSA
        Solvent                        toluene
        Solvent mass                       9.2140E+01 g/mol
          :  Hamiltonian                  GFN2-xTB          :
 * total energy  :   -95.2620067 Eh     change       -0.2194355E-08 Eh
 * total energy  :   -95.2738505 Eh     change       -0.1184380E-01 Eh
 * total energy  :   -95.2761144 Eh     change       -0.2263885E-02 Eh
 * total energy  :   -95.2764287 Eh     change       -0.3143044E-03 Eh
 * total energy  :   -95.2766352 Eh     change       -0.2064422E-03 Eh
 * total energy  :   -95.2767337 Eh     change       -0.9851540E-04 Eh
 * total energy  :   -95.2768522 Eh     change       -0.1185540E-03 Eh
 * total energy  :   -95.2769717 Eh     change       -0.1194473E-03 Eh
 * total energy  :   -95.2770654 Eh     change       -0.9368818E-04 Eh
 * total energy  :   -95.2771478 Eh     change       -0.8245046E-04 Eh
 * total energy  :   -95.2777389 Eh     change       -0.7718534E-06 Eh
 * total energy  :   -95.2777399 Eh     change       -0.1057037E-05 Eh
 * total energy  :   -95.2777415 Eh     change       -0.1592366E-05 Eh
 * total energy  :   -95.2777437 Eh     change       -0.2208132E-05 Eh
 * total energy  :   -95.2777460 Eh     change       -0.2249384E-05 Eh
 * total energy  :   -95.2777475 Eh     change       -0.1545523E-05 Eh
 * total energy  :   -95.2777484 Eh     change       -0.8844237E-06 Eh
 * total energy  :   -95.2777489 Eh     change       -0.5273987E-06 Eh
 * total energy  :   -95.2777489 Eh     change       -0.4193353E-08 Eh
   *** GEOMETRY OPTIMIZATION CONVERGED AFTER 44 ITERATIONS ***

 final structure:
================
62
 xtb: 6.7.1 (edcfbbe)
C            2.46259460990047       -3.56598195850756        1.48985362723133
C            1.18217611762200       -3.59412516846887        0.96661392265291
C            0.68313244240811       -2.49368246510783        0.27414113106306
C           -0.68312244758775       -2.49368626353532       -0.27417154186188
C           -1.18215537052735       -3.59412504565294       -0.96665840331017
C           -2.46257467015919       -3.56598820343373       -1.48989652721880
C           -3.26517161545683       -2.45068000594990       -1.32822218517761
C           -2.78448986470609       -1.35291432139446       -0.61952044685997
N           -3.59147771185384       -0.22140947308195       -0.42513122284380
C           -4.88805582575126       -0.22470349646955        0.05103900924818
C           -5.67806915318298       -1.28946315036726        0.46210962420179
C           -6.95074018981807       -1.01048644823086        0.92272310505423
C           -7.43198000515908        0.29584821997538        0.98600676145946
C           -6.64153725906716        1.36176778167646        0.60465077460638
C           -5.35816992274111        1.10648451536583        0.13800798951075
C           -4.28365975713871        1.94875583967517       -0.30828732213611
C           -4.14429689997490        3.32328825838843       -0.45443849310539
C           -2.94936933823914        3.82068437835011       -0.93544730656334
C           -1.90796175214382        2.96459137074184       -1.28863606148019
C           -2.02475117671155        1.59419747602556       -1.15525765076047
C           -3.21202276864984        1.08870871514651       -0.64343977502932
C           -1.49643700496167       -1.37988774508836       -0.09849311376042
C            1.49643581514355       -1.37987331475389        0.09847678620241
C            2.78448889748818       -1.35289472334319        0.61950306197988
N            3.59147078953312       -0.22138377193079        0.42512399629071
C            4.88804900313742       -0.22467153466938       -0.05104600726862
C            5.67806130211660       -1.28942602849021       -0.46213205453754
C            6.95073247243710       -1.01044387524287       -0.92274169976019
C            7.43197294616444        0.29589142939187       -0.98600778941156
C            6.64153092422019        1.36180625866757       -0.60463700182120
C            5.35816371942639        1.10651730747712       -0.13799680323180
C            4.28365489714864        1.94878258067859        0.30831305298910
C            4.14429490694855        3.32331267205966        0.45448818458734
C            2.94936810696538        3.82070299299147        0.93550482242792
C            1.90795831031736        2.96460596129198        1.28867728586676
C            2.02474509892722        1.59421404689833        1.15527575275146
C            3.21201653344218        1.08873144948058        0.64345143878174
C            3.26518051545182       -2.45066400241821        1.32819277222346
H            2.83765543402881       -4.41705876445094        2.03909921238844
H            0.55651778860048       -4.46166068901531        1.11295156259494
H           -0.55648793824397       -4.46165185120607       -1.11300892430329
H           -2.83762689348960       -4.41706161834408       -2.03915327025017
H           -4.25519266601188       -2.41943401491794       -1.75735314820503
H           -5.30991978139218       -2.30390429842245        0.43544209943062
H           -7.58563121258679       -1.82339462287168        1.24433007981312
H           -8.43411221998318        0.47262155703791        1.34861755647978
H           -7.00803222891479        2.37551244228909        0.66996099850441
H           -4.95805069623660        3.98544247264918       -0.19815361016698
H           -2.81883238261114        4.88678767831023       -1.05140182375254
H           -0.98969106307901        3.38049905633578       -1.67763352666682
H           -1.21945193418719        0.94040120252045       -1.45375065606097
H           -1.13946699365243       -0.53715248060280        0.47432142054765
H            1.13945692453726       -0.53713379530831       -0.47432597215408
H            5.30991028292720       -2.30386699880726       -0.43548065814692
H            7.58562230007422       -1.82334794556101       -1.24436131005944
H            8.43410559034033        0.47266896348592       -1.34861523767770
H            7.00802764602827        2.37555134107635       -0.66993053888680
H            4.95804938363838        3.98546972955393        0.19821263446966
H            2.81883336621298        4.88680461309444        1.05147755142657
H            0.98968858440041        3.38050889716566        1.67768215516002
H            1.21944460671856        0.94041439422267        1.45375800125240
H            4.25520142791002       -2.41941352637210        1.75732371126940

          :  Hamiltonian                  GFN2-xTB          :
         :: gradient norm              0.000052317618 Eh/a0 ::
         :: HOMO-LUMO gap              2.961572214121 eV    ::
         :: SCC energy               -97.098450254523 Eh    ::
         :: -> dispersion             -0.084830530925 Eh    ::
         :: -> Gsolv                  -0.038757039440 Eh    ::
         :: repulsion energy           1.820701326761 Eh    ::

    * Orbital Energies and Occupations

         #    Occupation            Energy/Eh            Energy/eV
      -------------------------------------------------------------
         1        2.0000           -0.6757719             -18.3887
       ...           ...                  ...                  ...
        77        2.0000           -0.4188123             -11.3965
        78        2.0000           -0.4182719             -11.3818
        79        2.0000           -0.4177161             -11.3666
        80        2.0000           -0.4173936             -11.3579
        81        2.0000           -0.4114607             -11.1964
        82        2.0000           -0.4112863             -11.1917
        83        2.0000           -0.4049877             -11.0203
        84        2.0000           -0.4048935             -11.0177
        85        2.0000           -0.3959750             -10.7750
        86        2.0000           -0.3783162             -10.2945
        87        2.0000           -0.3782676             -10.2932
        88        2.0000           -0.3624400              -9.8625
        89        2.0000           -0.3619743              -9.8498 (HOMO)
        90                         -0.2531386              -6.8883 (LUMO)
        91                         -0.2458866              -6.6909
        92                         -0.2452182              -6.6727
        93                         -0.2333363              -6.3494
        94                         -0.2329819              -6.3398
        95                         -0.2217670              -6.0346
        96                         -0.2217340              -6.0337
        97                         -0.2120620              -5.7705
        98                         -0.1911661              -5.2019
        99                         -0.1867289              -5.0812
       100                         -0.1858781              -5.0580
       ...                                ...                  ...
       176                          0.7445711              20.2608
      -------------------------------------------------------------
                  HL-Gap            0.1088358 Eh            2.9616 eV

     #   Z          covCN         q      C6AA      α(0)
     1   6 C        2.918    -0.028    28.712     8.787
     2   6 C        2.923    -0.038    28.943     8.823
     3   6 C        2.977     0.013    27.719     8.636
     4   6 C        2.977     0.013    27.719     8.636
     5   6 C        2.923    -0.038    28.943     8.823
     6   6 C        2.918    -0.028    28.712     8.787
     7   6 C        2.922    -0.045    29.110     8.848
     8   6 C        2.911     0.064    26.562     8.451
     9   7 N        2.802    -0.047    22.137     6.988
    10   6 C        3.074     0.048    26.857     8.497
    11   6 C        2.910    -0.052    29.295     8.875
    12   6 C        2.924    -0.035    28.877     8.812
    13   6 C        2.919    -0.043    29.063     8.841
    14   6 C        2.912    -0.035    28.871     8.811
    15   6 C        3.067    -0.019    28.406     8.739
    16   6 C        3.067    -0.019    28.407     8.740
    17   6 C        2.912    -0.035    28.870     8.811
    18   6 C        2.920    -0.042    29.055     8.839
    19   6 C        2.923    -0.035    28.861     8.810
    20   6 C        2.910    -0.051    29.266     8.871
    21   6 C        3.074     0.048    26.855     8.497
    22   6 C        2.929    -0.047    29.178     8.859
    23   6 C        2.929    -0.047    29.178     8.859
    24   6 C        2.911     0.064    26.562     8.451
    25   7 N        2.802    -0.047    22.137     6.988
    26   6 C        3.074     0.048    26.857     8.497
    27   6 C        2.910    -0.052    29.295     8.875
    28   6 C        2.924    -0.035    28.877     8.812
    29   6 C        2.919    -0.043    29.063     8.841
    30   6 C        2.912    -0.035    28.871     8.811
    31   6 C        3.067    -0.019    28.406     8.739
    32   6 C        3.067    -0.019    28.407     8.740
    33   6 C        2.912    -0.035    28.870     8.811
    34   6 C        2.920    -0.042    29.055     8.839
    35   6 C        2.923    -0.035    28.861     8.810
    36   6 C        2.910    -0.051    29.266     8.871
    37   6 C        3.074     0.048    26.855     8.497
    38   6 C        2.922    -0.045    29.110     8.848
    39   1 H        0.926     0.042     2.428     2.437
    40   1 H        0.926     0.042     2.424     2.435
    41   1 H        0.926     0.042     2.424     2.435
    42   1 H        0.926     0.042     2.428     2.437
    43   1 H        0.926     0.042     2.418     2.432
    44   1 H        0.926     0.031     2.577     2.511
    45   1 H        0.926     0.030     2.589     2.516
    46   1 H        0.926     0.027     2.624     2.533
    47   1 H        0.926     0.030     2.592     2.517
    48   1 H        0.926     0.030     2.590     2.517
    49   1 H        0.926     0.027     2.625     2.534
    50   1 H        0.926     0.029     2.598     2.521
    51   1 H        0.926     0.028     2.615     2.529
    52   1 H        0.926     0.041     2.433     2.439
    53   1 H        0.926     0.041     2.433     2.439
    54   1 H        0.926     0.031     2.577     2.511
    55   1 H        0.926     0.030     2.589     2.516
    56   1 H        0.926     0.027     2.624     2.533
    57   1 H        0.926     0.030     2.592     2.517
    58   1 H        0.926     0.030     2.590     2.517
    59   1 H        0.926     0.027     2.625     2.534
    60   1 H        0.926     0.029     2.598     2.521
    61   1 H        0.926     0.028     2.615     2.529
    62   1 H        0.926     0.042     2.418     2.432

molecular dipole:
                 x           y           z       tot (Debye)
 q only:       -0.000      -1.103      -0.000
   full:       -0.000      -1.147      -0.000       2.915

 projected vibrational frequencies (cm⁻¹)
eigval :       -0.00    -0.00    -0.00     0.00     0.00     0.00
eigval :       13.91    20.18    30.75    40.35    42.33    62.23
eigval :       80.28    84.31    97.79   109.22   114.78   144.03
eigval :      144.85   173.54   182.22   216.05   220.87   235.30
eigval :      238.63   271.70   272.34   280.64   294.08   298.65
eigval :      335.61   342.30   387.54   388.51   394.70   397.95
eigval :      423.26   423.32   433.53   436.55   440.75   456.10
eigval :      515.61   518.24   522.20   530.21   537.64   540.77
eigval :      541.15   569.09   585.94   590.46   591.40   608.76
eigval :      611.52   624.99   645.71   670.45   672.72   674.83
eigval :      679.75   685.82   706.63   707.96   723.02   754.26
eigval :      756.59   770.22   770.50   781.92   781.99   792.98
eigval :      806.67   810.27   868.36   868.74   871.79   871.95
eigval :      889.11   894.52   894.76   898.69   900.29   901.50
eigval :      902.72   904.62   907.47   909.17   922.93   924.23
eigval :      924.63   927.97   928.59   932.22   933.62   984.99
eigval :      998.33  1003.02  1010.83  1012.14  1069.18  1069.44
eigval :     1072.70  1073.23  1093.68  1116.43  1116.59  1125.94
eigval :     1127.84  1151.52  1151.53  1170.77  1175.38  1179.22
eigval :     1180.64  1180.73  1181.86  1190.77  1192.37  1229.66
eigval :     1234.89  1235.37  1241.58  1256.58  1257.14  1283.39
eigval :     1299.05  1300.55  1302.14  1303.68  1314.07  1319.20
eigval :     1353.04  1354.00  1357.60  1358.07  1360.64  1363.07
eigval :     1413.54  1419.52  1426.06  1426.92  1431.08  1447.74
eigval :     1471.29  1473.30  1474.84  1486.57  1487.04  1487.05
eigval :     1569.27  1571.15  1573.27  1577.03  1585.53  1586.68
eigval :     1587.26  1590.10  1597.26  1597.42  1612.78  1612.79
eigval :     3070.43  3070.49  3070.80  3070.82  3076.04  3076.11
eigval :     3076.88  3076.91  3078.15  3078.80  3084.42  3084.47
eigval :     3085.48  3085.55  3089.25  3090.03  3091.09  3091.26
eigval :     3091.27  3092.14  3093.45  3093.67  3097.57  3098.38

   temp. (K)  partition function   enthalpy   heat capacity  entropy
                                   cal/mol     cal/K/mol   cal/K/mol   J/K/mol
 298.15  VIB  0.248E+12            16184.911    108.591     97.670
         ROT  0.199E+08              888.752      2.981     36.375
         INT  0.492E+19            17073.664    111.572    134.046
         TR   0.103E+29             1481.254      4.968     44.402
         TOT                       18554.9177   116.5399   178.4476   746.6249

       T/K    H(0)-H(T)+PV         H(T)/Eh          T*S/Eh         G(T)/Eh
   ------------------------------------------------------------------------
    298.15    0.295691E-01    0.509030E+00    0.847862E-01    0.424244E+00
   ------------------------------------------------------------------------

         :::::::::::::::::::::::::::::::::::::::::::::::::::::
         ::                  THERMODYNAMIC                  ::
         :::::::::::::::::::::::::::::::::::::::::::::::::::::
         :: total free energy         -94.853504953087 Eh   ::
         ::.................................................::
         :: total energy              -95.277748929023 Eh   ::
         :: zero point energy           0.479461061461 Eh   ::
         :: G(RRHO) w/o ZPVE           -0.055217085525 Eh   ::
         :: G(RRHO) contrib.            0.424243975936 Eh   ::
         :::::::::::::::::::::::::::::::::::::::::::::::::::::

           -------------------------------------------------
          | TOTAL ENERGY              -95.277748929023 Eh   |
          | TOTAL ENTHALPY            -94.768718724000 Eh   |
          | TOTAL FREE ENERGY         -94.853504953087 Eh   |
          | GRADIENT NORM               0.000052316842 Eh/α |
          | HOMO-LUMO GAP               2.961572137455 eV   |
           -------------------------------------------------

 * finished run on 2025/09/14 at 03:21:23.665
