   * xtb version 6.7.1 (edcfbbe) compiled by 'albert@albert-system' on 2024-07-22

   ID    Z sym.   atoms
    1    6 C      1-8, 10-24, 26-38
    2    7 N      9, 25
    3    1 H      39-62

          program call               : xtb data2507/toluene/mCBP/mCBP_toluene_S0_finalOpt.xtbopt.xyz --gfn 2 --uhf 2 --gbsa toluene --ohess vtight --parallel 40 --molden --ceasefiles --namespace data2507/toluene/mCBP/mCBP_toluene_T1_preOpt
      * Solvation model:               GBSA
        Solvent                        toluene
        Solvent mass                       9.2140E+01 g/mol
          :  Hamiltonian                  GFN2-xTB          :
 * total energy  :   -95.1642044 Eh     change       -0.2473556E-08 Eh
 * total energy  :   -95.1658934 Eh     change       -0.1688972E-02 Eh
 * total energy  :   -95.1664714 Eh     change       -0.5780216E-03 Eh
 * total energy  :   -95.1666513 Eh     change       -0.1798450E-03 Eh
 * total energy  :   -95.1668484 Eh     change       -0.1971348E-03 Eh
 * total energy  :   -95.1669967 Eh     change       -0.1482472E-03 Eh
 * total energy  :   -95.1671143 Eh     change       -0.1176586E-03 Eh
 * total energy  :   -95.1671917 Eh     change       -0.7741660E-04 Eh
 * total energy  :   -95.1672299 Eh     change       -0.3811138E-04 Eh
 * total energy  :   -95.1672495 Eh     change       -0.1961613E-04 Eh
 * total energy  :   -95.1679748 Eh     change       -0.2928623E-06 Eh
 * total energy  :   -95.1679750 Eh     change       -0.1949268E-06 Eh
 * total energy  :   -95.1679753 Eh     change       -0.2946414E-06 Eh
 * total energy  :   -95.1679755 Eh     change       -0.2166269E-06 Eh
 * total energy  :   -95.1679757 Eh     change       -0.1955305E-06 Eh
 * total energy  :   -95.1679759 Eh     change       -0.1912296E-06 Eh
 * total energy  :   -95.1679760 Eh     change       -0.1626540E-06 Eh
 * total energy  :   -95.1679762 Eh     change       -0.1672830E-06 Eh
 * total energy  :   -95.1679762 Eh     change       -0.8557066E-09 Eh
   *** GEOMETRY OPTIMIZATION CONVERGED AFTER 152 ITERATIONS ***

 final structure:
================
62
 xtb: 6.7.1 (edcfbbe)
C            2.68532271683312       -3.77198088150962       -0.94809402820673
C            1.35958533774537       -3.78119788311879       -0.60243475447830
C            0.68045813140704       -2.58191305822420       -0.19946363256829
C           -0.68909325640977       -2.58046771868529        0.18303213262810
C           -1.37241542175804       -3.77938203998321        0.57995772411916
C           -2.69801116660466       -3.76720184702588        0.92606400369096
C           -3.44474806437490       -2.59213421056454        0.89383416562792
C           -2.80065725679211       -1.39849172603224        0.48541464349002
N           -3.53997448531238       -0.21223323351675        0.42207601988158
C           -3.14986438010996        1.01418154278501        0.92255044489085
C           -2.01148242407574        1.35592460475040        1.63957212765521
C           -1.87130028372487        2.67270045258814        2.04540591691679
C           -2.84456016138622        3.62655239717990        1.75761790889774
C           -3.99830825558110        3.28626617298782        1.07281237873919
C           -4.15932864829366        1.97250424698421        0.65368960324124
C           -5.20344491324675        1.27862200474284       -0.04802443495283
C           -6.42138816727142        1.67280330236412       -0.58460225648949
C           -7.19090610766568        0.73006268343206       -1.24475612419602
C           -6.75284341839283       -0.58430860836555       -1.38655992768172
C           -5.54051494495096       -1.00018925765764       -0.86156058049288
C           -4.77786780613777       -0.06803973166821       -0.17131441972854
C           -1.46564644696857       -1.39623323787748        0.15956272028542
C            1.46123279576791       -1.40059787818843       -0.16968351171087
C            2.79632210666308       -1.40594212868845       -0.49513338776238
N            3.54000511837524       -0.22276303345527       -0.42542730658260
C            3.15497747763380        1.00764622722690       -0.92002551288261
C            2.01805413187707        1.35764338661246       -1.63537208958533
C            1.88350118930002        2.67689149791931       -2.03503268532257
C            2.86084064291259        3.62522429032422       -1.74289154690182
C            4.01301658619100        3.27685955970967       -1.05951672176286
C            4.16841816849864        1.96046712216733       -0.64657416059306
C            5.20953880191208        1.25897418756393        0.05199571684611
C            6.42900824077744        1.64558978585880        0.59062121214911
C            7.19452023825734        0.69658524822920        1.24643517907233
C            6.75106436160289       -0.61666426792425        1.38181298369016
C            5.53710146417490       -1.02503348344796        0.85470568052176
C            4.77840188881028       -0.08648388611920        0.16879872060581
C            3.43626301600324       -2.59978757367669       -0.90948354127283
H            3.16098951600211       -4.68853775759358       -1.26890944986496
H            0.80385428613475       -4.70258334308113       -0.67257101402648
H           -0.81996968746590       -4.70310111593318        0.64517130097223
H           -3.17684755173463       -4.68366695888161        1.24236923565295
H           -4.47055334902395       -2.56942904345335        1.22293130979240
H           -1.26392508547609        0.61821028685224        1.88731937357960
H           -0.99057473102233        2.96334887478328        2.59855238850318
H           -2.69853269625165        4.64526921722501        2.08541376806108
H           -4.76007376913652        4.02365937368009        0.87004896723143
H           -6.75666951233797        2.69470121480495       -0.49202759430044
H           -8.14192515772240        1.01809984437294       -1.66802829405075
H           -7.36614722319201       -1.29269019792160       -1.92332954712433
H           -5.19559362708029       -2.01351639550111       -0.99844172884946
H           -1.02719326251088       -0.47808952814941       -0.19912088471414
H            1.02596715003445       -0.48276994801413        0.19366349983158
H            1.26723257308562        0.62441993315381       -1.88648607035199
H            1.00399912292220        2.97387118627977       -2.58675460121740
H            2.71920074562119        4.64602123875863       -2.06609780368228
H            4.77792134452001        4.01001711498794       -0.85324931797466
H            6.76847378506854        2.66653905500232        0.50294720053767
H            8.14664937356639        0.97866615956031        1.67122051435315
H            7.36137582814237       -1.33012811877468        1.91524771790076
H            5.18799785173387       -2.03757668933004        0.98669136754925
H            4.46227208997402       -2.57904040315835       -1.23806772199003

          :  Hamiltonian                  GFN2-xTB          :
         :: gradient norm              0.000031232979 Eh/a0 ::
         :: HOMO-LUMO gap              0.140321780030 eV    ::
         :: SCC energy               -96.965760216798 Eh    ::
         :: -> dispersion             -0.084084953752 Eh    ::
         :: -> Gsolv                  -0.038524309572 Eh    ::
         :: repulsion energy           1.797784005377 Eh    ::

    * Orbital Energies and Occupations

         #    Occupation            Energy/Eh            Energy/eV
      -------------------------------------------------------------
         1        2.0000           -0.6825476             -18.5731
       ...           ...                  ...                  ...
        78        2.0000           -0.4183864             -11.3849
        79        2.0000           -0.4151729             -11.2974
        80        2.0000           -0.4116280             -11.2010
        81        2.0000           -0.4108088             -11.1787
        82        2.0000           -0.4083934             -11.1129
        83        2.0000           -0.4046935             -11.0123
        84        2.0000           -0.4036001             -10.9825
        85        2.0000           -0.3839086             -10.4467
        86        2.0000           -0.3838995             -10.4464
        87        2.0000           -0.3739495             -10.1757
        88        1.8830           -0.3658158              -9.9544
        89        1.1171           -0.3619764              -9.8499
        90        0.9233           -0.2560609              -6.9678 (HOMO)
        91        0.0502           -0.2509040              -6.8274 (LUMO)
        92        0.0265           -0.2502725              -6.8103
        93                         -0.2284051              -6.2152
        94                         -0.2283949              -6.2149
        95                         -0.2224363              -6.0528
        96                         -0.2223166              -6.0495
        97                         -0.1978551              -5.3839
        98                         -0.1940656              -5.2808
        99                         -0.1916878              -5.2161
       100                         -0.1916775              -5.2158
       101                         -0.1829352              -4.9779
       ...                                ...                  ...
       176                          0.7386019              20.0984
      -------------------------------------------------------------
                  HL-Gap            0.0051569 Eh            0.1403 eV

     #   Z          covCN         q      C6AA      α(0)
     1   6 C        2.909    -0.034    28.854     8.808
     2   6 C        2.917    -0.044    29.089     8.844
     3   6 C        2.967    -0.008    28.218     8.713
     4   6 C        2.967    -0.008    28.218     8.713
     5   6 C        2.917    -0.044    29.089     8.844
     6   6 C        2.909    -0.034    28.854     8.808
     7   6 C        2.916    -0.063    29.570     8.917
     8   6 C        2.905     0.055    26.765     8.483
     9   7 N        2.801    -0.018    21.594     6.902
    10   6 C        3.071     0.048    26.862     8.498
    11   6 C        2.909    -0.044    29.089     8.844
    12   6 C        2.922    -0.036    28.888     8.814
    13   6 C        2.919    -0.035    28.865     8.810
    14   6 C        2.911    -0.033    28.826     8.804
    15   6 C        3.064    -0.015    28.328     8.728
    16   6 C        3.064    -0.015    28.325     8.727
    17   6 C        2.911    -0.033    28.822     8.803
    18   6 C        2.919    -0.035    28.865     8.810
    19   6 C        2.922    -0.036    28.889     8.814
    20   6 C        2.909    -0.044    29.085     8.843
    21   6 C        3.072     0.048    26.852     8.496
    22   6 C        2.922    -0.060    29.479     8.904
    23   6 C        2.922    -0.059    29.479     8.904
    24   6 C        2.905     0.055    26.765     8.483
    25   7 N        2.801    -0.018    21.594     6.902
    26   6 C        3.071     0.048    26.862     8.498
    27   6 C        2.909    -0.044    29.089     8.844
    28   6 C        2.922    -0.036    28.888     8.814
    29   6 C        2.919    -0.035    28.865     8.810
    30   6 C        2.911    -0.033    28.826     8.804
    31   6 C        3.064    -0.015    28.328     8.728
    32   6 C        3.064    -0.015    28.325     8.727
    33   6 C        2.911    -0.033    28.822     8.803
    34   6 C        2.919    -0.035    28.865     8.810
    35   6 C        2.922    -0.036    28.889     8.814
    36   6 C        2.909    -0.044    29.085     8.843
    37   6 C        3.072     0.048    26.852     8.496
    38   6 C        2.916    -0.063    29.570     8.917
    39   1 H        0.925     0.025     2.652     2.547
    40   1 H        0.926     0.027     2.631     2.536
    41   1 H        0.926     0.027     2.631     2.536
    42   1 H        0.925     0.025     2.652     2.547
    43   1 H        0.926     0.028     2.616     2.529
    44   1 H        0.926     0.037     2.492     2.469
    45   1 H        0.926     0.035     2.519     2.482
    46   1 H        0.926     0.036     2.508     2.476
    47   1 H        0.926     0.037     2.485     2.465
    48   1 H        0.926     0.037     2.485     2.465
    49   1 H        0.926     0.036     2.506     2.476
    50   1 H        0.926     0.036     2.507     2.476
    51   1 H        0.926     0.039     2.463     2.454
    52   1 H        0.926     0.029     2.599     2.521
    53   1 H        0.926     0.029     2.599     2.521
    54   1 H        0.926     0.037     2.492     2.469
    55   1 H        0.926     0.035     2.519     2.482
    56   1 H        0.926     0.036     2.508     2.476
    57   1 H        0.926     0.037     2.485     2.465
    58   1 H        0.926     0.037     2.485     2.465
    59   1 H        0.926     0.036     2.506     2.476
    60   1 H        0.926     0.036     2.507     2.476
    61   1 H        0.926     0.039     2.463     2.454
    62   1 H        0.926     0.028     2.616     2.529

molecular dipole:
                 x           y           z       tot (Debye)
 q only:        0.002       0.760       0.002
   full:        0.001       0.622       0.002       1.580

 projected vibrational frequencies (cm⁻¹)
eigval :       -0.00    -0.00     0.00     0.00     0.00     0.00
eigval :       14.02    17.14    21.24    35.18    40.63    62.02
eigval :       76.36    85.04    96.24   109.54   116.64   135.80
eigval :      143.14   168.19   179.99   189.19   208.10   233.86
eigval :      235.32   267.20   269.43   275.58   297.19   299.62
eigval :      336.87   347.57   364.07   385.68   387.55   392.45
eigval :      405.88   420.22   421.00   434.29   434.87   454.62
eigval :      481.11   512.81   513.45   518.30   532.09   532.33
eigval :      544.14   553.32   561.81   581.36   582.38   596.99
eigval :      599.95   603.23   612.18   624.54   627.04   668.33
eigval :      670.70   673.07   703.84   705.34   706.61   712.70
eigval :      714.20   742.15   754.14   764.24   765.39   769.78
eigval :      771.45   772.94   785.00   798.90   837.12   841.13
eigval :      865.54   865.96   868.40   868.47   877.41   894.16
eigval :      895.08   898.61   898.68   900.16   901.73   907.97
eigval :      909.98   912.36   913.88   914.29   915.30   918.15
eigval :      951.54   979.17  1007.61  1009.72  1037.88  1059.63
eigval :     1061.69  1064.85  1065.19  1095.37  1098.94  1114.25
eigval :     1116.94  1130.54  1137.28  1138.08  1139.38  1171.15
eigval :     1173.21  1175.23  1175.70  1179.67  1182.80  1199.00
eigval :     1216.48  1225.46  1225.70  1236.39  1248.13  1248.57
eigval :     1267.88  1276.50  1278.23  1296.29  1300.06  1313.51
eigval :     1330.19  1334.46  1335.59  1339.78  1357.80  1358.51
eigval :     1364.50  1368.67  1395.79  1397.06  1403.63  1404.94
eigval :     1419.15  1422.82  1453.02  1454.96  1457.94  1474.41
eigval :     1475.63  1478.60  1481.94  1510.82  1537.33  1543.65
eigval :     1544.40  1566.07  1566.08  1569.06  1569.19  1587.70
eigval :     3063.84  3064.60  3076.13  3076.36  3076.40  3076.55
eigval :     3082.70  3082.84  3083.48  3083.53  3088.71  3090.02
eigval :     3090.53  3091.25  3091.41  3093.99  3095.14  3096.02
eigval :     3096.05  3097.16  3098.12  3100.84  3105.04  3106.61

   temp. (K)  partition function   enthalpy   heat capacity  entropy
                                   cal/mol     cal/K/mol   cal/K/mol   J/K/mol
 298.15  VIB  0.789E+12            16629.169    111.364    100.394
         ROT  0.200E+08              888.752      2.981     36.390
         INT  0.158E+20            17517.921    114.345    136.785
         TR   0.103E+29             1481.254      4.968     44.402
         TOT                       18999.1750   119.3130   181.1866   758.0847

       T/K    H(0)-H(T)+PV         H(T)/Eh          T*S/Eh         G(T)/Eh
   ------------------------------------------------------------------------
    298.15    0.302771E-01    0.502840E+00    0.860876E-01    0.416752E+00
   ------------------------------------------------------------------------

         :::::::::::::::::::::::::::::::::::::::::::::::::::::
         ::                  THERMODYNAMIC                  ::
         :::::::::::::::::::::::::::::::::::::::::::::::::::::
         :: total free energy         -94.751224116962 Eh   ::
         ::.................................................::
         :: total energy              -95.167976213166 Eh   ::
         :: zero point energy           0.472562579339 Eh   ::
         :: G(RRHO) w/o ZPVE           -0.055810483135 Eh   ::
         :: G(RRHO) contrib.            0.416752096204 Eh   ::
         :::::::::::::::::::::::::::::::::::::::::::::::::::::

           -------------------------------------------------
          | TOTAL ENERGY              -95.167976213166 Eh   |
          | TOTAL ENTHALPY            -94.665136521284 Eh   |
          | TOTAL FREE ENERGY         -94.751224116962 Eh   |
          | GRADIENT NORM               0.000030704294 Eh/α |
          | HOMO-LUMO GAP               0.140325524622 eV   |
           -------------------------------------------------

 * finished run on 2025/09/14 at 03:24:24.004
