   * xtb version 6.7.1 (edcfbbe) compiled by 'albert@albert-system' on 2024-07-22

   ID    Z sym.   atoms
    1    6 C      1-8, 10-24, 26-38
    2    7 N      9, 25
    3    1 H      39-62

          program call               : xtb data2507/toluene/mCBP/mCBP_toluene_T1_crest.xyz --gfn 2 --uhf 2 --gbsa toluene --ohess vtight --parallel 40 --molden --ceasefiles --namespace data2507/toluene/mCBP/mCBP_toluene_T1_finalOpt
      * Solvation model:               GBSA
        Solvent                        toluene
        Solvent mass                       9.2140E+01 g/mol
          :  Hamiltonian                  GFN2-xTB          :
 * total energy  :   -95.1674208 Eh     change       -0.1270604E-07 Eh
 * total energy  :   -95.1674619 Eh     change       -0.4109468E-04 Eh
 * total energy  :   -95.1675032 Eh     change       -0.4135111E-04 Eh
 * total energy  :   -95.1675251 Eh     change       -0.2184385E-04 Eh
 * total energy  :   -95.1675552 Eh     change       -0.3011732E-04 Eh
 * total energy  :   -95.1675761 Eh     change       -0.2086119E-04 Eh
 * total energy  :   -95.1675944 Eh     change       -0.1831572E-04 Eh
 * total energy  :   -95.1676158 Eh     change       -0.2144707E-04 Eh
 * total energy  :   -95.1676436 Eh     change       -0.2783214E-04 Eh
 * total energy  :   -95.1676760 Eh     change       -0.3234545E-04 Eh
 * total energy  :   -95.1681458 Eh     change       -0.3887326E-06 Eh
 * total energy  :   -95.1681462 Eh     change       -0.3380521E-06 Eh
 * total energy  :   -95.1681464 Eh     change       -0.1871655E-06 Eh
 * total energy  :   -95.1681465 Eh     change       -0.1869971E-06 Eh
 * total energy  :   -95.1681468 Eh     change       -0.2645570E-06 Eh
 * total energy  :   -95.1681471 Eh     change       -0.2573322E-06 Eh
 * total energy  :   -95.1681472 Eh     change       -0.1743715E-06 Eh
 * total energy  :   -95.1681474 Eh     change       -0.1081905E-06 Eh
 * total energy  :   -95.1681474 Eh     change       -0.7848087E-07 Eh
   *** GEOMETRY OPTIMIZATION CONVERGED AFTER 55 ITERATIONS ***

 final structure:
================
62
 xtb: 6.7.1 (edcfbbe)
C            2.90992502297251       -3.53542718655098        1.29871511894728
C            1.54716864153159       -3.60100523535317        1.20309140865524
C            0.76139814613757       -2.49031922931804        0.72004535142572
C           -0.64733925099022       -2.54778542079044        0.62535772452645
C           -1.38170996157902       -3.77956627609728        0.79008216114312
C           -2.74516591456110       -3.82733496586653        0.69692530290461
C           -3.49814784002003       -2.68255917473055        0.43642746935723
C           -2.80678366822965       -1.45795417146137        0.26198777894196
N           -3.55135396399978       -0.29052497278880        0.03581400129539
C           -3.42512941020189        0.89667761406563        0.72661966675903
C           -2.60414111647907        1.21136190376247        1.80182811156837
C           -2.69754452525747        2.48371060102504        2.33613319512556
C           -3.58905918872519        3.42312809645430        1.82298298901677
C           -4.43020363671860        3.10740320453436        0.77054913517828
C           -4.35705124786785        1.83593825954143        0.22029782669731
C           -5.07513749859188        1.16873463625280       -0.83222035755709
C           -6.08308973328914        1.56047048471372       -1.70083846669316
C           -6.54349170135586        0.64921617723972       -2.63534282933116
C           -6.00050104421724       -0.63096809730398       -2.71899706677714
C           -4.99241597589702       -1.04328148782351       -1.86629436363649
C           -4.54509459111085       -0.14287882747278       -0.90785311943739
C           -1.44097094995106       -1.39643614125982        0.35069939041722
C            1.50440423911453       -1.33581016132690        0.33973925449124
C            2.87128859217299       -1.28912924483089        0.42509331610399
N            3.56185889296635       -0.12882139828554        0.04835999874386
C            4.66965503355378       -0.08465195931479       -0.77116450244474
C            5.30502365327408       -1.11509844954153       -1.45213816396666
C            6.39885500182613       -0.79374649276075       -2.23575518032060
C            6.84443344382055        0.52066397684408       -2.35534634975400
C            6.19681556570165        1.55627282238831       -1.70414984116084
C            5.09941026717652        1.25816096527375       -0.91000577421469
C            4.19436382342737        2.05644579428422       -0.12754644787614
C            4.10379270355428        3.41493530499451        0.13901372240518
C            3.09637048012368        3.85985812880317        0.97700505396078
C            2.20084724327986        2.96659903631716        1.56063376722656
C            2.27139133954667        1.60821225274746        1.30930817222552
C            3.26040749677944        1.15788959381707        0.44455407439413
C            3.61247185987811       -2.39258152459552        0.91842502868566
H            3.46014286059551       -4.38341569562662        1.68288870593035
H            1.04972682690953       -4.50045461517418        1.52621785277803
H           -0.84402054637718       -4.69676351203582        0.96467883714068
H           -3.25688708783892       -4.77118920301456        0.82658289160344
H           -4.57523092861605       -2.70624974610837        0.42375686258828
H           -1.92493793992403        0.48239511170110        2.21638851942051
H           -2.07036578216118        2.75191859908696        3.17334332571275
H           -3.62987024738357        4.40844618533037        2.26330673983562
H           -5.13435695452020        3.83085438222684        0.38823541890970
H           -6.49541323630287        2.55685845446671       -1.64969266386855
H           -7.32958454835384        0.93491837090827       -3.31857420598563
H           -6.36951335713332       -1.31401181539207       -3.46976598241009
H           -4.56064314514690       -2.02893836701613       -1.94968691064068
H           -0.96820383450448       -0.43816382560500        0.20691843012220
H            0.99463521470946       -0.48420664888286       -0.08176521103886
H            4.94987192727982       -2.13183566264698       -1.38140611905534
H            6.91341245273626       -1.57789085807002       -2.77118992427267
H            7.70236763515780        0.73301094840347       -2.97601118658558
H            6.53433441088837        2.57573580572227       -1.81401909954903
H            4.80912579312700        4.10729726132514       -0.29510770100422
H            3.00670794550778        4.91423477797228        1.19278160134597
H            1.43738468996480        3.34169200686903        2.22557418919025
H            1.58745840246114        0.91923126842519        1.78017560476128
H            4.67952180912496       -2.31794741655838        1.04712094033947

          :  Hamiltonian                  GFN2-xTB          :
         :: gradient norm              0.000037816116 Eh/a0 ::
         :: HOMO-LUMO gap              0.210927455170 eV    ::
         :: SCC energy               -96.966597257814 Eh    ::
         :: -> dispersion             -0.084166655186 Eh    ::
         :: -> Gsolv                  -0.038750323227 Eh    ::
         :: repulsion energy           1.798449823313 Eh    ::

    * Orbital Energies and Occupations

         #    Occupation            Energy/Eh            Energy/eV
      -------------------------------------------------------------
         1        2.0000           -0.6825277             -18.5725
       ...           ...                  ...                  ...
        78        2.0000           -0.4192717             -11.4090
        79        2.0000           -0.4155755             -11.3084
        80        2.0000           -0.4117253             -11.2036
        81        2.0000           -0.4109695             -11.1830
        82        2.0000           -0.4059121             -11.0454
        83        2.0000           -0.4037446             -10.9865
        84        2.0000           -0.4028626             -10.9624
        85        2.0000           -0.3847156             -10.4686
        86        2.0000           -0.3845349             -10.4637
        87        1.9998           -0.3718617             -10.1189
        88        1.8999           -0.3656284              -9.9493
        89        1.1003           -0.3614576              -9.8358
        90        0.9785           -0.2586580              -7.0384 (HOMO)
        91        0.0129           -0.2509064              -6.8275 (LUMO)
        92        0.0086           -0.2505152              -6.8169
        93                         -0.2287403              -6.2243
        94                         -0.2285257              -6.2185
        95                         -0.2210343              -6.0146
        96                         -0.2204777              -5.9995
        97                         -0.1964006              -5.3443
        98                         -0.1940511              -5.2804
        99                         -0.1921078              -5.2275
       100                         -0.1919253              -5.2226
       101                         -0.1825269              -4.9668
       ...                                ...                  ...
       176                          0.7388576              20.1053
      -------------------------------------------------------------
                  HL-Gap            0.0077516 Eh            0.2109 eV

     #   Z          covCN         q      C6AA      α(0)
     1   6 C        2.908    -0.035    28.868     8.810
     2   6 C        2.916    -0.044    29.093     8.845
     3   6 C        2.964    -0.008    28.226     8.714
     4   6 C        2.964    -0.008    28.222     8.714
     5   6 C        2.916    -0.044    29.100     8.846
     6   6 C        2.908    -0.035    28.871     8.811
     7   6 C        2.916    -0.063    29.562     8.916
     8   6 C        2.904     0.055    26.767     8.483
     9   7 N        2.803    -0.023    21.691     6.917
    10   6 C        3.075     0.048    26.838     8.494
    11   6 C        2.909    -0.044    29.095     8.845
    12   6 C        2.922    -0.034    28.836     8.806
    13   6 C        2.919    -0.036    28.900     8.816
    14   6 C        2.912    -0.032    28.798     8.800
    15   6 C        3.065    -0.015    28.318     8.726
    16   6 C        3.065    -0.015    28.319     8.726
    17   6 C        2.912    -0.032    28.795     8.799
    18   6 C        2.920    -0.036    28.897     8.815
    19   6 C        2.922    -0.034    28.841     8.807
    20   6 C        2.909    -0.044    29.089     8.844
    21   6 C        3.076     0.049    26.823     8.491
    22   6 C        2.920    -0.061    29.526     8.911
    23   6 C        2.920    -0.061    29.527     8.911
    24   6 C        2.904     0.055    26.762     8.482
    25   7 N        2.802    -0.022    21.662     6.913
    26   6 C        3.075     0.049    26.827     8.492
    27   6 C        2.909    -0.044    29.082     8.843
    28   6 C        2.922    -0.034    28.841     8.807
    29   6 C        2.919    -0.036    28.889     8.814
    30   6 C        2.912    -0.032    28.794     8.799
    31   6 C        3.065    -0.015    28.313     8.725
    32   6 C        3.065    -0.015    28.316     8.726
    33   6 C        2.912    -0.032    28.799     8.800
    34   6 C        2.920    -0.036    28.893     8.815
    35   6 C        2.922    -0.034    28.840     8.807
    36   6 C        2.909    -0.044    29.094     8.845
    37   6 C        3.074     0.048    26.844     8.495
    38   6 C        2.916    -0.063    29.565     8.916
    39   1 H        0.925     0.024     2.668     2.554
    40   1 H        0.926     0.027     2.634     2.538
    41   1 H        0.926     0.026     2.637     2.540
    42   1 H        0.925     0.024     2.668     2.554
    43   1 H        0.926     0.026     2.637     2.540
    44   1 H        0.926     0.038     2.482     2.464
    45   1 H        0.926     0.036     2.501     2.473
    46   1 H        0.926     0.036     2.503     2.474
    47   1 H        0.926     0.038     2.480     2.463
    48   1 H        0.926     0.038     2.478     2.462
    49   1 H        0.926     0.036     2.504     2.475
    50   1 H        0.926     0.036     2.499     2.472
    51   1 H        0.926     0.038     2.471     2.458
    52   1 H        0.926     0.028     2.615     2.529
    53   1 H        0.926     0.028     2.616     2.529
    54   1 H        0.926     0.039     2.464     2.455
    55   1 H        0.926     0.037     2.495     2.470
    56   1 H        0.926     0.036     2.500     2.472
    57   1 H        0.926     0.038     2.475     2.460
    58   1 H        0.926     0.038     2.477     2.461
    59   1 H        0.926     0.036     2.500     2.472
    60   1 H        0.926     0.037     2.491     2.468
    61   1 H        0.926     0.038     2.477     2.461
    62   1 H        0.926     0.027     2.631     2.537

molecular dipole:
                 x           y           z       tot (Debye)
 q only:        0.030       0.869      -0.242
   full:        0.027       0.727      -0.195       1.914

 projected vibrational frequencies (cm⁻¹)
eigval :       -0.00    -0.00    -0.00     0.00     0.00     0.00
eigval :       11.24    19.15    24.30    34.91    42.62    60.24
eigval :       68.67    88.68   102.76   105.64   116.88   136.62
eigval :      145.47   161.65   176.36   185.17   211.35   215.01
eigval :      243.54   264.25   268.42   270.25   292.82   295.01
eigval :      341.18   353.69   365.13   389.04   391.26   397.43
eigval :      404.02   420.25   420.96   434.05   434.65   452.14
eigval :      477.89   512.15   514.85   516.29   534.16   534.98
eigval :      541.79   546.66   573.73   578.44   584.60   587.78
eigval :      600.96   605.90   609.27   622.87   627.47   670.81
eigval :      673.02   675.06   705.99   707.84   708.61   708.88
eigval :      713.97   749.94   754.48   765.74   766.95   773.48
eigval :      775.19   779.62   782.17   787.11   821.46   832.83
eigval :      868.89   869.83   870.70   873.73   894.08   894.70
eigval :      898.23   899.40   900.67   902.06   902.52   903.99
eigval :      910.20   916.33   917.04   918.66   919.97   921.15
eigval :      943.17   989.07  1007.93  1010.90  1029.05  1065.23
eigval :     1066.06  1066.22  1068.26  1098.21  1108.34  1111.87
eigval :     1127.13  1139.70  1141.94  1154.22  1158.73  1170.24
eigval :     1173.94  1176.44  1177.79  1179.33  1184.02  1219.55
eigval :     1224.14  1228.10  1229.26  1246.09  1246.96  1257.97
eigval :     1274.26  1282.85  1283.63  1299.45  1300.40  1319.95
eigval :     1338.96  1340.02  1342.79  1343.53  1357.62  1361.75
eigval :     1362.12  1368.75  1390.08  1408.88  1409.65  1411.67
eigval :     1422.15  1425.80  1458.72  1459.21  1469.67  1478.70
eigval :     1479.20  1491.07  1500.37  1526.08  1556.61  1558.02
eigval :     1559.08  1574.22  1574.94  1575.79  1577.85  1591.45
eigval :     3060.89  3062.02  3076.18  3076.35  3076.90  3078.41
eigval :     3082.22  3082.40  3083.06  3085.05  3089.52  3089.86
eigval :     3090.52  3091.49  3093.95  3095.46  3095.77  3096.69
eigval :     3099.19  3100.58  3104.62  3106.46  3106.81  3113.52

   temp. (K)  partition function   enthalpy   heat capacity  entropy
                                   cal/mol     cal/K/mol   cal/K/mol   J/K/mol
 298.15  VIB  0.838E+12            16632.320    111.148    100.583
         ROT  0.415E+08              888.752      2.981     37.840
         INT  0.348E+20            17521.072    114.129    138.423
         TR   0.103E+29             1481.254      4.968     44.402
         TOT                       19002.3259   119.0972   182.8247   764.9385

       T/K    H(0)-H(T)+PV         H(T)/Eh          T*S/Eh         G(T)/Eh
   ------------------------------------------------------------------------
    298.15    0.302821E-01    0.503829E+00    0.868659E-01    0.416963E+00
   ------------------------------------------------------------------------

         :::::::::::::::::::::::::::::::::::::::::::::::::::::
         ::                  THERMODYNAMIC                  ::
         :::::::::::::::::::::::::::::::::::::::::::::::::::::
         :: total free energy         -94.751184428418 Eh   ::
         ::.................................................::
         :: total energy              -95.168147438446 Eh   ::
         :: zero point energy           0.473546790721 Eh   ::
         :: G(RRHO) w/o ZPVE           -0.056583780693 Eh   ::
         :: G(RRHO) contrib.            0.416963010028 Eh   ::
         :::::::::::::::::::::::::::::::::::::::::::::::::::::

           -------------------------------------------------
          | TOTAL ENERGY              -95.168147438446 Eh   |
          | TOTAL ENTHALPY            -94.664318513801 Eh   |
          | TOTAL FREE ENERGY         -94.751184428418 Eh   |
          | GRADIENT NORM               0.000037884847 Eh/α |
          | HOMO-LUMO GAP               0.210930594122 eV   |
           -------------------------------------------------

 * finished run on 2025/09/14 at 03:28:28.307
