   * xtb version 6.7.1 (edcfbbe) compiled by 'albert@albert-system' on 2024-07-22

   ID    Z sym.   atoms
    1    6 C      1-12, 14-17, 19-22, 24-39
    2    7 N      13, 18, 23
    3    1 H      40-64

          program call               : xtb data2507/gas/Ph-CF3/Ph-CF3.xyz --gfn 2 --ohess vtight --parallel 40 --molden --ceasefiles --namespace data2507/gas/Ph-CF3/Ph-CF3_gas_S0_preOpt
          :  Hamiltonian                  GFN2-xTB          :
 * total energy  :   -98.6601768 Eh     change       -0.2977742E-08 Eh
 * total energy  :   -98.6732244 Eh     change       -0.1304761E-01 Eh
 * total energy  :   -98.6760823 Eh     change       -0.2857906E-02 Eh
 * total energy  :   -98.6767960 Eh     change       -0.7136848E-03 Eh
 * total energy  :   -98.6774370 Eh     change       -0.6410041E-03 Eh
 * total energy  :   -98.6776570 Eh     change       -0.2200183E-03 Eh
 * total energy  :   -98.6777613 Eh     change       -0.1042831E-03 Eh
 * total energy  :   -98.6778127 Eh     change       -0.5144095E-04 Eh
 * total energy  :   -98.6778464 Eh     change       -0.3371789E-04 Eh
 * total energy  :   -98.6778593 Eh     change       -0.1287255E-04 Eh
 * total energy  :   -98.6779893 Eh     change       -0.3452514E-05 Eh
 * total energy  :   -98.6779928 Eh     change       -0.3519618E-05 Eh
 * total energy  :   -98.6779961 Eh     change       -0.3303730E-05 Eh
 * total energy  :   -98.6779989 Eh     change       -0.2856121E-05 Eh
 * total energy  :   -98.6780013 Eh     change       -0.2399098E-05 Eh
 * total energy  :   -98.6780035 Eh     change       -0.2193930E-05 Eh
 * total energy  :   -98.6780057 Eh     change       -0.2145940E-05 Eh
 * total energy  :   -98.6780078 Eh     change       -0.2132892E-05 Eh
 * total energy  :   -98.6780078 Eh     change       -0.7986912E-08 Eh
   *** GEOMETRY OPTIMIZATION CONVERGED AFTER 44 ITERATIONS ***

 final structure:
================
64
 xtb: 6.7.1 (edcfbbe)
C            7.33174161417428       -3.04183400397025       -1.85298899908127
C            6.06100583549186       -3.40267347026869       -1.40981388058602
C            5.23751777912672       -2.49951119896530       -0.76580980041693
C            5.71229425385998       -1.20904795367300       -0.57807448057008
C            7.01013637989002       -0.84073533989217       -1.00260867571116
C            7.81902248149639       -1.76674934627980       -1.64812809590370
C            7.19268750932664        0.52920449200355       -0.61389610994363
C            8.23584460957464        1.43406666102165       -0.76088529704582
C            8.07375718795007        2.71554892684582       -0.27418975687308
C            6.88453709719959        3.10371251741351        0.33942808704201
C            5.83263287091502        2.22218409967480        0.49712583592987
C            5.99812272773825        0.92562372157392        0.03082634043965
N            5.11296137151458       -0.13296277868058        0.04405422144412
C            3.82417595913050       -0.11305853138655        0.59682318248893
C            3.62510848630661        0.33373212170019        1.90054310478422
C            2.35548571603537        0.37516013579713        2.43450979542390
C            1.24813618355838       -0.03747241441015        1.68816254704588
N            0.00000109246037        0.00004157075906        2.28160508320393
C           -1.24813608075040        0.03753782896432        1.68816578583302
C           -2.35548173188026       -0.37508610690443        2.43452350431722
C           -3.62510565877173       -0.33367712564810        1.90055831483289
C           -3.82417879340787        0.11308730731608        0.59683036287002
N           -5.11296488204694        0.13296963721607        0.04406169236802
C           -5.71229988053914        1.20903154656665       -0.57810656647875
C           -5.23753318501551        2.49949301071871       -0.76587725511477
C           -6.06101826727353        3.40262413505327       -1.40992923394806
C           -7.33173432865711        3.04175097736878       -1.85313183426503
C           -7.81900299491805        1.76666691646418       -1.64824274060626
C           -7.01012669444648        0.84068866952344       -1.00266073114398
C           -7.19268927752388       -0.52922543146802       -0.61386349011365
C           -8.23585140135630       -1.43408935649339       -0.76080572152344
C           -8.07375914375968       -2.71555664400822       -0.27407265187769
C           -6.88453133872789       -3.10370249569305        0.33954187554840
C           -5.83262681237377       -2.22216769987006        0.49720500227127
C           -5.99811896013799       -0.92562367297649        0.03086170713610
C           -2.72905975211866        0.54954738096454       -0.14280959296205
C           -1.46002456633329        0.52783872057462        0.39838396128633
C            1.46001871541598       -0.52779869621116        0.39838935687878
C            2.72905258072082       -0.54952438926690       -0.14280694219494
H            7.94348353478726       -3.77635081306024       -2.35548325786280
H            5.71300307412314       -4.41255894000173       -1.57061355187792
H            4.26130577228953       -2.79374081081991       -0.41064593814500
H            8.80950818321499       -1.49100609245268       -1.97764790445935
H            9.15159648784784        1.13738957365883       -1.24981554184948
H            8.87378601146395        3.43383124753485       -0.37558802609109
H            6.78161599099306        4.11778690401049        0.69710315393834
H            4.90862373858619        2.53682495673436        0.95867550457394
H            4.47324323534801        0.63989721570566        2.49417366676736
H            2.21069724309351        0.72354335526494        3.44755900452002
H            0.00000282682029        0.00004991792188        3.29116645054757
H           -2.21068947581402       -0.72344535410306        3.44758043857399
H           -4.47323787578359       -0.63982810871057        2.49419999935022
H           -4.26131553925233        2.79373537502889       -0.41073834926712
H           -5.71300903318998        4.41249964136680       -1.57078335521515
H           -7.94348377198125        3.77625296787330       -2.35564129429147
H           -8.80950383157534        1.49091961080101       -1.97771602563318
H           -9.15158152635811       -1.13744772520474       -1.24979792677163
H           -8.87377603357322       -3.43385276066430       -0.37546909229071
H           -6.78161675995934       -4.11775685975623        0.69727512003113
H           -4.90862931973981       -2.53678320312329        0.95879501889458
H           -2.87681364615932        0.90756984508916       -1.15054523499933
H           -0.63094483440572        0.91204673143188       -0.17421156781136
H            0.63093612208746       -0.91201606536446       -0.17419575070826
H            2.87680372529433       -0.90757333061318       -1.15053344471625

          :  Hamiltonian                  GFN2-xTB          :
         :: gradient norm              0.000068031150 Eh/a0 ::
         :: HOMO-LUMO gap              2.884569696173 eV    ::
         :: SCC energy              -100.537518668819 Eh    ::
         :: -> dispersion             -0.084722989773 Eh    ::
         :: repulsion energy           1.859510841835 Eh    ::

    * Orbital Energies and Occupations

         #    Occupation            Energy/Eh            Energy/eV
      -------------------------------------------------------------
         1        2.0000           -0.6722114             -18.2918
       ...           ...                  ...                  ...
        80        2.0000           -0.4157238             -11.3124
        81        2.0000           -0.4154766             -11.3057
        82        2.0000           -0.4150806             -11.2949
        83        2.0000           -0.4131148             -11.2414
        84        2.0000           -0.4130601             -11.2399
        85        2.0000           -0.4119543             -11.2098
        86        2.0000           -0.4012912             -10.9197
        87        2.0000           -0.4012764             -10.9193
        88        2.0000           -0.3745931             -10.1932
        89        2.0000           -0.3745925             -10.1932
        90        2.0000           -0.3737912             -10.1714
        91        2.0000           -0.3594896              -9.7822
        92        2.0000           -0.3507698              -9.5449 (HOMO)
        93                         -0.2447638              -6.6604 (LUMO)
        94                         -0.2412142              -6.5638
        95                         -0.2370177              -6.4496
        96                         -0.2334609              -6.3528
        97                         -0.2324677              -6.3258
        98                         -0.2178964              -5.9293
        99                         -0.2178964              -5.9293
       100                         -0.2141104              -5.8262
       101                         -0.1875800              -5.1043
       102                         -0.1828220              -4.9748
       103                         -0.1820389              -4.9535
       ...                                ...                  ...
       181                          0.7501888              20.4137
      -------------------------------------------------------------
                  HL-Gap            0.1060060 Eh            2.8846 eV

     #   Z          covCN         q      C6AA      α(0)
     1   6 C        2.920    -0.042    29.032     8.836
     2   6 C        2.924    -0.034    28.845     8.808
     3   6 C        2.910    -0.052    29.280     8.873
     4   6 C        3.077     0.046    26.886     8.501
     5   6 C        3.069    -0.018    28.379     8.735
     6   6 C        2.912    -0.033    28.825     8.804
     7   6 C        3.068    -0.018    28.379     8.735
     8   6 C        2.912    -0.033    28.825     8.804
     9   6 C        2.920    -0.042    29.033     8.836
    10   6 C        2.924    -0.034    28.847     8.808
    11   6 C        2.910    -0.052    29.279     8.873
    12   6 C        3.078     0.046    26.885     8.501
    13   7 N        2.802    -0.044    22.081     6.979
    14   6 C        2.912     0.053    26.814     8.491
    15   6 C        2.921    -0.042    29.035     8.836
    16   6 C        2.926    -0.058    29.438     8.898
    17   6 C        2.902     0.067    26.497     8.440
    18   7 N        2.700    -0.150    24.237     7.312
    19   6 C        2.902     0.067    26.497     8.440
    20   6 C        2.926    -0.058    29.438     8.898
    21   6 C        2.921    -0.042    29.035     8.836
    22   6 C        2.912     0.053    26.814     8.491
    23   7 N        2.802    -0.044    22.081     6.979
    24   6 C        3.077     0.046    26.886     8.501
    25   6 C        2.910    -0.052    29.280     8.873
    26   6 C        2.924    -0.034    28.845     8.808
    27   6 C        2.920    -0.042    29.032     8.836
    28   6 C        2.912    -0.033    28.825     8.804
    29   6 C        3.069    -0.018    28.379     8.735
    30   6 C        3.068    -0.018    28.379     8.735
    31   6 C        2.912    -0.033    28.825     8.804
    32   6 C        2.920    -0.042    29.033     8.836
    33   6 C        2.924    -0.034    28.847     8.808
    34   6 C        2.910    -0.052    29.279     8.873
    35   6 C        3.078     0.046    26.885     8.501
    36   6 C        2.922    -0.043    29.068     8.841
    37   6 C        2.921    -0.053    29.316     8.879
    38   6 C        2.921    -0.053    29.316     8.879
    39   6 C        2.922    -0.043    29.068     8.841
    40   1 H        0.926     0.027     2.634     2.538
    41   1 H        0.926     0.028     2.621     2.532
    42   1 H        0.926     0.026     2.643     2.542
    43   1 H        0.926     0.030     2.589     2.516
    44   1 H        0.926     0.030     2.589     2.516
    45   1 H        0.926     0.027     2.634     2.538
    46   1 H        0.926     0.027     2.624     2.533
    47   1 H        0.926     0.026     2.646     2.544
    48   1 H        0.926     0.042     2.425     2.435
    49   1 H        0.926     0.030     2.591     2.517
    50   1 H        0.860     0.162     1.319     1.799
    51   1 H        0.926     0.030     2.591     2.517
    52   1 H        0.926     0.042     2.425     2.435
    53   1 H        0.926     0.026     2.643     2.542
    54   1 H        0.926     0.028     2.621     2.532
    55   1 H        0.926     0.027     2.634     2.538
    56   1 H        0.926     0.030     2.589     2.516
    57   1 H        0.926     0.030     2.589     2.516
    58   1 H        0.926     0.027     2.634     2.538
    59   1 H        0.926     0.027     2.624     2.533
    60   1 H        0.926     0.026     2.646     2.544
    61   1 H        0.926     0.042     2.416     2.431
    62   1 H        0.926     0.043     2.415     2.430
    63   1 H        0.926     0.043     2.415     2.430
    64   1 H        0.926     0.042     2.416     2.431

molecular dipole:
                 x           y           z       tot (Debye)
 q only:       -0.000       0.000       0.745
   full:       -0.000       0.000       0.957       2.432

 projected vibrational frequencies (cm⁻¹)
eigval :       -0.00    -0.00    -0.00     0.00     0.00     0.00
eigval :        9.37    13.54    17.15    35.40    40.09    58.70
eigval :       61.67    71.06   102.81   104.08   104.13   130.68
eigval :      143.81   144.97   153.55   178.97   187.51   227.10
eigval :      231.16   252.99   271.67   272.04   283.53   315.97
eigval :      349.01   373.12   378.86   380.85   391.72   398.05
eigval :      398.86   406.57   418.23   423.53   430.87   436.13
eigval :      438.96   448.69   490.56   493.18   518.94   518.95
eigval :      532.64   533.20   541.23   541.26   580.00   580.10
eigval :      586.04   591.90   595.82   596.96   617.34   639.36
eigval :      672.79   673.33   674.34   675.27   702.68   704.86
eigval :      710.63   711.02   756.58   756.94   769.18   769.30
eigval :      780.54   780.56   806.96   809.97   824.86   858.48
eigval :      866.99   871.49   872.14   872.31   881.78   883.17
eigval :      896.86   897.50   901.29   901.31   901.55   903.07
eigval :      912.68   916.40   918.96   921.81   923.60   924.89
eigval :      928.19   934.57   946.85   950.71  1011.91  1011.99
eigval :     1017.87  1022.11  1069.97  1069.99  1073.55  1073.57
eigval :     1117.84  1118.71  1133.03  1143.78  1152.67  1153.06
eigval :     1176.69  1176.73  1181.53  1181.54  1182.36  1185.12
eigval :     1197.97  1203.30  1229.82  1237.00  1237.16  1237.21
eigval :     1245.07  1256.41  1274.28  1279.21  1300.39  1301.50
eigval :     1306.04  1306.44  1326.58  1332.68  1357.46  1357.74
eigval :     1361.41  1363.50  1363.73  1371.93  1395.40  1422.27
eigval :     1427.90  1429.16  1432.74  1436.55  1456.99  1477.20
eigval :     1477.50  1488.91  1488.93  1498.15  1502.06  1561.71
eigval :     1562.40  1574.78  1574.83  1589.00  1589.28  1599.12
eigval :     1599.16  1606.29  1606.83  1615.61  1615.92  3069.71
eigval :     3070.23  3074.66  3074.66  3075.06  3075.08  3079.90
eigval :     3079.90  3081.08  3081.12  3086.94  3086.98  3088.57
eigval :     3088.70  3091.25  3092.16  3094.04  3094.07  3095.14
eigval :     3095.28  3095.71  3095.92  3106.28  3109.03  3429.58

   temp. (K)  partition function   enthalpy   heat capacity  entropy
                                   cal/mol     cal/K/mol   cal/K/mol   J/K/mol
 298.15  VIB  0.490E+13            17036.084    112.960    104.089
         ROT  0.319E+08              888.752      2.981     37.318
         INT  0.156E+21            17924.837    115.940    141.407
         TR   0.108E+29             1481.254      4.968     44.493
         TOT                       19406.0905   120.9086   185.9001   777.8061

       T/K    H(0)-H(T)+PV         H(T)/Eh          T*S/Eh         G(T)/Eh
   ------------------------------------------------------------------------
    298.15    0.309256E-01    0.526768E+00    0.883271E-01    0.438441E+00
   ------------------------------------------------------------------------

         :::::::::::::::::::::::::::::::::::::::::::::::::::::
         ::                  THERMODYNAMIC                  ::
         :::::::::::::::::::::::::::::::::::::::::::::::::::::
         :: total free energy         -98.239566501581 Eh   ::
         ::.................................................::
         :: total energy              -98.678007826984 Eh   ::
         :: zero point energy           0.495842898238 Eh   ::
         :: G(RRHO) w/o ZPVE           -0.057401572835 Eh   ::
         :: G(RRHO) contrib.            0.438441325403 Eh   ::
         :::::::::::::::::::::::::::::::::::::::::::::::::::::

           -------------------------------------------------
          | TOTAL ENERGY              -98.678007826984 Eh   |
          | TOTAL ENTHALPY            -98.151239355101 Eh   |
          | TOTAL FREE ENERGY         -98.239566501581 Eh   |
          | GRADIENT NORM               0.000068032972 Eh/α |
          | HOMO-LUMO GAP               2.884569607289 eV   |
           -------------------------------------------------

 * finished run on 2025/08/25 at 06:20:33.423
