   * xtb version 6.7.1 (edcfbbe) compiled by 'albert@albert-system' on 2024-07-22

   ID    Z sym.   atoms
    1    6 C      1-12, 14-17, 19-22, 24-39
    2    7 N      13, 18, 23
    3    1 H      40-64

          program call               : xtb data2507/gas/Ph-CF3/Ph-CF3_gas_T1_crest.xyz --gfn 2 --spinpol --tblite --uhf 2 --ohess vtight --parallel 40 --molden --ceasefiles --namespace data2507/gas/Ph-CF3/Ph-CF3_gas_T1_finalOpt
 * total energy  :   -98.5779194 Eh     change        0.6885188E-08 Eh
 * total energy  :   -98.5779388 Eh     change       -0.1944595E-04 Eh
 * total energy  :   -98.5779465 Eh     change       -0.7699092E-05 Eh
 * total energy  :   -98.5779479 Eh     change       -0.1402514E-05 Eh
 * total energy  :   -98.5779495 Eh     change       -0.1555476E-05 Eh
 * total energy  :   -98.5779510 Eh     change       -0.1446506E-05 Eh
 * total energy  :   -98.5779527 Eh     change       -0.1776789E-05 Eh
 * total energy  :   -98.5779537 Eh     change       -0.9967941E-06 Eh
 * total energy  :   -98.5779542 Eh     change       -0.5204760E-06 Eh
 * total energy  :   -98.5779549 Eh     change       -0.6561387E-06 Eh
 * total energy  :   -98.5779578 Eh     change       -0.3191333E-06 Eh
 * total energy  :   -98.5779581 Eh     change       -0.2632660E-06 Eh
 * total energy  :   -98.5779584 Eh     change       -0.3348151E-06 Eh
 * total energy  :   -98.5779588 Eh     change       -0.3419797E-06 Eh
 * total energy  :   -98.5779592 Eh     change       -0.4257393E-06 Eh
 * total energy  :   -98.5779596 Eh     change       -0.4275457E-06 Eh
 * total energy  :   -98.5779601 Eh     change       -0.4761548E-06 Eh
 * total energy  :   -98.5779601 Eh     change        0.2013722E-07 Eh
 * total energy  :   -98.5779601 Eh     change       -0.1767710E-07 Eh
   *** GEOMETRY OPTIMIZATION CONVERGED AFTER 23 ITERATIONS ***

 final structure:
================
64
 xtb: 6.7.1 (edcfbbe)
C            6.52522774041587       -3.59296967581121        1.36202864341955
C            5.16073573662762       -3.35751843278485        1.52756710150679
C            4.58199444673495       -2.16725169847884        1.11872907864609
C            5.39771786592574       -1.21526732421365        0.52932592384493
C            6.79410573696219       -1.43040127212072        0.39426172628324
C            7.35134179821988       -2.63621784307427        0.80721731824217
C            7.34055312633092       -0.23594676153673       -0.17143764991013
C            8.62512121235702        0.14446179538643       -0.54567245921233
C            8.80821705242589        1.38582705841418       -1.12101045105901
C            7.72966332541827        2.24066689870249       -1.34573900558646
C            6.44253006389978        1.88679614326297       -0.97562482273717
C            6.25473700945786        0.65816610029974       -0.36376209334494
N            5.08398588768406        0.05417009149992        0.06841764975803
C            3.81994169047055        0.61191557508138        0.04080651852739
C            3.60778850797434        1.95486000759324        0.43359971308559
C            2.35608254892949        2.49389486866290        0.41654962301519
C            1.23261045041484        1.72682862593714        0.01154475591360
N           -0.00332788036814        2.31017702845768        0.02329505645263
C           -1.23934362563405        1.72686367102825        0.03378056947785
C           -2.36063760032079        2.48956434478276       -0.38541061256649
C           -3.61077734594669        1.94749738110626       -0.41210483761548
C           -3.82355666366592        0.60594237511251       -0.01459421402880
N           -5.08432259314160        0.04222052344607       -0.05995808004518
C           -5.38423155880382       -1.22947525473942       -0.52408362360203
C           -4.55348318967107       -2.17961591916646       -1.09508593131196
C           -5.11972915329979       -3.37257038694574       -1.51349369441864
C           -6.48647659575109       -3.61243472646025       -1.37524447467261
C           -7.32684878238352       -2.65779743513056       -0.83852525079466
C           -6.78222532750962       -1.44940519148529       -0.41632236720350
C           -7.34408579416311       -0.25584026178899        0.13592873606056
C           -8.63719507691627        0.12075845381770        0.48364990725947
C           -8.83618713918010        1.36290194964981        1.05194003803937
C           -7.76544659700854        2.22239935503500        1.29565019505275
C           -6.46993421861252        1.87236525402817        0.95210212025124
C           -6.26557468675813        0.64280350565739        0.34750224585432
C           -2.71703618254552       -0.13859696813799        0.45725985898639
C           -1.46684708511897        0.40392622988042        0.49354789229052
C            1.45802783189783        0.40024716728317       -0.43846714377931
C            2.70980870980693       -0.13931669462526       -0.41131911745992
H            6.93988761768788       -4.53573961388842        1.68730746744152
H            4.54384048369833       -4.11438359267214        1.98819073745895
H            3.52937168869037       -1.98706451733064        1.27510319251873
H            8.41094840146896       -2.81226628673771        0.69955580558836
H            9.45784796331101       -0.52550859383620       -0.39381163286307
H            9.79855983376526        1.69865888978836       -1.41751458877095
H            7.89885152050121        3.19400454482733       -1.82342198881815
H            5.61310633695068        2.54601949635352       -1.18149757005633
H            4.44405364648817        2.53261449806098        0.79541201435402
H            2.19860858722074        3.51160131844456        0.74527955046170
H           -0.00320968604524        3.32398568454688        0.01936088586041
H           -2.20203317616784        3.50555580177576       -0.71886342191706
H           -4.44460818268804        2.52099658970949       -0.78606822181633
H           -3.49853990238467       -1.99604760753287       -1.23046201423061
H           -4.49103858197406       -4.12798686644083       -1.96030716913869
H           -6.89127345063699       -4.55702046879342       -1.70760907513176
H           -8.38781171459785       -2.83731930730083       -0.75202289278323
H           -9.46429401706724       -0.55265386985009        0.31694685243658
H           -9.83336945708520        1.67286380795313        1.32784406968639
H           -7.94766711337359        3.17638884683005        1.76717337345771
H           -5.64712520096009        2.53523667630550        1.17238182402627
H           -2.88951578422728       -1.12767388210047        0.85351979324083
H           -0.65013386995152       -0.14557837601904        0.93405580785313
H            0.63801060863627       -0.15507137813971       -0.86522841353578
H            2.87987535608597       -1.13130905147825       -0.80123349854063

 projected vibrational frequencies (cm⁻¹)
eigval :       -0.00    -0.00    -0.00     0.00     0.00     0.00
eigval :       12.07    12.77    16.60    37.58    41.46    58.42
eigval :       61.17    82.60   102.34   102.87   111.20   136.92
eigval :      143.68   146.27   173.62   179.54   190.12   214.66
eigval :      232.73   263.41   267.00   271.77   292.77   294.92
eigval :      320.33   325.46   376.68   381.47   385.14   391.21
eigval :      403.18   404.01   411.36   415.71   430.49   435.71
eigval :      437.65   437.81   448.23   513.87   513.91   528.99
eigval :      528.99   538.90   539.34   566.05   566.36   573.03
eigval :      580.18   585.08   586.21   599.90   610.96   620.82
eigval :      634.60   638.02   663.84   663.87   690.35   693.45
eigval :      697.78   702.56   753.10   753.29   761.22   761.23
eigval :      768.69   769.06   783.15   787.93   803.06   803.50
eigval :      842.98   844.36   861.71   862.44   862.60   865.65
eigval :      884.04   889.40   890.49   892.41   892.71   895.42
eigval :      903.40   904.80   906.18   907.73   908.37   910.93
eigval :      913.55   915.35   918.30   928.50   977.65   979.15
eigval :     1006.62  1006.69  1064.30  1067.01  1067.05  1070.61
eigval :     1103.03  1108.47  1125.26  1138.85  1139.85  1145.06
eigval :     1146.93  1151.20  1170.87  1174.90  1176.58  1176.66
eigval :     1177.10  1184.13  1198.96  1199.51  1227.43  1227.54
eigval :     1229.62  1235.89  1258.13  1266.46  1280.28  1280.80
eigval :     1288.94  1299.82  1304.29  1305.59  1334.09  1339.09
eigval :     1346.87  1348.55  1354.35  1359.30  1369.35  1371.43
eigval :     1400.63  1407.67  1407.76  1417.52  1417.70  1443.80
eigval :     1457.22  1458.53  1465.02  1477.22  1480.89  1483.21
eigval :     1490.52  1519.66  1521.15  1534.14  1534.17  1539.55
eigval :     1570.03  1570.63  1572.09  1572.12  1599.37  3065.71
eigval :     3066.41  3076.19  3076.27  3076.53  3076.82  3082.46
eigval :     3082.54  3083.32  3083.42  3087.94  3088.65  3089.50
eigval :     3089.86  3091.32  3091.53  3095.74  3095.85  3096.29
eigval :     3096.82  3098.73  3099.40  3101.74  3104.08  3357.56

   temp. (K)  partition function   enthalpy   heat capacity  entropy
                                   cal/mol     cal/K/mol   cal/K/mol   J/K/mol
 298.15  VIB  0.373E+13            17244.585    115.143    104.669
         ROT  0.610E+08              888.752      2.981     38.606
         INT  0.228E+21            18133.337    118.124    143.275
         TR   0.108E+29             1481.254      4.968     44.493
         TOT                       19614.5911   123.0917   187.7680   785.6213

       T/K    H(0)-H(T)+PV         H(T)/Eh          T*S/Eh         G(T)/Eh
   ------------------------------------------------------------------------
    298.15    0.312578E-01    0.521549E+00    0.892146E-01    0.432335E+00
   ------------------------------------------------------------------------

         :::::::::::::::::::::::::::::::::::::::::::::::::::::
         ::                  THERMODYNAMIC                  ::
         :::::::::::::::::::::::::::::::::::::::::::::::::::::
         :: total free energy         -98.145625355893 Eh   ::
         ::.................................................::
         :: total energy              -98.577960104895 Eh   ::
         :: zero point energy           0.490291537694 Eh   ::
         :: G(RRHO) w/o ZPVE           -0.057956788692 Eh   ::
         :: G(RRHO) contrib.            0.432334749002 Eh   ::
         :::::::::::::::::::::::::::::::::::::::::::::::::::::

           -------------------------------------------------
          | TOTAL ENERGY              -98.577960104895 Eh   |
          | TOTAL ENTHALPY            -98.056410726662 Eh   |
          | TOTAL FREE ENERGY         -98.145625355893 Eh   |
          | GRADIENT NORM               0.000181346207 Eh/α |
           -------------------------------------------------

 * finished run on 2025/08/25 at 06:28:03.994
