   * xtb version 6.7.1 (edcfbbe) compiled by 'albert@albert-system' on 2024-07-22

   ID    Z sym.   atoms
    1    6 C      1-12, 14-17, 19-22, 24-39
    2    7 N      13, 18, 23
    3    1 H      40-64

          program call               : xtb data2507/gas/Ph-CF3/Ph-CF3_gas_S0_crest.xyz --gfn 2 --ohess vtight --parallel 40 --molden --ceasefiles --namespace data2507/gas/Ph-CF3/Ph-CF3_gas_S0_finalOpt
          :  Hamiltonian                  GFN2-xTB          :
 * total energy  :   -98.6780304 Eh     change       -0.2482139E-08 Eh
 * total energy  :   -98.6780311 Eh     change       -0.6985765E-06 Eh
 * total energy  :   -98.6780316 Eh     change       -0.5451337E-06 Eh
 * total energy  :   -98.6780328 Eh     change       -0.1201230E-05 Eh
 * total energy  :   -98.6780335 Eh     change       -0.6283661E-06 Eh
 * total energy  :   -98.6780337 Eh     change       -0.2047875E-06 Eh
 * total energy  :   -98.6780338 Eh     change       -0.1519716E-06 Eh
 * total energy  :   -98.6780340 Eh     change       -0.1930929E-06 Eh
 * total energy  :   -98.6780342 Eh     change       -0.1554807E-06 Eh
 * total energy  :   -98.6780343 Eh     change       -0.1358432E-06 Eh
 * total energy  :   -98.6780345 Eh     change       -0.1573884E-06 Eh
 * total energy  :   -98.6780346 Eh     change       -0.1571124E-06 Eh
 * total energy  :   -98.6780347 Eh     change       -0.7654533E-07 Eh
   *** GEOMETRY OPTIMIZATION CONVERGED AFTER 13 ITERATIONS ***

 final structure:
================
64
 xtb: 6.7.1 (edcfbbe)
C            7.36135423942290       -3.01581145908636       -1.75912141165069
C            6.09483643056840       -3.37618287428877       -1.30356689639396
C            5.25971946703630       -2.46038920880660       -0.69333185474934
C            5.71875950443810       -1.15837596605014       -0.55245071829963
C            7.01158148479543       -0.78886789777222       -0.99093623280251
C            7.83232281144900       -1.72787331832647       -1.60186085950519
C            7.17593653223508        0.59673280698176       -0.65269012666603
C            8.20602463319371        1.51021387296481       -0.83442585646247
C            8.02641430355417        2.80622399500670       -0.39452099875901
C            6.83310747987508        3.19975236800848        0.20771718539899
C            5.79399332175435        2.30989306571614        0.39966520650924
C            5.97677429698105        1.00011952262761       -0.02083446342843
N            5.10583353041857       -0.06862845429420        0.03107650844161
C            3.81843168535061       -0.04935783731623        0.58757554140020
C            3.61834814412435        0.42423260291838        1.88149994052778
C            2.35069123789060        0.45645851056553        2.42112200639118
C            1.24724813442672        0.01003167575326        1.68891383217682
N            0.00044716212844        0.03489269334732        2.28614307968320
C           -1.24679843768724        0.04346664266839        1.68922533158459
C           -2.34712622916004       -0.40158031856535        2.42681619122191
C           -3.61474085496673       -0.38565375868564        1.88630055915469
C           -3.81772364309757        0.06997938280827        0.58642073834135
N           -5.10483997245660        0.07044768542573        0.02891392142161
C           -5.72859854208156        1.14703888668371       -0.56736579880520
C           -5.28228541687185        2.45160177853338       -0.72450982973476
C           -6.12667300786568        3.35173481921660       -1.34523008116539
C           -7.38992509217166        2.97358668642965       -1.79540944585337
C           -7.84820078754537        1.68310655408136       -1.62227456335529
C           -7.01796708868561        0.75963930637399       -1.00060593567814
C           -7.16859349029631       -0.62336834471106       -0.64574284064696
C           -8.18964543046004       -1.54910958944394       -0.81611632455949
C           -7.99693453962155       -2.83802096234088       -0.36115100518325
C           -6.79947843658902       -3.21258229794573        0.24493509891685
C           -5.76922771167678       -2.31021329469888        0.42593305311539
C           -5.96527409006733       -1.00735031183564       -0.00976773161876
C           -2.72963977986352        0.53675500649700       -0.14507365279519
C           -1.46288539070426        0.53741120230844        0.40146665311403
C            1.45998263374594       -0.50056188285492        0.40714784951215
C            2.72692913483489       -0.51612214357630       -0.13875500291399
H            7.98283770744488       -3.76072394159360       -2.23358661023596
H            5.75964235381566       -4.39557419705311       -1.42735979954817
H            4.28658654965559       -2.75285279205918       -0.32828487711903
H            8.81944519048072       -1.45216899990149       -1.94136285000042
H            9.12521365490175        1.20892489629585       -1.31400736374288
H            8.81593774044076        3.53157404681499       -0.52409538669886
H            6.71678248168496        4.22459108542103        0.52871888711857
H            4.86654887435066        2.62721423163128        0.85250797008662
H            4.46434784174905        0.75795956948009        2.46326774752579
H            2.20468890134013        0.82363891546459        3.42728421705641
H            0.00079060482937        0.03987467321120        3.29555493871901
H           -2.19884031541861       -0.75520747199177        3.43749118762550
H           -4.45847234383905       -0.71874248275263        2.47172723842923
H           -4.31176567180500        2.75792475701990       -0.36388718360726
H           -5.80145707662981        4.37273279546947       -1.48175037314830
H           -8.01892974399515        3.70661525325870       -2.27839443207557
H           -8.83275720323227        1.39362689229498       -1.95773706960033
H           -9.11198743292873       -1.26260590507503       -1.29869244544166
H           -8.77922456944056       -3.57267956750250       -0.48180511273121
H           -6.67272681971164       -4.23240137473439        0.57775623034128
H           -4.83847444927796       -2.61292396087422        0.88199005631583
H           -2.88179707921281        0.90118487111391       -1.14988342276412
H           -0.63843052602844        0.94166623102815       -0.16421339656214
H            0.63290318409922       -0.90541772250344       -0.15422970833162
H            2.87646881197307       -0.89376049788084       -1.13907107369458

          :  Hamiltonian                  GFN2-xTB          :
         :: gradient norm              0.000049764099 Eh/a0 ::
         :: HOMO-LUMO gap              2.892031979848 eV    ::
         :: SCC energy              -100.537635359645 Eh    ::
         :: -> dispersion             -0.084727937152 Eh    ::
         :: repulsion energy           1.859600661602 Eh    ::

    * Orbital Energies and Occupations

         #    Occupation            Energy/Eh            Energy/eV
      -------------------------------------------------------------
         1        2.0000           -0.6722173             -18.2920
       ...           ...                  ...                  ...
        80        2.0000           -0.4158116             -11.3148
        81        2.0000           -0.4155009             -11.3064
        82        2.0000           -0.4150881             -11.2951
        83        2.0000           -0.4131873             -11.2434
        84        2.0000           -0.4131247             -11.2417
        85        2.0000           -0.4119633             -11.2101
        86        2.0000           -0.4012684             -10.9191
        87        2.0000           -0.4012307             -10.9180
        88        2.0000           -0.3745712             -10.1926
        89        2.0000           -0.3745380             -10.1917
        90        2.0000           -0.3736552             -10.1677
        91        2.0000           -0.3594601              -9.7814
        92        2.0000           -0.3509976              -9.5511 (HOMO)
        93                         -0.2447174              -6.6591 (LUMO)
        94                         -0.2411645              -6.5624
        95                         -0.2371035              -6.4519
        96                         -0.2336724              -6.3586
        97                         -0.2325646              -6.3284
        98                         -0.2178587              -5.9282
        99                         -0.2178258              -5.9273
       100                         -0.2142970              -5.8313
       101                         -0.1876154              -5.1053
       102                         -0.1830955              -4.9823
       103                         -0.1820182              -4.9530
       ...                                ...                  ...
       181                          0.7502819              20.4162
      -------------------------------------------------------------
                  HL-Gap            0.1062802 Eh            2.8920 eV

     #   Z          covCN         q      C6AA      α(0)
     1   6 C        2.920    -0.042    29.032     8.836
     2   6 C        2.924    -0.034    28.845     8.808
     3   6 C        2.910    -0.052    29.280     8.873
     4   6 C        3.077     0.046    26.885     8.501
     5   6 C        3.069    -0.018    28.380     8.735
     6   6 C        2.912    -0.033    28.825     8.804
     7   6 C        3.068    -0.018    28.380     8.735
     8   6 C        2.912    -0.033    28.825     8.804
     9   6 C        2.920    -0.042    29.034     8.836
    10   6 C        2.924    -0.034    28.847     8.808
    11   6 C        2.910    -0.052    29.279     8.873
    12   6 C        3.078     0.046    26.884     8.501
    13   7 N        2.802    -0.044    22.085     6.980
    14   6 C        2.912     0.053    26.813     8.491
    15   6 C        2.921    -0.042    29.032     8.836
    16   6 C        2.926    -0.058    29.436     8.897
    17   6 C        2.902     0.067    26.495     8.440
    18   7 N        2.700    -0.150    24.248     7.313
    19   6 C        2.903     0.067    26.495     8.440
    20   6 C        2.926    -0.058    29.435     8.897
    21   6 C        2.921    -0.042    29.031     8.836
    22   6 C        2.912     0.053    26.811     8.491
    23   7 N        2.802    -0.044    22.086     6.980
    24   6 C        3.077     0.046    26.885     8.501
    25   6 C        2.910    -0.052    29.280     8.873
    26   6 C        2.924    -0.034    28.845     8.808
    27   6 C        2.920    -0.042    29.032     8.836
    28   6 C        2.912    -0.033    28.825     8.804
    29   6 C        3.069    -0.018    28.379     8.735
    30   6 C        3.068    -0.018    28.380     8.735
    31   6 C        2.912    -0.033    28.825     8.804
    32   6 C        2.920    -0.042    29.034     8.836
    33   6 C        2.924    -0.034    28.847     8.808
    34   6 C        2.910    -0.051    29.279     8.873
    35   6 C        3.078     0.046    26.884     8.501
    36   6 C        2.922    -0.043    29.063     8.841
    37   6 C        2.921    -0.053    29.308     8.878
    38   6 C        2.921    -0.053    29.312     8.878
    39   6 C        2.922    -0.043    29.063     8.841
    40   1 H        0.926     0.027     2.634     2.538
    41   1 H        0.926     0.028     2.622     2.532
    42   1 H        0.926     0.026     2.646     2.544
    43   1 H        0.926     0.030     2.589     2.516
    44   1 H        0.926     0.030     2.589     2.516
    45   1 H        0.926     0.027     2.635     2.538
    46   1 H        0.926     0.027     2.624     2.533
    47   1 H        0.926     0.026     2.649     2.545
    48   1 H        0.926     0.042     2.425     2.435
    49   1 H        0.926     0.030     2.587     2.515
    50   1 H        0.860     0.162     1.321     1.800
    51   1 H        0.926     0.030     2.587     2.515
    52   1 H        0.926     0.042     2.425     2.435
    53   1 H        0.926     0.026     2.646     2.544
    54   1 H        0.926     0.028     2.622     2.532
    55   1 H        0.926     0.027     2.634     2.538
    56   1 H        0.926     0.030     2.589     2.516
    57   1 H        0.926     0.030     2.589     2.516
    58   1 H        0.926     0.027     2.635     2.538
    59   1 H        0.926     0.027     2.624     2.533
    60   1 H        0.926     0.026     2.649     2.545
    61   1 H        0.926     0.043     2.415     2.430
    62   1 H        0.926     0.042     2.416     2.431
    63   1 H        0.926     0.042     2.417     2.431
    64   1 H        0.926     0.042     2.416     2.431

molecular dipole:
                 x           y           z       tot (Debye)
 q only:       -0.003       0.010       0.753
   full:       -0.003       0.011       0.966       2.456

 projected vibrational frequencies (cm⁻¹)
eigval :       -0.00    -0.00    -0.00     0.00     0.00     0.00
eigval :        9.36    13.61    16.91    35.31    39.90    58.50
eigval :       60.85    70.00   101.60   103.85   103.93   130.77
eigval :      143.54   144.51   152.74   178.59   186.90   227.28
eigval :      230.67   252.93   271.57   271.92   283.28   316.46
eigval :      349.20   373.37   378.55   379.93   391.86   397.77
eigval :      398.20   406.57   418.25   423.45   429.37   430.50
eigval :      436.42   448.51   490.34   492.62   518.96   518.96
eigval :      532.45   532.96   541.26   541.29   579.82   580.08
eigval :      585.98   592.09   595.90   596.93   617.28   639.06
eigval :      672.94   673.35   674.38   675.32   702.64   705.00
eigval :      710.57   711.10   756.56   756.90   769.13   769.25
eigval :      780.50   780.52   807.22   809.93   825.47   858.88
eigval :      867.06   871.35   872.05   872.25   881.42   882.94
eigval :      896.82   897.53   901.29   901.30   901.61   902.96
eigval :      912.48   916.17   919.03   921.76   923.35   924.37
eigval :      927.80   934.91   946.16   950.61  1011.91  1011.98
eigval :     1017.80  1022.13  1069.74  1069.77  1073.30  1073.32
eigval :     1117.76  1118.54  1132.81  1142.88  1152.46  1152.74
eigval :     1176.61  1176.66  1181.55  1181.56  1182.24  1184.91
eigval :     1197.78  1202.52  1229.35  1237.06  1237.22  1237.24
eigval :     1245.03  1256.75  1273.77  1278.86  1300.33  1301.43
eigval :     1306.26  1306.67  1326.34  1332.12  1357.25  1357.70
eigval :     1361.02  1363.55  1363.67  1372.02  1395.26  1422.33
eigval :     1427.92  1429.20  1432.42  1436.69  1456.48  1477.32
eigval :     1477.57  1488.93  1488.94  1498.22  1501.70  1561.79
eigval :     1562.52  1574.73  1574.78  1589.12  1589.40  1599.19
eigval :     1599.23  1606.20  1606.58  1615.65  1615.98  3070.31
eigval :     3070.81  3074.57  3074.58  3074.97  3074.99  3079.76
eigval :     3079.77  3080.93  3080.98  3086.72  3086.76  3088.36
eigval :     3088.49  3090.81  3091.73  3093.93  3093.96  3094.84
eigval :     3095.03  3095.66  3095.83  3105.21  3107.70  3431.19

   temp. (K)  partition function   enthalpy   heat capacity  entropy
                                   cal/mol     cal/K/mol   cal/K/mol   J/K/mol
 298.15  VIB  0.529E+13            17051.868    112.966    104.232
         ROT  0.319E+08              888.752      2.981     37.316
         INT  0.169E+21            17940.620    115.947    141.548
         TR   0.108E+29             1481.254      4.968     44.493
         TOT                       19421.8738   120.9148   186.0408   778.3946

       T/K    H(0)-H(T)+PV         H(T)/Eh          T*S/Eh         G(T)/Eh
   ------------------------------------------------------------------------
    298.15    0.309507E-01    0.526722E+00    0.883940E-01    0.438328E+00
   ------------------------------------------------------------------------

         :::::::::::::::::::::::::::::::::::::::::::::::::::::
         ::                  THERMODYNAMIC                  ::
         :::::::::::::::::::::::::::::::::::::::::::::::::::::
         :: total free energy         -98.239706639752 Eh   ::
         ::.................................................::
         :: total energy              -98.678034698043 Eh   ::
         :: zero point energy           0.495771304712 Eh   ::
         :: G(RRHO) w/o ZPVE           -0.057443246420 Eh   ::
         :: G(RRHO) contrib.            0.438328058292 Eh   ::
         :::::::::::::::::::::::::::::::::::::::::::::::::::::

           -------------------------------------------------
          | TOTAL ENERGY              -98.678034698043 Eh   |
          | TOTAL ENTHALPY            -98.151312667353 Eh   |
          | TOTAL FREE ENERGY         -98.239706639752 Eh   |
          | GRADIENT NORM               0.000049769744 Eh/α |
          | HOMO-LUMO GAP               2.892031737655 eV   |
           -------------------------------------------------

 * finished run on 2025/08/25 at 06:23:37.667
