   * xtb version 6.7.1 (edcfbbe) compiled by 'albert@albert-system' on 2024-07-22

   ID    Z sym.   atoms
    1    6 C      1-12, 14-17, 19-22, 24-39
    2    7 N      13, 18, 23
    3    1 H      40-64

          program call               : xtb data2507/gas/Ph-CF3/Ph-CF3_gas_S0_finalOpt.xtbopt.xyz --gfn 2 --spinpol --tblite --uhf 2 --ohess vtight --parallel 40 --molden --ceasefiles --namespace data2507/gas/Ph-CF3/Ph-CF3_gas_T1_preOpt
 * total energy  :   -98.5711814 Eh     change       -0.2261308E-07 Eh
 * total energy  :   -98.5743781 Eh     change       -0.3196726E-02 Eh
 * total energy  :   -98.5754253 Eh     change       -0.1047132E-02 Eh
 * total energy  :   -98.5755293 Eh     change       -0.1040787E-03 Eh
 * total energy  :   -98.5755927 Eh     change       -0.6339267E-04 Eh
 * total energy  :   -98.5756211 Eh     change       -0.2838151E-04 Eh
 * total energy  :   -98.5756560 Eh     change       -0.3485943E-04 Eh
 * total energy  :   -98.5756941 Eh     change       -0.3815517E-04 Eh
 * total energy  :   -98.5757274 Eh     change       -0.3326014E-04 Eh
 * total energy  :   -98.5757455 Eh     change       -0.1811363E-04 Eh
 * total energy  :   -98.5762827 Eh     change       -0.8731399E-06 Eh
 * total energy  :   -98.5762835 Eh     change       -0.8357105E-06 Eh
 * total energy  :   -98.5762843 Eh     change       -0.8158086E-06 Eh
 * total energy  :   -98.5762851 Eh     change       -0.7950227E-06 Eh
 * total energy  :   -98.5762859 Eh     change       -0.7899206E-06 Eh
 * total energy  :   -98.5762867 Eh     change       -0.7757771E-06 Eh
 * total energy  :   -98.5762866 Eh     change        0.1127400E-06 Eh
 * total energy  :   -98.5762867 Eh     change       -0.1091388E-06 Eh
 * total energy  :   -98.5762867 Eh     change       -0.2579844E-07 Eh
   *** GEOMETRY OPTIMIZATION CONVERGED AFTER 124 ITERATIONS ***

 final structure:
================
64
 xtb: 6.7.1 (edcfbbe)
C            7.31319285347907       -2.86250643678548       -2.06398493055035
C            6.03296554612749       -3.23742736056020       -1.65786175454394
C            5.21546495504640       -2.36369824721623       -0.95961272341592
C            5.70327067879856       -1.09749720279604       -0.68061678719964
C            7.02070210900899       -0.72242293294255       -1.05370621420647
C            7.82015497610482       -1.61479529931877       -1.76057401845377
C            7.23242466920335        0.59684297327972       -0.54387801463430
C            8.29988053735546        1.48693475738575       -0.60287502113039
C            8.15680615191530        2.73310634893530       -0.02621842693831
C            6.96354897941487        3.10902472340851        0.58993122901733
C            5.88911210390428        2.23790067948116        0.66698377350016
C            6.03555344695685        0.97387082023859        0.11955694412844
N            5.11694425249124       -0.06003259457465        0.02775881999341
C            3.84049020719143       -0.05470854469391        0.56051035965937
C            3.61452942206497        0.39655482141447        1.88220430536217
C            2.35889086851506        0.39117397484676        2.41196267675643
C            1.23983628380822       -0.01718127517663        1.63948675063173
N            0.00031781596236        0.01698110530299        2.21656441128206
C           -1.23921975727800        0.04200380770470        1.63903418403685
C           -2.35827034816824       -0.35399005959676        2.41791705078266
C           -3.61391347795575       -0.36776173464519        1.88832864360369
C           -3.83988490683406        0.06243849262401        0.55962616475269
N           -5.11633279822617        0.05928601185780        0.02687361617328
C           -5.70266677086958        1.08532150679188       -0.69795487427220
C           -5.21486190382884        2.34691731242521       -0.99711221858714
C           -6.03236726475456        3.20939571523490       -1.70920284658560
C           -7.31259398239083        2.82804996320785       -2.10928948141653
C           -7.81955989278434        1.58533105596929       -1.78600955480823
C           -7.02010071953781        0.70435263780585       -1.06500341788355
C           -7.23182431923572       -0.60661953775452       -0.53419301044084
C           -8.29928245772506       -1.49753248281225       -0.57898142357337
C           -8.15619652899984       -2.73436274291565        0.01746390122195
C           -6.96292886803751       -3.10041062630715        0.63950056669049
C           -5.88849230772490       -2.22817135209407        0.70264584075890
C           -6.03494637829382       -0.97301779757605        0.13515125256156
C           -2.73701822235665        0.52265747643488       -0.19653890173247
C           -1.47365371419393        0.50311592007815        0.31871022586075
C            1.47426855541467       -0.49921283507778        0.32665787205581
C            2.73762822232217       -0.52690944221284       -0.18823481577714
H            7.91938985132867       -3.56863981130595       -2.61214899962953
H            5.67316378998089       -4.22942061301580       -1.88596934435512
H            4.23661679592290       -2.67549199971739       -0.62865368307006
H            8.81990988779935       -1.33455940850119       -2.05608802369685
H            9.21710783559585        1.20607807829223       -1.09803010880755
H            8.97499422369749        3.43730334383001       -0.06212360648877
H            6.87232067449188        4.09949859793600        1.00969791402258
H            4.96217043056249        2.54823118424552        1.12486754173415
H            4.45936809594003        0.69520290401835        2.48376388091965
H            2.19810179702162        0.70711447965414        3.43348072313760
H            0.00032016425173        0.02501524432397        3.23085089555966
H           -2.19747790095106       -0.65365526602081        3.44432672983832
H           -4.45875163487722       -0.65678389629315        2.49457167416269
H           -4.23601409392695        2.66395164041862       -0.67117236102221
H           -5.67256528385653        4.19762795877782       -1.95310456856509
H           -7.91879515014550        3.52534563124335       -2.66864404019689
H           -8.81931491521841        1.30042057920962       -2.07700860733711
H           -9.21651569025589       -1.22460631739586       -1.07853478280197
H           -8.97438533397918       -3.43903853443075       -0.00720267023706
H           -6.87168859425151       -4.08407438514512        1.07499306680570
H           -4.96154129385814       -2.53116872176791        1.16539361479107
H           -2.90139933618474        0.86029289504885       -1.20810272972029
H           -0.64876391680620        0.88086205376741       -0.26342393218544
H            0.64937960786768       -0.88618975449543       -0.24938560719253
H            2.90200827085845       -0.88058031675669       -1.19430468538449

 projected vibrational frequencies (cm⁻¹)
eigval :       -0.00    -0.00    -0.00     0.00     0.00     0.00
eigval :       11.13    13.33    17.47    35.09    43.13    58.75
eigval :       63.40    83.97   102.18   104.30   108.17   129.57
eigval :      143.75   145.31   156.31   184.58   191.46   227.99
eigval :      233.29   249.16   265.81   270.49   277.09   310.40
eigval :      310.47   352.51   370.88   372.15   383.00   388.36
eigval :      394.85   400.71   410.96   415.00   428.87   433.69
eigval :      437.02   437.54   446.57   513.59   513.59   528.35
eigval :      528.37   537.68   538.05   568.21   573.15   573.47
eigval :      580.65   582.96   587.58   588.93   606.60   625.20
eigval :      635.31   637.12   663.46   663.49   690.00   692.77
eigval :      697.29   702.02   752.48   753.03   760.93   761.14
eigval :      768.16   768.51   785.27   789.40   799.29   807.88
eigval :      838.96   843.52   861.80   861.88   862.23   863.79
eigval :      888.82   889.52   890.92   892.28   892.36   895.39
eigval :      901.64   904.77   907.29   907.91   908.36   910.74
eigval :      913.93   914.84   918.20   930.74   979.19   980.00
eigval :     1006.48  1006.55  1062.27  1066.78  1066.79  1070.21
eigval :     1101.83  1107.29  1124.78  1135.73  1140.45  1144.05
eigval :     1147.63  1148.92  1168.44  1174.51  1175.92  1176.35
eigval :     1176.59  1183.80  1199.08  1199.47  1226.90  1226.95
eigval :     1228.98  1235.28  1255.98  1267.11  1279.38  1280.02
eigval :     1289.50  1298.89  1304.37  1306.16  1334.07  1339.73
eigval :     1345.11  1347.21  1353.29  1356.56  1369.32  1371.29
eigval :     1403.03  1406.47  1406.78  1416.32  1417.60  1442.44
eigval :     1456.23  1457.83  1463.35  1475.69  1480.36  1482.62
eigval :     1490.93  1515.40  1517.45  1532.48  1532.49  1538.48
eigval :     1568.99  1569.70  1570.99  1571.03  1597.71  3062.26
eigval :     3063.13  3075.87  3075.88  3076.25  3076.39  3082.15
eigval :     3082.15  3083.25  3083.32  3088.54  3088.57  3090.74
eigval :     3090.86  3093.36  3094.04  3094.71  3095.18  3095.59
eigval :     3095.82  3096.00  3097.83  3107.92  3111.02  3347.28

   temp. (K)  partition function   enthalpy   heat capacity  entropy
                                   cal/mol     cal/K/mol   cal/K/mol   J/K/mol
 298.15  VIB  0.407E+13            17282.115    115.282    104.986
         ROT  0.319E+08              888.752      2.981     37.316
         INT  0.130E+21            18170.867    118.263    142.302
         TR   0.108E+29             1481.254      4.968     44.493
         TOT                       19652.1210   123.2313   186.7951   781.5507

       T/K    H(0)-H(T)+PV         H(T)/Eh          T*S/Eh         G(T)/Eh
   ------------------------------------------------------------------------
    298.15    0.313176E-01    0.521361E+00    0.887524E-01    0.432609E+00
   ------------------------------------------------------------------------

         :::::::::::::::::::::::::::::::::::::::::::::::::::::
         ::                  THERMODYNAMIC                  ::
         :::::::::::::::::::::::::::::::::::::::::::::::::::::
         :: total free energy         -98.143678012879 Eh   ::
         ::.................................................::
         :: total energy              -98.576286705576 Eh   ::
         :: zero point energy           0.490043428706 Eh   ::
         :: G(RRHO) w/o ZPVE           -0.057434736009 Eh   ::
         :: G(RRHO) contrib.            0.432608692697 Eh   ::
         :::::::::::::::::::::::::::::::::::::::::::::::::::::

           -------------------------------------------------
          | TOTAL ENERGY              -98.576286705576 Eh   |
          | TOTAL ENTHALPY            -98.054925628680 Eh   |
          | TOTAL FREE ENERGY         -98.143678012879 Eh   |
          | GRADIENT NORM               0.000080306493 Eh/α |
           -------------------------------------------------

 * finished run on 2025/08/25 at 06:23:50.293
