   * xtb version 6.7.1 (edcfbbe) compiled by 'albert@albert-system' on 2024-07-22

   ID    Z sym.   atoms
    1    6 C      1, 3-11, 13, 15-23, 25-33, 35, 37-44
    2    8 O      2, 24
    3    7 N      12, 14, 34, 36
    4    1 H      45-74

          program call               : xtb data2507/toluene/1MOBI/1MOBI_toluene_S0_finalOpt.xtbopt.xyz --gfn 2 --uhf 2 --gbsa toluene --ohess vtight --parallel 40 --molden --ceasefiles --namespace data2507/toluene/1MOBI/1MOBI_toluene_T1_preOpt
      * Solvation model:               GBSA
        Solvent                        toluene
        Solvent mass                       9.2140E+01 g/mol
          :  Hamiltonian                  GFN2-xTB          :
 * total energy  :  -116.4904899 Eh     change       -0.5482121E-08 Eh
 * total energy  :  -116.4974816 Eh     change       -0.6991630E-02 Eh
 * total energy  :  -116.4995998 Eh     change       -0.2118255E-02 Eh
 * total energy  :  -116.4996875 Eh     change       -0.8764509E-04 Eh
 * total energy  :  -116.4997329 Eh     change       -0.4545585E-04 Eh
 * total energy  :  -116.4997526 Eh     change       -0.1962556E-04 Eh
 * total energy  :  -116.4997730 Eh     change       -0.2047149E-04 Eh
 * total energy  :  -116.4997851 Eh     change       -0.1205743E-04 Eh
 * total energy  :  -116.4997938 Eh     change       -0.8673322E-05 Eh
 * total energy  :  -116.4998119 Eh     change       -0.1818151E-04 Eh
 * total energy  :  -116.5002586 Eh     change       -0.7647053E-06 Eh
 * total energy  :  -116.5002593 Eh     change       -0.6489538E-06 Eh
 * total energy  :  -116.5002599 Eh     change       -0.6069159E-06 Eh
 * total energy  :  -116.5002604 Eh     change       -0.5176797E-06 Eh
 * total energy  :  -116.5002608 Eh     change       -0.4679512E-06 Eh
 * total energy  :  -116.5002612 Eh     change       -0.3494677E-06 Eh
 * total energy  :  -116.5002614 Eh     change       -0.2443642E-06 Eh
 * total energy  :  -116.5002616 Eh     change       -0.1562495E-06 Eh
 * total energy  :  -116.5002616 Eh     change       -0.2483404E-08 Eh
   *** GEOMETRY OPTIMIZATION CONVERGED AFTER 68 ITERATIONS ***

 final structure:
================
74
 xtb: 6.7.1 (edcfbbe)
C            0.47994081271977       -3.34423861551138       -0.21209050692630
O            1.23723975103264       -2.16439301161585       -0.05522007764557
C            0.59386814850874       -0.97013972310021        0.02420792752307
C           -0.76018340318571       -0.81992691113951       -0.03294232168387
C           -1.39299109068403        0.44955433661353        0.05162955559385
C           -2.77613864895651        0.63952196618692       -0.01395963056447
C           -3.74340365284339       -0.34251520632362       -0.16561488097723
C           -5.14118214556499       -0.13254782034329       -0.23936489481091
C           -5.75459056703065        1.13945791918299       -0.16575497988236
C           -7.11695549040526        1.28073892392091       -0.24133508954306
C           -7.94223697221533        0.16125176637218       -0.39105180021042
N           -9.32889085939483        0.31947635892107       -0.47598892043003
C           -9.98704046718795        1.29602496509206       -1.17303389528822
N          -11.27896538232940        1.20671498872947       -1.12915502753604
C          -11.53934787537310        0.10947871318648       -0.34306690147268
C          -12.75276408627092       -0.43782228186707        0.05784196312825
C          -12.71611799482371       -1.54375854546746        0.88147991860052
C          -11.50715526066923       -2.09270556041242        1.31381290092175
C          -10.29078857448259       -1.56582049862253        0.92650268922779
C          -10.31744091733266       -0.46937921028174        0.07771744880163
C           -7.36040283096396       -1.10733823370827       -0.47874217587543
C           -5.99815843334109       -1.24669831197312       -0.40273419768541
C           -0.52477668279678        1.59974049394042        0.21071941217570
O           -1.16847364526971        2.79347449417702        0.29482129572846
C           -0.41174086208427        3.97283914932001        0.45774560898998
C            0.82932378498927        1.44958995110539        0.26706901063297
C            1.46244980203472        0.18069979373625        0.17637172656055
C            2.84662179323180       -0.00746627570832        0.22354063946204
C            3.81454011167951        0.97629037048713        0.35898125714051
C            5.21446059852393        0.77041650717287        0.39379085305100
C            5.82922029115651       -0.50034717858975        0.31356359019676
C            7.19416120970526       -0.63755647735052        0.33770060473705
C            8.01994661842746        0.48625696600808        0.44030998858017
N            9.41145349480484        0.35098968274411        0.46351054488639
C           10.27514816054147        1.02980082553898        1.27927727201698
N           11.52037997796717        0.70378287446403        1.12979053780803
C           11.52833324155109       -0.25005182528752        0.13989913554985
C           12.59240768521744       -0.93149339852440       -0.43983789243461
C           12.30593275095870       -1.82897732205217       -1.44738432108940
C           10.99757492457997       -2.04163956466456       -1.88637075479965
C            9.92602946844296       -1.37681061816755       -1.32358926645602
C           10.20183311779665       -0.49120380566064       -0.29271109274004
C            7.43696186247447        1.75383992867283        0.54069773635465
C            6.07269221583140        1.88902621169504        0.51677234044054
H           -0.09727092559697       -3.32532483184401       -1.14119281409795
H            1.20715988551177       -4.15375115891298       -0.25293251928491
H           -0.19268493699324       -3.50113140659916        0.63618121740877
H           -1.39352849715126       -1.68224381519110       -0.14747587860920
H           -3.10059866720962        1.66616680607205        0.06189134588470
H           -3.42926904894269       -1.37416928124256       -0.23837847246611
H           -5.14552558811058        2.02025923120416       -0.04093312493924
H           -7.56563677376185        2.26091941235038       -0.16768783809754
H           -9.45972616976377        2.04863183517115       -1.72762092865956
H          -13.68309787369865        0.00226876392639       -0.26513289628780
H          -13.64162954961129       -1.99300285284230        1.21050410650207
H          -11.52479038791746       -2.94929296196219        1.97141678395484
H           -9.36242306141801       -1.98492544375816        1.28341591358055
H           -7.98966189510701       -1.97116246861307       -0.63163053509052
H           -5.56180034667751       -2.23218114123991       -0.47891907734485
H            0.16439221066816        3.95003753733651        1.38742294705984
H           -1.13925824610486        4.78194333624533        0.50134748784300
H            0.26181494219958        4.13371455106359       -0.38904851570732
H            1.46247256409450        2.31175545594234        0.38384678434048
H            3.17158128851876       -1.03336225493417        0.14003135839188
H            3.49955281530806        2.00684037201241        0.44272391913792
H            5.21815398624876       -1.38575662071648        0.24187347777502
H            7.64114921319086       -1.61975151252701        0.30047990377395
H            9.92826504534207        1.74818586210137        1.99743891931713
H           13.60271028983598       -0.74896496347016       -0.10901483312835
H           13.11028476020937       -2.37484019118859       -1.91823065280363
H           10.82058752363880       -2.74094644257576       -2.69013554366080
H            8.92071058551853       -1.53368248335477       -1.68340420773083
H            8.07107278589157        2.62516756566405        0.61777904802231
H            5.63658687191156        2.87521750514560        0.58395574348221

          :  Hamiltonian                  GFN2-xTB          :
         :: gradient norm              0.000039720607 Eh/a0 ::
         :: HOMO-LUMO gap              0.927054359931 eV    ::
         :: SCC energy              -118.461416393134 Eh    ::
         :: -> dispersion             -0.087933902724 Eh    ::
         :: -> Gsolv                  -0.054319963095 Eh    ::
         :: repulsion energy           1.961154796433 Eh    ::

    * Orbital Energies and Occupations

         #    Occupation            Energy/Eh            Energy/eV
      -------------------------------------------------------------
         1        2.0000           -0.7262392             -19.7620
       ...           ...                  ...                  ...
        96        2.0000           -0.4188432             -11.3973
        97        2.0000           -0.4165476             -11.3348
        98        2.0000           -0.4165365             -11.3345
        99        2.0000           -0.3965968             -10.7919
       100        2.0000           -0.3939172             -10.7190
       101        2.0000           -0.3928963             -10.6913
       102        2.0000           -0.3910615             -10.6413
       103        2.0000           -0.3856245             -10.4934
       104        2.0000           -0.3855668             -10.4918
       105        2.0000           -0.3827320             -10.4147
       106        2.0000           -0.3768943             -10.2558
       107        1.0000           -0.3508240              -9.5464
       108        1.0000           -0.2961319              -8.0582 (HOMO)
       109                         -0.2620633              -7.1311 (LUMO)
       110                         -0.2463199              -6.7027
       111                         -0.2426319              -6.6024
       112                         -0.2304722              -6.2715
       113                         -0.2304647              -6.2713
       114                         -0.2235149              -6.0822
       115                         -0.2120519              -5.7702
       116                         -0.2083499              -5.6695
       117                         -0.2030464              -5.5252
       118                         -0.1916370              -5.2147
       119                         -0.1802599              -4.9051
       ...                                ...                  ...
       206                          0.7021938              19.1077
      -------------------------------------------------------------
                  HL-Gap            0.0340686 Eh            0.9271 eV

     #   Z          covCN         q      C6AA      α(0)
     1   6 C        3.642     0.031    20.406     6.495
     2   8 O        1.705    -0.267    18.421     5.795
     3   6 C        2.858     0.134    25.076     8.208
     4   6 C        2.909    -0.087    30.192     9.010
     5   6 C        2.963    -0.005    28.135     8.700
     6   6 C        2.902    -0.038    28.954     8.823
     7   6 C        2.904    -0.043    29.070     8.841
     8   6 C        2.965     0.013    27.715     8.635
     9   6 C        2.920    -0.034    28.858     8.809
    10   6 C        2.916    -0.044    29.091     8.845
    11   6 C        2.912     0.051    26.846     8.496
    12   7 N        2.822    -0.034    21.902     6.951
    13   6 C        3.161     0.105    25.379     8.235
    14   7 N        1.879    -0.298    28.575     7.924
    15   6 C        3.215     0.066    25.866     8.274
    16   6 C        2.910    -0.045    29.107     8.847
    17   6 C        2.922    -0.040    28.992     8.830
    18   6 C        2.925    -0.039    28.957     8.825
    19   6 C        2.908    -0.050    29.249     8.868
    20   6 C        3.099     0.034    27.122     8.535
    21   6 C        2.914    -0.043    29.060     8.840
    22   6 C        2.927    -0.037    28.914     8.818
    23   6 C        2.858     0.134    25.076     8.208
    24   8 O        1.705    -0.267    18.422     5.795
    25   6 C        3.642     0.031    20.405     6.495
    26   6 C        2.909    -0.087    30.191     9.010
    27   6 C        2.963    -0.005    28.135     8.700
    28   6 C        2.902    -0.038    28.955     8.823
    29   6 C        2.904    -0.043    29.069     8.840
    30   6 C        2.965     0.013    27.714     8.635
    31   6 C        2.920    -0.035    28.874     8.812
    32   6 C        2.915    -0.042    29.046     8.838
    33   6 C        2.912     0.051    26.846     8.496
    34   7 N        2.822    -0.034    21.904     6.951
    35   6 C        3.161     0.105    25.380     8.235
    36   7 N        1.879    -0.298    28.579     7.925
    37   6 C        3.215     0.066    25.866     8.275
    38   6 C        2.910    -0.045    29.108     8.847
    39   6 C        2.922    -0.040    28.993     8.830
    40   6 C        2.926    -0.038    28.957     8.825
    41   6 C        2.908    -0.050    29.249     8.868
    42   6 C        3.099     0.034    27.121     8.534
    43   6 C        2.915    -0.044    29.102     8.846
    44   6 C        2.926    -0.036    28.898     8.816
    45   1 H        0.924     0.053     2.286     2.364
    46   1 H        0.925     0.071     2.073     2.252
    47   1 H        0.924     0.053     2.286     2.365
    48   1 H        0.926     0.050     2.319     2.381
    49   1 H        0.926     0.051     2.307     2.375
    50   1 H        0.926     0.039     2.458     2.452
    51   1 H        0.926     0.045     2.378     2.411
    52   1 H        0.926     0.036     2.507     2.476
    53   1 H        0.926     0.037     2.487     2.466
    54   1 H        0.926     0.041     2.437     2.441
    55   1 H        0.926     0.037     2.495     2.470
    56   1 H        0.926     0.038     2.480     2.463
    57   1 H        0.926     0.037     2.491     2.468
    58   1 H        0.926     0.041     2.433     2.439
    59   1 H        0.926     0.041     2.430     2.437
    60   1 H        0.924     0.053     2.286     2.365
    61   1 H        0.925     0.071     2.074     2.252
    62   1 H        0.924     0.053     2.286     2.365
    63   1 H        0.926     0.050     2.320     2.382
    64   1 H        0.926     0.051     2.305     2.374
    65   1 H        0.926     0.039     2.461     2.453
    66   1 H        0.926     0.046     2.375     2.410
    67   1 H        0.926     0.041     2.431     2.438
    68   1 H        0.926     0.037     2.490     2.467
    69   1 H        0.926     0.041     2.438     2.442
    70   1 H        0.926     0.037     2.495     2.470
    71   1 H        0.926     0.038     2.479     2.462
    72   1 H        0.926     0.037     2.489     2.467
    73   1 H        0.926     0.036     2.509     2.477
    74   1 H        0.926     0.041     2.432     2.439

molecular dipole:
                 x           y           z       tot (Debye)
 q only:       -0.064      -0.450       0.025
   full:       -0.087      -0.612       0.024       1.572

 projected vibrational frequencies (cm⁻¹)
eigval :       -0.00    -0.00     0.00     0.00     0.00     0.00
eigval :        8.16    12.97    19.58    22.70    26.03    29.27
eigval :       37.41    59.46    60.28    63.39    72.60    75.15
eigval :       77.85    94.42    99.49   108.20   133.29   140.08
eigval :      156.73   165.01   177.82   185.03   194.25   208.48
eigval :      214.07   216.82   218.58   228.07   238.42   243.08
eigval :      250.07   257.93   286.66   307.07   320.24   348.38
eigval :      362.09   370.41   374.61   377.71   384.16   394.32
eigval :      398.72   401.75   422.73   436.65   448.55   460.48
eigval :      468.55   477.90   487.29   499.19   500.10   535.88
eigval :      547.28   549.01   550.40   557.15   591.75   595.47
eigval :      596.67   598.02   615.86   617.54   623.79   631.25
eigval :      660.41   669.07   673.79   676.60   685.70   688.81
eigval :      712.55   713.93   764.23   765.96   767.92   774.11
eigval :      775.76   799.56   800.05   800.84   804.98   807.05
eigval :      808.49   827.98   828.32   839.69   839.97   853.35
eigval :      858.06   870.00   871.23   872.23   875.09   888.80
eigval :      890.31   900.35   900.40   907.36   908.90   917.16
eigval :      917.40   922.53   923.69   924.49   956.07   963.43
eigval :     1016.11  1016.32  1024.25  1038.84  1061.28  1061.71
eigval :     1094.32  1096.08  1110.29  1110.43  1128.19  1133.28
eigval :     1137.78  1138.84  1147.79  1150.19  1155.44  1157.34
eigval :     1170.45  1171.40  1173.29  1184.85  1185.89  1200.28
eigval :     1200.97  1213.27  1214.10  1220.48  1229.46  1241.54
eigval :     1243.09  1252.34  1265.09  1265.94  1279.13  1279.87
eigval :     1290.47  1291.45  1308.03  1315.53  1335.91  1337.24
eigval :     1347.35  1358.77  1360.14  1368.16  1369.76  1384.73
eigval :     1394.88  1395.53  1398.30  1410.39  1413.27  1424.30
eigval :     1430.71  1431.53  1446.71  1459.71  1459.75  1472.23
eigval :     1472.78  1478.07  1481.31  1485.28  1489.34  1500.47
eigval :     1501.42  1509.30  1509.64  1515.76  1517.64  1560.37
eigval :     1571.80  1581.96  1582.42  1582.85  1611.33  1611.48
eigval :     2940.75  2940.78  2951.87  2952.17  3024.29  3024.39
eigval :     3067.98  3068.40  3073.43  3075.11  3075.67  3076.71
eigval :     3078.72  3082.28  3082.88  3085.16  3088.06  3091.91
eigval :     3092.48  3093.58  3099.87  3100.09  3100.52  3101.28
eigval :     3106.75  3107.14  3130.81  3131.18  3154.67  3155.37

   temp. (K)  partition function   enthalpy   heat capacity  entropy
                                   cal/mol     cal/K/mol   cal/K/mol   J/K/mol
 298.15  VIB  0.331E+18            21999.253    135.795    138.020
         ROT  0.112E+09              888.752      2.981     39.808
         INT  0.370E+26            22888.006    138.776    177.828
         TR   0.133E+29             1481.254      4.968     44.910
         TOT                       24369.2597   143.7439   222.7382   931.9367

       T/K    H(0)-H(T)+PV         H(T)/Eh          T*S/Eh         G(T)/Eh
   ------------------------------------------------------------------------
    298.15    0.388349E-01    0.607309E+00    0.105830E+00    0.501479E+00
   ------------------------------------------------------------------------

         :::::::::::::::::::::::::::::::::::::::::::::::::::::
         ::                  THERMODYNAMIC                  ::
         :::::::::::::::::::::::::::::::::::::::::::::::::::::
         :: total free energy        -115.998782676692 Eh   ::
         ::.................................................::
         :: total energy             -116.500261591891 Eh   ::
         :: zero point energy           0.568474147781 Eh   ::
         :: G(RRHO) w/o ZPVE           -0.066995232582 Eh   ::
         :: G(RRHO) contrib.            0.501478915199 Eh   ::
         :::::::::::::::::::::::::::::::::::::::::::::::::::::

           -------------------------------------------------
          | TOTAL ENERGY             -116.500261591891 Eh   |
          | TOTAL ENTHALPY           -115.892952556895 Eh   |
          | TOTAL FREE ENERGY        -115.998782676692 Eh   |
          | GRADIENT NORM               0.000039708546 Eh/α |
          | HOMO-LUMO GAP               0.927054322590 eV   |
           -------------------------------------------------

 * finished run on 2025/09/12 at 04:20:10.077
