   * xtb version 6.7.1 (edcfbbe) compiled by 'albert@albert-system' on 2024-07-22

   ID    Z sym.   atoms
    1    6 C      1, 3-11, 13, 15-23, 25-33, 35, 37-44
    2    8 O      2, 24
    3    7 N      12, 14, 34, 36
    4    1 H      45-74

          program call               : xtb data2507/toluene/1MOBI/1MOBI_toluene_S0_crest.xyz --gfn 2 --gbsa toluene --ohess vtight --parallel 40 --molden --ceasefiles --namespace data2507/toluene/1MOBI/1MOBI_toluene_S0_finalOpt
      * Solvation model:               GBSA
        Solvent                        toluene
        Solvent mass                       9.2140E+01 g/mol
          :  Hamiltonian                  GFN2-xTB          :
 * total energy  :  -116.5628208 Eh     change       -0.6886154E-09 Eh
 * total energy  :  -116.5628693 Eh     change       -0.4843806E-04 Eh
 * total energy  :  -116.5628921 Eh     change       -0.2288834E-04 Eh
 * total energy  :  -116.5628996 Eh     change       -0.7446734E-05 Eh
 * total energy  :  -116.5629094 Eh     change       -0.9773019E-05 Eh
 * total energy  :  -116.5629158 Eh     change       -0.6435839E-05 Eh
 * total energy  :  -116.5629197 Eh     change       -0.3861143E-05 Eh
 * total energy  :  -116.5629220 Eh     change       -0.2335617E-05 Eh
 * total energy  :  -116.5629236 Eh     change       -0.1654328E-05 Eh
 * total energy  :  -116.5629248 Eh     change       -0.1185761E-05 Eh
 * total energy  :  -116.5629286 Eh     change       -0.8435399E-06 Eh
 * total energy  :  -116.5629294 Eh     change       -0.7635913E-06 Eh
 * total energy  :  -116.5629301 Eh     change       -0.7194527E-06 Eh
 * total energy  :  -116.5629308 Eh     change       -0.6599403E-06 Eh
 * total energy  :  -116.5629314 Eh     change       -0.6214611E-06 Eh
 * total energy  :  -116.5629320 Eh     change       -0.5647648E-06 Eh
 * total energy  :  -116.5629324 Eh     change       -0.4226199E-06 Eh
 * total energy  :  -116.5629326 Eh     change       -0.2503695E-06 Eh
 * total energy  :  -116.5629327 Eh     change       -0.6512408E-08 Eh
   *** GEOMETRY OPTIMIZATION CONVERGED AFTER 22 ITERATIONS ***

 final structure:
================
74
 xtb: 6.7.1 (edcfbbe)
C            0.42207001945476       -3.40409540113967        0.37946892868060
O            1.21200469017360       -2.23708607185567        0.33273593821395
C            0.59331455582295       -1.02314880945803        0.21815393358677
C           -0.77716954736530       -0.86144937122583        0.13954506321057
C           -1.37305377787958        0.39709668277866        0.02895972027604
C           -2.80237016849375        0.58625714589010       -0.07180711950910
C           -3.74195179071872       -0.37369993579637       -0.11906050218367
C           -5.17085725379243       -0.16594132102549       -0.23256043067548
C           -5.76387387387873        1.09746925453351       -0.33522233188956
C           -7.13108384732517        1.23678024547166       -0.44158872085904
C           -7.95368246689836        0.11279564614489       -0.45099360386734
N           -9.34322799668169        0.26166953623196       -0.57682343628209
C           -9.98977401033656        1.09264667349595       -1.44850520781647
N          -11.28228756478612        1.02011276808013       -1.39758265804041
C          -11.55373649853989        0.09039410729985       -0.42176156562836
C          -12.77177157236749       -0.36889815343945        0.06682284005011
C          -12.74372758232149       -1.30156118065713        1.08231055298324
C          -11.53953321417993       -1.76590628384981        1.61618683217745
C          -10.31906157818339       -1.32578757858578        1.14430427449002
C          -10.33805357566906       -0.40455935488978        0.10800659108229
C           -7.38306329097153       -1.15319100506387       -0.35819875591538
C           -6.01478282082207       -1.28295806549744       -0.24872049904268
C           -0.52994854106965        1.53199417780313        0.00584526062786
O           -1.14676254517531        2.74717494868263       -0.10553302095125
C           -0.35553093684871        3.91361857574462       -0.14361721164889
C            0.84085343711877        1.37010030927033        0.08388576059492
C            1.43604058227649        0.11124953085569        0.18879189084320
C            2.86805197465344       -0.07770656919841        0.24527972826078
C            3.79822757329377        0.87709662656781        0.41509015923070
C            5.23200873270955        0.67295659413105        0.45083915376654
C            5.84283608950851       -0.55524580047765        0.17517675207210
C            7.21382423812674       -0.69459253915629        0.20961335200178
C            8.02238752453019        0.39739512637419        0.51481929328740
N            9.41854463350866        0.26155950110199        0.55026047851773
C           10.25565162447943        0.75667958075038        1.51062304032793
N           11.50562493651507        0.46643080847494        1.33189234492675
C           11.54395538322050       -0.26466476672355        0.16806214405640
C           12.62445652012114       -0.81846742352488       -0.50974639042068
C           12.36637762605683       -1.49170830124757       -1.68533003158027
C           11.07035189283794       -1.60689352853126       -2.19305336832764
C            9.98299417569448       -1.06736641715958       -1.53547606454444
C           10.23093762511796       -0.40853716302923       -0.34070503811391
C            7.43383466941211        1.62617438936140        0.80016237443373
C            6.06173875978957        1.75589828610567        0.76546964407647
H           -0.16118147560845       -3.53069463198399       -0.53774096501257
H            1.12871907258414       -4.22743866138774        0.47405836476375
H           -0.24664559679007       -3.39979689489760        1.24563685247812
H           -1.41899654496196       -1.72501426624143        0.16325534224217
H           -3.09791078673379        1.62367919129577       -0.11857553230867
H           -3.45023174595475       -1.41425943320233       -0.07433717298260
H           -5.14995610972498        1.98391420309824       -0.32844221033115
H           -7.57376888616936        2.22000977939509       -0.50845202846646
H           -9.45254327368802        1.72577250673429       -2.12899013115348
H          -13.69857250484341        0.00556289334793       -0.33857193436251
H          -13.67283008278368       -1.67864121901253        1.48391796885831
H          -11.56529846961590       -2.48516899784336        2.42147693243450
H           -9.39273200616448       -1.67651328158425        1.57336886681835
H           -8.01386076581474       -2.02870828134668       -0.39195284833662
H           -5.58480211074055       -2.27192563602572       -0.18044478833954
H            0.22638048451653        4.03304206485964        0.77531536973921
H           -1.06122996870045        4.73836156550861       -0.23302844401334
H            0.31453844994097        3.91486821044620       -1.00877340356939
H            1.48511751693825        2.23159917451491        0.04683322382167
H            3.17245798714764       -1.10978213135181        0.15396236301346
H            3.49264624989315        1.90503290025136        0.55702308120268
H            5.23902300368987       -1.41465399177075       -0.06914660157799
H            7.66749888852498       -1.65459713404232        0.01397509730035
H            9.88559972155050        1.31531894745312        2.34940035199181
H           13.62514559520396       -0.71195354412767       -0.12149943769965
H           13.18392918960580       -1.93359833204862       -2.23585637599338
H           10.91647992956177       -2.12912066380175       -3.12581951969349
H            8.98651038939788       -1.14606272459586       -1.94282546958831
H            8.05781720533946        2.47665339845953        1.03307948020064
H            5.61830166018192        2.71678189138084        0.98350102768379

          :  Hamiltonian                  GFN2-xTB          :
         :: gradient norm              0.000053355268 Eh/a0 ::
         :: HOMO-LUMO gap              1.935484217156 eV    ::
         :: SCC energy              -118.538132268839 Eh    ::
         :: -> dispersion             -0.087846630966 Eh    ::
         :: -> Gsolv                  -0.054412520794 Eh    ::
         :: repulsion energy           1.975199618576 Eh    ::

    * Orbital Energies and Occupations

         #    Occupation            Energy/Eh            Energy/eV
      -------------------------------------------------------------
         1        2.0000           -0.7207210             -19.6118
       ...           ...                  ...                  ...
        95        2.0000           -0.4232980             -11.5185
        96        2.0000           -0.4217345             -11.4760
        97        2.0000           -0.4180980             -11.3770
        98        2.0000           -0.4180727             -11.3763
        99        2.0000           -0.3984587             -10.8426
       100        2.0000           -0.3938380             -10.7169
       101        2.0000           -0.3928963             -10.6913
       102        2.0000           -0.3913068             -10.6480
       103        2.0000           -0.3853563             -10.4861
       104        2.0000           -0.3853112             -10.4849
       105        2.0000           -0.3816514             -10.3853
       106        2.0000           -0.3799867             -10.3400
       107        2.0000           -0.3581162              -9.7448 (HOMO)
       108                         -0.2869885              -7.8094 (LUMO)
       109                         -0.2608766              -7.0988
       110                         -0.2457148              -6.6862
       111                         -0.2420387              -6.5862
       112                         -0.2347121              -6.3868
       113                         -0.2346730              -6.3858
       114                         -0.2239621              -6.0943
       115                         -0.2124000              -5.7797
       116                         -0.2110354              -5.7426
       117                         -0.2032238              -5.5300
       118                         -0.1908716              -5.1939
       ...                                ...                  ...
       206                          0.7031668              19.1341
      -------------------------------------------------------------
                  HL-Gap            0.0711277 Eh            1.9355 eV

     #   Z          covCN         q      C6AA      α(0)
     1   6 C        3.641     0.034    20.346     6.486
     2   8 O        1.704    -0.284    18.711     5.840
     3   6 C        2.864     0.127    25.208     8.230
     4   6 C        2.919    -0.077    29.924     8.970
     5   6 C        2.968    -0.010    28.257     8.719
     6   6 C        2.901    -0.033    28.828     8.804
     7   6 C        2.901    -0.042    29.051     8.838
     8   6 C        2.969     0.016    27.658     8.626
     9   6 C        2.923    -0.032    28.807     8.802
    10   6 C        2.919    -0.043    29.080     8.843
    11   6 C        2.913     0.056    26.739     8.479
    12   7 N        2.824    -0.039    21.986     6.964
    13   6 C        3.163     0.106    25.346     8.229
    14   7 N        1.880    -0.299    28.611     7.929
    15   6 C        3.217     0.066    25.855     8.271
    16   6 C        2.910    -0.045    29.115     8.848
    17   6 C        2.922    -0.040    29.006     8.832
    18   6 C        2.926    -0.038    28.953     8.824
    19   6 C        2.908    -0.051    29.272     8.872
    20   6 C        3.101     0.034    27.107     8.532
    21   6 C        2.918    -0.042    29.050     8.838
    22   6 C        2.929    -0.034    28.850     8.809
    23   6 C        2.864     0.127    25.206     8.230
    24   8 O        1.704    -0.284    18.709     5.840
    25   6 C        3.641     0.034    20.346     6.486
    26   6 C        2.919    -0.077    29.924     8.971
    27   6 C        2.969    -0.010    28.255     8.719
    28   6 C        2.901    -0.033    28.820     8.802
    29   6 C        2.901    -0.042    29.046     8.837
    30   6 C        2.969     0.016    27.656     8.626
    31   6 C        2.923    -0.033    28.820     8.804
    32   6 C        2.919    -0.042    29.033     8.836
    33   6 C        2.912     0.056    26.738     8.479
    34   7 N        2.824    -0.039    21.985     6.964
    35   6 C        3.162     0.106    25.349     8.230
    36   7 N        1.880    -0.299    28.612     7.929
    37   6 C        3.216     0.066    25.859     8.272
    38   6 C        2.910    -0.045    29.116     8.848
    39   6 C        2.922    -0.040    29.006     8.832
    40   6 C        2.926    -0.038    28.953     8.824
    41   6 C        2.908    -0.051    29.273     8.872
    42   6 C        3.101     0.034    27.107     8.532
    43   6 C        2.918    -0.044    29.096     8.845
    44   6 C        2.929    -0.034    28.836     8.806
    45   1 H        0.924     0.047     2.358     2.401
    46   1 H        0.925     0.067     2.121     2.278
    47   1 H        0.924     0.047     2.358     2.401
    48   1 H        0.926     0.053     2.288     2.365
    49   1 H        0.926     0.054     2.274     2.358
    50   1 H        0.925     0.042     2.427     2.436
    51   1 H        0.926     0.048     2.342     2.393
    52   1 H        0.926     0.039     2.464     2.455
    53   1 H        0.926     0.037     2.494     2.470
    54   1 H        0.926     0.040     2.445     2.445
    55   1 H        0.926     0.036     2.504     2.474
    56   1 H        0.926     0.037     2.486     2.466
    57   1 H        0.926     0.036     2.506     2.476
    58   1 H        0.926     0.044     2.400     2.423
    59   1 H        0.926     0.045     2.383     2.414
    60   1 H        0.924     0.047     2.359     2.402
    61   1 H        0.925     0.067     2.121     2.278
    62   1 H        0.924     0.047     2.356     2.400
    63   1 H        0.926     0.053     2.287     2.365
    64   1 H        0.926     0.054     2.273     2.357
    65   1 H        0.925     0.042     2.425     2.435
    66   1 H        0.926     0.048     2.340     2.392
    67   1 H        0.926     0.044     2.396     2.420
    68   1 H        0.926     0.037     2.495     2.470
    69   1 H        0.926     0.040     2.445     2.445
    70   1 H        0.926     0.036     2.504     2.474
    71   1 H        0.926     0.037     2.486     2.466
    72   1 H        0.926     0.036     2.504     2.474
    73   1 H        0.926     0.039     2.466     2.456
    74   1 H        0.926     0.045     2.384     2.415

molecular dipole:
                 x           y           z       tot (Debye)
 q only:       -0.038      -0.326       0.044
   full:       -0.059      -0.451       0.054       1.165

 projected vibrational frequencies (cm⁻¹)
eigval :       -0.00    -0.00    -0.00    -0.00     0.00     0.00
eigval :        4.43     9.40    12.61    16.77    19.64    28.88
eigval :       35.83    55.97    59.38    60.46    67.87    71.12
eigval :       75.30    77.05    92.06    98.24   106.43   133.63
eigval :      136.71   157.56   165.12   169.39   185.05   208.06
eigval :      215.00   215.16   224.97   227.30   237.26   239.54
eigval :      262.44   284.96   288.37   316.56   330.77   354.06
eigval :      369.99   372.70   376.73   378.93   383.93   398.55
eigval :      399.24   401.43   433.44   436.53   445.67   468.94
eigval :      479.32   480.54   485.37   510.75   515.37   543.93
eigval :      548.28   550.42   552.79   562.97   594.38   596.21
eigval :      599.69   601.20   618.55   620.70   623.15   629.61
eigval :      667.11   669.63   686.43   688.91   691.05   694.39
eigval :      712.61   713.54   774.93   777.24   778.75   780.24
eigval :      782.68   803.28   803.73   821.45   821.61   827.08
eigval :      827.51   836.63   837.57   853.34   858.01   861.04
eigval :      861.95   872.54   872.69   874.61   876.61   900.96
eigval :      902.62   911.81   912.86   919.24   921.18   922.88
eigval :      925.37   927.61   973.54   973.90   984.29   985.35
eigval :     1025.53  1026.69  1031.71  1053.44  1059.50  1061.04
eigval :     1093.56  1097.86  1116.88  1117.39  1129.89  1135.03
eigval :     1138.43  1148.70  1150.33  1150.83  1157.95  1167.87
eigval :     1169.21  1171.35  1179.14  1187.75  1190.97  1198.67
eigval :     1201.69  1215.52  1216.20  1230.38  1236.94  1254.59
eigval :     1264.23  1265.57  1273.32  1280.19  1281.66  1289.06
eigval :     1292.66  1293.57  1307.95  1316.51  1326.24  1337.26
eigval :     1340.49  1350.48  1360.31  1360.49  1381.55  1382.89
eigval :     1397.33  1400.62  1409.37  1411.76  1418.81  1421.26
eigval :     1424.10  1456.86  1465.12  1465.36  1479.52  1481.37
eigval :     1482.51  1484.59  1493.23  1495.09  1507.77  1508.39
eigval :     1531.06  1552.30  1557.18  1561.71  1580.93  1583.81
eigval :     1583.88  1590.65  1614.91  1615.09  1629.22  1632.30
eigval :     2935.38  2935.47  2947.02  2947.33  3022.51  3022.56
eigval :     3059.87  3061.39  3074.63  3075.20  3076.10  3076.11
eigval :     3080.31  3080.97  3081.85  3086.72  3089.31  3090.59
eigval :     3092.00  3094.09  3094.99  3097.24  3101.30  3102.72
eigval :     3105.36  3105.80  3128.64  3130.56  3152.25  3153.41

   temp. (K)  partition function   enthalpy   heat capacity  entropy
                                   cal/mol     cal/K/mol   cal/K/mol   J/K/mol
 298.15  VIB  0.507E+19            22019.800    134.136    140.869
         ROT  0.111E+09              888.752      2.981     39.800
         INT  0.564E+27            22908.552    137.117    180.668
         TR   0.133E+29             1481.254      4.968     44.910
         TOT                       24389.8061   142.0851   225.5783   943.8197

       T/K    H(0)-H(T)+PV         H(T)/Eh          T*S/Eh         G(T)/Eh
   ------------------------------------------------------------------------
    298.15    0.388676E-01    0.609933E+00    0.107180E+00    0.502753E+00
   ------------------------------------------------------------------------

         :::::::::::::::::::::::::::::::::::::::::::::::::::::
         ::                  THERMODYNAMIC                  ::
         :::::::::::::::::::::::::::::::::::::::::::::::::::::
         :: total free energy        -116.060179424999 Eh   ::
         ::.................................................::
         :: total energy             -116.562932645685 Eh   ::
         :: zero point energy           0.571065132524 Eh   ::
         :: G(RRHO) w/o ZPVE           -0.068311911838 Eh   ::
         :: G(RRHO) contrib.            0.502753220686 Eh   ::
         :::::::::::::::::::::::::::::::::::::::::::::::::::::

           -------------------------------------------------
          | TOTAL ENERGY             -116.562932645685 Eh   |
          | TOTAL ENTHALPY           -115.952999883107 Eh   |
          | TOTAL FREE ENERGY        -116.060179424999 Eh   |
          | GRADIENT NORM               0.000053358784 Eh/α |
          | HOMO-LUMO GAP               1.935484265841 eV   |
           -------------------------------------------------

 * finished run on 2025/09/12 at 04:20:03.366
