   * xtb version 6.7.1 (edcfbbe) compiled by 'albert@albert-system' on 2024-07-22

   ID    Z sym.   atoms
    1    6 C      1, 3-11, 13, 15-23, 25-33, 35, 37-44
    2    8 O      2, 24
    3    7 N      12, 14, 34, 36
    4    1 H      45-74

          program call               : xtb data2507/toluene/1MOBI/1MOBI_toluene_T1_crest.xyz --gfn 2 --uhf 2 --gbsa toluene --ohess vtight --parallel 40 --molden --ceasefiles --namespace data2507/toluene/1MOBI/1MOBI_toluene_T1_finalOpt
      * Solvation model:               GBSA
        Solvent                        toluene
        Solvent mass                       9.2140E+01 g/mol
          :  Hamiltonian                  GFN2-xTB          :
 * total energy  :  -116.4999932 Eh     change       -0.2730204E-08 Eh
 * total energy  :  -116.5000380 Eh     change       -0.4488318E-04 Eh
 * total energy  :  -116.5000575 Eh     change       -0.1942567E-04 Eh
 * total energy  :  -116.5000636 Eh     change       -0.6119822E-05 Eh
 * total energy  :  -116.5000696 Eh     change       -0.6053654E-05 Eh
 * total energy  :  -116.5000737 Eh     change       -0.4056238E-05 Eh
 * total energy  :  -116.5000758 Eh     change       -0.2101355E-05 Eh
 * total energy  :  -116.5000772 Eh     change       -0.1385392E-05 Eh
 * total energy  :  -116.5000781 Eh     change       -0.9555727E-06 Eh
 * total energy  :  -116.5000789 Eh     change       -0.7271582E-06 Eh
 * total energy  :  -116.5001113 Eh     change       -0.1347021E-05 Eh
 * total energy  :  -116.5001123 Eh     change       -0.1014908E-05 Eh
 * total energy  :  -116.5001133 Eh     change       -0.9652306E-06 Eh
 * total energy  :  -116.5001143 Eh     change       -0.1015321E-05 Eh
 * total energy  :  -116.5001155 Eh     change       -0.1246620E-05 Eh
 * total energy  :  -116.5001165 Eh     change       -0.9914381E-06 Eh
 * total energy  :  -116.5001171 Eh     change       -0.6224286E-06 Eh
 * total energy  :  -116.5001175 Eh     change       -0.3996991E-06 Eh
 * total energy  :  -116.5001175 Eh     change       -0.4400050E-08 Eh
   *** GEOMETRY OPTIMIZATION CONVERGED AFTER 44 ITERATIONS ***

 final structure:
================
74
 xtb: 6.7.1 (edcfbbe)
C            0.47154187123907       -3.34368024224614        0.29632581816116
O            1.23278680121318       -2.15617977156621        0.27189664944055
C            0.59176346339068       -0.96089943873399        0.18916481675026
C           -0.76232563143177       -0.81693913734433        0.11666182079246
C           -1.39299529350886        0.45391871210440        0.03780960459278
C           -2.77620543745218        0.63657405809893       -0.04523916880715
C           -3.74385420083344       -0.35483425814039       -0.10628640851174
C           -5.14207706106097       -0.15050615482316       -0.18837357759988
C           -5.75694034149680        1.12273115530188       -0.16801173686877
C           -7.11933122161150        1.25925808001196       -0.25010007673670
C           -7.94367416991130        0.13390756467113       -0.35618774806767
N           -9.32955963046370        0.28911883576911       -0.45561526585501
C           -9.98012654060788        1.24483579701911       -1.18817976728559
N          -11.27242202652053        1.15849225103373       -1.15358185230809
C          -11.54162589373883        0.08551652896752       -0.33763516305792
C          -12.75988845592815       -0.44854664181017        0.06619434062270
C          -12.73336166174635       -1.53066079422032        0.92122197697810
C          -11.52964558126491       -2.06706666801543        1.38272714545694
C          -10.30857334990654       -1.55243908580284        0.99356163042052
C          -10.32453518804606       -0.48170410516529        0.11224925273773
C           -7.36039275595554       -1.13666860875203       -0.38785623199337
C           -5.99818633122743       -1.27144563353138       -0.30182091601024
C           -0.52301911858087        1.61353094932748        0.04597002015002
O           -1.16454147030379        2.80943710162751       -0.02260937357099
C           -0.40362175908951        3.99726171585416       -0.03917884725910
C            0.83128340363813        1.46926391466597        0.11159194015614
C            1.46254933586475        0.19816299836085        0.18134902890793
C            2.84711833454367        0.01581465933076        0.23988150892982
C            3.81633761845992        1.00742885456800        0.22179957981214
C            5.21664199392456        0.80771809300557        0.27129151899216
C            5.83156519265776       -0.46057311611103        0.38286951038972
C            7.19677913623067       -0.59350473694149        0.41502727528688
C            8.02302063872351        0.53167864540834        0.33287677521788
N            9.41482730628081        0.40248499732687        0.36842292660369
C           10.28128106871293        1.21013175580917        1.05380243573388
N           11.52694005221206        0.86851889565013        0.95067068259907
C           11.53245989912639       -0.23650872378001        0.13299789709205
C           12.59627351086347       -1.00016050727716       -0.33365757075251
C           12.30817164402959       -2.05370126547702       -1.17615763635413
C           10.99780303297605       -2.34214977852138       -1.56273701960479
C            9.92655252684453       -1.59743343742645       -1.11006782516957
C           10.20409410691329       -0.55106808272559       -0.24327324126254
C            7.43984191567235        1.79976269821809        0.23837750330014
C            6.07536387649298        1.93084956310045        0.20804916277798
H           -0.11167004668245       -3.46120944582946       -0.62166875852235
H            1.19643713760058       -4.15279636324576        0.37170810199595
H           -0.19576576135543       -3.36987916888538        1.16281392871880
H           -1.39785817604994       -1.68523220239792        0.12204002503506
H           -3.09991259219904        1.66583949608207       -0.07495548959143
H           -3.42928353661396       -1.38893727489560       -0.10516847824443
H           -5.14921049606719        2.00843416709089       -0.07569439931226
H           -7.56870257839992        2.24124366687846       -0.21559138834649
H           -9.44702515075563        1.97934096467187       -1.76113079720224
H          -13.68603560752424       -0.01710152987097       -0.27964220288020
H          -13.66280422244020       -1.96975927066361        1.25282634247774
H          -11.55526782779156       -2.90341824812422        2.06557497753457
H           -9.38499908839647       -1.96118820366685        1.37403523259395
H           -7.98795856528145       -2.00708217835030       -0.50571448217757
H           -5.56102319628996       -2.25899300853983       -0.33427716750436
H            0.18498074606778        4.10561752984355        0.87649054021593
H           -1.12902460685272        4.80697947391314       -0.10216551535243
H            0.25853293144846        4.03234356263328       -0.90931569492148
H            1.46600491122882        2.33810464555695        0.11324968298509
H            3.17121904892131       -1.01222327646591        0.29609944514855
H            3.50205627980758        2.03947399866306        0.15550336807697
H            5.22026342736931       -1.34564208992419        0.45693522245717
H            7.64361598659492       -1.56983622362242        0.52865633231822
H            9.93635628950212        2.03609006120725        1.64618527202293
H           13.60762735065626       -0.76048386785008       -0.04524225930711
H           13.11228880385833       -2.66654836852580       -1.55616823514230
H           10.81852342255569       -3.16617421176259       -2.23744566064932
H            8.91996712930567       -1.81697934790980       -1.43130470213157
H            8.07372984589018        2.67199701164712        0.17053615681313
H            5.63941496346919        2.91584088602554        0.12424801656243

          :  Hamiltonian                  GFN2-xTB          :
         :: gradient norm              0.000051955423 Eh/a0 ::
         :: HOMO-LUMO gap              0.924855220311 eV    ::
         :: SCC energy              -118.461226786975 Eh    ::
         :: -> dispersion             -0.087927078949 Eh    ::
         :: -> Gsolv                  -0.054202625969 Eh    ::
         :: repulsion energy           1.961109240328 Eh    ::

    * Orbital Energies and Occupations

         #    Occupation            Energy/Eh            Energy/eV
      -------------------------------------------------------------
         1        2.0000           -0.7262201             -19.7615
       ...           ...                  ...                  ...
        96        2.0000           -0.4188614             -11.3978
        97        2.0000           -0.4165189             -11.3341
        98        2.0000           -0.4164758             -11.3329
        99        2.0000           -0.3966726             -10.7940
       100        2.0000           -0.3939433             -10.7197
       101        2.0000           -0.3929201             -10.6919
       102        2.0000           -0.3911046             -10.6425
       103        2.0000           -0.3856409             -10.4938
       104        2.0000           -0.3855780             -10.4921
       105        2.0000           -0.3827149             -10.4142
       106        2.0000           -0.3768419             -10.2544
       107        1.0000           -0.3507902              -9.5455
       108        1.0000           -0.2960874              -8.0569 (HOMO)
       109                         -0.2620996              -7.1321 (LUMO)
       110                         -0.2463764              -6.7042
       111                         -0.2426188              -6.6020
       112                         -0.2304483              -6.2708
       113                         -0.2304332              -6.2704
       114                         -0.2235901              -6.0842
       115                         -0.2121256              -5.7722
       116                         -0.2083379              -5.6692
       117                         -0.2029827              -5.5234
       118                         -0.1916719              -5.2157
       119                         -0.1802215              -4.9041
       ...                                ...                  ...
       206                          0.7022667              19.1097
      -------------------------------------------------------------
                  HL-Gap            0.0339878 Eh            0.9249 eV

     #   Z          covCN         q      C6AA      α(0)
     1   6 C        3.642     0.031    20.406     6.495
     2   8 O        1.705    -0.267    18.422     5.795
     3   6 C        2.858     0.134    25.076     8.208
     4   6 C        2.909    -0.087    30.192     9.010
     5   6 C        2.963    -0.005    28.136     8.700
     6   6 C        2.902    -0.038    28.955     8.823
     7   6 C        2.904    -0.043    29.070     8.841
     8   6 C        2.965     0.013    27.716     8.635
     9   6 C        2.920    -0.034    28.859     8.809
    10   6 C        2.916    -0.044    29.094     8.845
    11   6 C        2.912     0.051    26.845     8.496
    12   7 N        2.822    -0.034    21.899     6.950
    13   6 C        3.161     0.105    25.379     8.235
    14   7 N        1.879    -0.298    28.574     7.924
    15   6 C        3.215     0.066    25.864     8.274
    16   6 C        2.910    -0.045    29.107     8.847
    17   6 C        2.922    -0.040    28.992     8.830
    18   6 C        2.925    -0.039    28.958     8.825
    19   6 C        2.908    -0.050    29.249     8.868
    20   6 C        3.098     0.034    27.124     8.535
    21   6 C        2.914    -0.043    29.063     8.840
    22   6 C        2.926    -0.037    28.914     8.818
    23   6 C        2.858     0.134    25.076     8.208
    24   8 O        1.705    -0.267    18.423     5.795
    25   6 C        3.642     0.031    20.405     6.495
    26   6 C        2.910    -0.087    30.192     9.010
    27   6 C        2.963    -0.005    28.135     8.700
    28   6 C        2.902    -0.038    28.954     8.823
    29   6 C        2.904    -0.043    29.070     8.841
    30   6 C        2.965     0.013    27.715     8.635
    31   6 C        2.920    -0.035    28.874     8.812
    32   6 C        2.915    -0.042    29.048     8.838
    33   6 C        2.912     0.051    26.846     8.496
    34   7 N        2.822    -0.034    21.902     6.951
    35   6 C        3.161     0.105    25.380     8.235
    36   7 N        1.879    -0.298    28.578     7.925
    37   6 C        3.215     0.066    25.865     8.274
    38   6 C        2.910    -0.045    29.108     8.847
    39   6 C        2.922    -0.040    28.992     8.830
    40   6 C        2.925    -0.038    28.957     8.825
    41   6 C        2.908    -0.050    29.250     8.868
    42   6 C        3.098     0.034    27.122     8.535
    43   6 C        2.915    -0.044    29.104     8.847
    44   6 C        2.926    -0.036    28.899     8.816
    45   1 H        0.924     0.053     2.287     2.365
    46   1 H        0.925     0.071     2.073     2.252
    47   1 H        0.924     0.053     2.285     2.364
    48   1 H        0.926     0.050     2.319     2.381
    49   1 H        0.926     0.051     2.307     2.375
    50   1 H        0.926     0.039     2.458     2.452
    51   1 H        0.926     0.045     2.378     2.412
    52   1 H        0.926     0.036     2.507     2.476
    53   1 H        0.926     0.037     2.486     2.465
    54   1 H        0.926     0.041     2.437     2.441
    55   1 H        0.926     0.037     2.495     2.470
    56   1 H        0.926     0.038     2.479     2.462
    57   1 H        0.926     0.037     2.489     2.467
    58   1 H        0.926     0.041     2.431     2.438
    59   1 H        0.926     0.041     2.430     2.438
    60   1 H        0.924     0.053     2.286     2.364
    61   1 H        0.925     0.071     2.074     2.252
    62   1 H        0.924     0.053     2.287     2.365
    63   1 H        0.926     0.050     2.320     2.382
    64   1 H        0.926     0.051     2.306     2.375
    65   1 H        0.926     0.039     2.461     2.453
    66   1 H        0.926     0.046     2.376     2.410
    67   1 H        0.926     0.041     2.431     2.438
    68   1 H        0.926     0.037     2.489     2.467
    69   1 H        0.926     0.041     2.438     2.441
    70   1 H        0.926     0.037     2.495     2.470
    71   1 H        0.926     0.038     2.479     2.462
    72   1 H        0.926     0.037     2.488     2.467
    73   1 H        0.926     0.036     2.509     2.477
    74   1 H        0.926     0.041     2.433     2.439

molecular dipole:
                 x           y           z       tot (Debye)
 q only:       -0.073      -0.484       0.080
   full:       -0.097      -0.661       0.092       1.713

 projected vibrational frequencies (cm⁻¹)
eigval :       -0.00    -0.00     0.00     0.00     0.00     0.00
eigval :        7.47    12.47    15.14    20.93    24.21    28.69
eigval :       37.30    57.91    60.52    63.33    72.20    75.65
eigval :       77.10    94.17    98.56   107.56   133.28   139.59
eigval :      158.42   165.47   179.73   185.97   195.75   208.01
eigval :      215.76   217.18   217.74   228.18   239.44   243.06
eigval :      253.97   262.18   286.87   306.34   319.32   348.50
eigval :      361.94   370.53   375.65   377.53   384.98   394.12
eigval :      397.80   400.23   424.08   436.21   449.43   460.52
eigval :      468.71   478.21   487.12   499.42   499.93   535.91
eigval :      547.39   548.50   550.10   557.06   591.67   595.61
eigval :      596.48   598.04   615.84   617.34   622.11   631.28
eigval :      659.46   668.95   673.77   676.46   685.60   688.69
eigval :      712.65   713.62   764.60   767.64   769.93   771.47
eigval :      776.84   799.82   800.45   801.22   805.89   808.20
eigval :      809.48   825.03   827.62   839.85   841.39   853.27
eigval :      858.00   869.28   871.26   871.81   874.96   890.67
eigval :      892.95   897.74   901.35   908.83   908.98   916.18
eigval :      918.16   922.62   923.48   926.08   956.18   963.40
eigval :     1016.12  1016.38  1024.25  1038.96  1060.98  1061.39
eigval :     1094.59  1096.00  1112.06  1112.22  1128.42  1133.70
eigval :     1138.12  1139.37  1147.64  1149.46  1155.87  1157.60
eigval :     1169.09  1170.68  1173.10  1185.62  1186.33  1200.43
eigval :     1201.21  1212.90  1213.72  1220.72  1229.82  1241.85
eigval :     1243.56  1252.43  1265.03  1265.90  1278.77  1279.55
eigval :     1290.53  1291.12  1308.46  1315.73  1336.15  1337.35
eigval :     1347.43  1358.82  1360.06  1368.08  1369.63  1384.51
eigval :     1395.21  1395.90  1398.59  1410.40  1413.14  1424.32
eigval :     1430.80  1431.59  1446.74  1459.75  1459.80  1474.40
eigval :     1474.78  1478.20  1481.31  1485.20  1489.54  1500.69
eigval :     1501.70  1509.39  1509.70  1515.41  1517.79  1560.23
eigval :     1571.74  1581.84  1582.37  1582.77  1611.25  1611.40
eigval :     2940.56  2940.70  2951.44  2951.84  3024.24  3024.45
eigval :     3067.85  3068.22  3073.59  3075.29  3075.71  3076.77
eigval :     3078.79  3082.73  3082.86  3085.44  3088.69  3092.35
eigval :     3092.80  3094.48  3099.53  3100.06  3100.55  3100.84
eigval :     3106.79  3107.20  3130.93  3131.46  3155.64  3155.90

   temp. (K)  partition function   enthalpy   heat capacity  entropy
                                   cal/mol     cal/K/mol   cal/K/mol   J/K/mol
 298.15  VIB  0.567E+18            22002.802    135.683    138.411
         ROT  0.112E+09              888.752      2.981     39.811
         INT  0.634E+26            22891.555    138.664    178.222
         TR   0.133E+29             1481.254      4.968     44.910
         TOT                       24372.8087   143.6321   223.1315   933.5820

       T/K    H(0)-H(T)+PV         H(T)/Eh          T*S/Eh         G(T)/Eh
   ------------------------------------------------------------------------
    298.15    0.388405E-01    0.607359E+00    0.106017E+00    0.501342E+00
   ------------------------------------------------------------------------

         :::::::::::::::::::::::::::::::::::::::::::::::::::::
         ::                  THERMODYNAMIC                  ::
         :::::::::::::::::::::::::::::::::::::::::::::::::::::
         :: total free energy        -115.998775148594 Eh   ::
         ::.................................................::
         :: total energy             -116.500117541339 Eh   ::
         :: zero point energy           0.568518805113 Eh   ::
         :: G(RRHO) w/o ZPVE           -0.067176412368 Eh   ::
         :: G(RRHO) contrib.            0.501342392745 Eh   ::
         :::::::::::::::::::::::::::::::::::::::::::::::::::::

           -------------------------------------------------
          | TOTAL ENERGY             -116.500117541339 Eh   |
          | TOTAL ENTHALPY           -115.892758193230 Eh   |
          | TOTAL FREE ENERGY        -115.998775148594 Eh   |
          | GRADIENT NORM               0.000051940046 Eh/α |
          | HOMO-LUMO GAP               0.924855118154 eV   |
           -------------------------------------------------

 * finished run on 2025/09/12 at 04:24:41.394
