   * xtb version 6.7.1 (edcfbbe) compiled by 'albert@albert-system' on 2024-07-22

   ID    Z sym.   atoms
    1    6 C      1, 3-11, 13, 15-23, 25-33, 35, 37-44
    2    8 O      2, 24
    3    7 N      12, 14, 34, 36
    4    1 H      45-74

          program call               : xtb data2507/toluene/1MOBI/1MOBI.xyz --gfn 2 --gbsa toluene --ohess vtight --parallel 40 --molden --ceasefiles --namespace data2507/toluene/1MOBI/1MOBI_toluene_S0_preOpt
      * Solvation model:               GBSA
        Solvent                        toluene
        Solvent mass                       9.2140E+01 g/mol
          :  Hamiltonian                  GFN2-xTB          :
 * total energy  :  -116.5365280 Eh     change       -0.1019231E-08 Eh
 * total energy  :  -116.5472857 Eh     change       -0.1075765E-01 Eh
 * total energy  :  -116.5501543 Eh     change       -0.2868638E-02 Eh
 * total energy  :  -116.5516658 Eh     change       -0.1511454E-02 Eh
 * total energy  :  -116.5536433 Eh     change       -0.1977571E-02 Eh
 * total energy  :  -116.5551472 Eh     change       -0.1503876E-02 Eh
 * total energy  :  -116.5564248 Eh     change       -0.1277604E-02 Eh
 * total energy  :  -116.5574655 Eh     change       -0.1040722E-02 Eh
 * total energy  :  -116.5582665 Eh     change       -0.8009675E-03 Eh
 * total energy  :  -116.5588850 Eh     change       -0.6184971E-03 Eh
 * total energy  :  -116.5611971 Eh     change       -0.5266034E-06 Eh
 * total energy  :  -116.5611976 Eh     change       -0.5047943E-06 Eh
 * total energy  :  -116.5611982 Eh     change       -0.5556878E-06 Eh
 * total energy  :  -116.5611988 Eh     change       -0.6362268E-06 Eh
 * total energy  :  -116.5611995 Eh     change       -0.6962150E-06 Eh
 * total energy  :  -116.5612002 Eh     change       -0.6852966E-06 Eh
 * total energy  :  -116.5612008 Eh     change       -0.5937974E-06 Eh
 * total energy  :  -116.5612013 Eh     change       -0.5246249E-06 Eh
 * total energy  :  -116.5612013 Eh     change       -0.4008697E-08 Eh
   *** GEOMETRY OPTIMIZATION CONVERGED AFTER 68 ITERATIONS ***

 final structure:
================
74
 xtb: 6.7.1 (edcfbbe)
C            1.06393914960527        4.01430572798307       -0.01700821780350
O            1.64996706189635        2.73191950865235       -0.01075272971888
C            0.83717866304804        1.63410241334059        0.04524426627433
C           -0.54175663086704        1.69359045751002        0.11209850691387
C           -1.34942467659167        0.55119297088215        0.15790058349948
C           -2.78143956255844        0.75755822131856        0.18664524938241
C           -3.74562967936039       -0.14244723234715       -0.06623720453176
C           -5.17004519903983        0.13016364259216       -0.07021238672111
C           -5.74065741571619        1.26209405216683        0.52074967947658
C           -7.10243366603935        1.47563602805204        0.48408953331662
C           -7.93947649296008        0.56350316983842       -0.15410128664307
N           -9.32128320720282        0.80070486900804       -0.20892595849058
C           -9.92044644488791        2.00093953773704       -0.47236395103036
N          -11.21467041523279        1.95703695920111       -0.50756091247111
C          -11.53868424192182        0.64759540593751       -0.24166996825700
C          -12.78261150833288        0.03447677800544       -0.14161203431402
C          -12.81112378407733       -1.31125606872376        0.15820068875716
C          -11.63739698765390       -2.03741938681844        0.37147788539783
C          -10.39206955031056       -1.44896236764201        0.27616428586507
C          -10.35284390104402       -0.10197100190750       -0.05169261869121
C           -7.38997833168698       -0.56874260373855       -0.74905050709288
C           -6.02890878667752       -0.78221366024074       -0.69327417732701
C           -0.70818451450018       -0.70746689462742        0.17023495180306
O           -1.49521535833970       -1.82066674072378        0.25277799349189
C           -0.88470925896128       -3.08531921358634        0.38984178323662
C            0.67377590568918       -0.76538806510842        0.11162326281088
C            1.47588227678932        0.37431787356362        0.04017310562925
C            2.91717264359328        0.31561995240838       -0.05956082155642
C            3.68959304022121       -0.77019478413442        0.11223457598494
C            5.13223677230399       -0.81776742506470       -0.01211318671145
C            5.89735986093273        0.24097932466100       -0.51299597237589
C            7.26817950230083        0.14262850706198       -0.62107561030143
C            7.92230509091394       -1.02021294176672       -0.22148971848605
N            9.31615823262675       -1.12952782562184       -0.33728430755260
C           10.00436401037004       -2.21475657640839       -0.80388459832959
N           11.28911371925723       -2.05474679630662       -0.84906407751703
C           11.51182121352622       -0.78420866436628       -0.37291417652042
C           12.70340866753384       -0.09342516977032       -0.18230898625299
C           12.62903303605623        1.17999176110197        0.34176472000177
C           11.40529262674724        1.75889209515257        0.68494674514092
C           10.21037029046541        1.09198611488313        0.50234787959269
C           10.27403168119512       -0.18004478554281       -0.04636971464763
C            7.17768944263218       -2.08803072227529        0.27193288740008
C            5.80620641381395       -1.98466821243540        0.36705492775021
H            0.49942096052797        4.20103304462332        0.90153908096947
H            1.89730359163698        4.71302756753010       -0.07558668885755
H            0.41245253769446        4.15310319168431       -0.88523340391934
H           -1.03960722589817        2.65050598204129        0.11338036352493
H           -3.06811603132796        1.78189610632814        0.39029862024103
H           -3.47204356950671       -1.15045750167743       -0.33541387362278
H           -5.11511856445390        1.97481212038574        1.03490191948392
H           -7.52911991780687        2.34557485498390        0.96191088712229
H           -9.34768502752116        2.88943520103979       -0.65935281077085
H          -13.68568204838170        0.60521381159302       -0.29062767615068
H          -13.76146324211429       -1.81791455237524        0.24100935421288
H          -11.70697593438679       -3.08593531218403        0.62096041269134
H           -9.49146868310487       -2.01437411779603        0.46109358704731
H           -8.03109555049927       -1.26675972909475       -1.26581437324467
H           -5.61239367917552       -1.66382876760779       -1.15852699020258
H           -0.30598961009047       -3.35140192989032       -0.50015173047340
H           -1.70653333858408       -3.79036770913850        0.50783460092048
H           -0.24310175777681       -3.12652705418090        1.27499995308810
H            1.16352764642093       -1.72367746569973        0.09924882676028
H            3.37583006618900        1.26853347114913       -0.27875407063296
H            3.23651670563208       -1.71321751579633        0.38723839660414
H            5.41336113427156        1.14810903124471       -0.83846344996520
H            7.83970976509528        0.95835824843052       -1.03762699255238
H            9.50217927710302       -3.10716871505753       -1.12611813624044
H           13.64664892085907       -0.55232827196446       -0.43368107502718
H           13.53665575105727        1.74331856333401        0.50160769257111
H           11.39471217747609        2.75283241235529        1.10742046045236
H            9.27081888575334        1.53992551079336        0.78797031786545
H            7.68012234793210       -2.99123979763656        0.58593424496089
H            5.24104972541197       -2.82027990929497        0.75402016475922

          :  Hamiltonian                  GFN2-xTB          :
         :: gradient norm              0.000056857707 Eh/a0 ::
         :: HOMO-LUMO gap              1.985853966888 eV    ::
         :: SCC energy              -118.535494178823 Eh    ::
         :: -> dispersion             -0.088049819568 Eh    ::
         :: -> Gsolv                  -0.054332029745 Eh    ::
         :: repulsion energy           1.974292855824 Eh    ::

    * Orbital Energies and Occupations

         #    Occupation            Energy/Eh            Energy/eV
      -------------------------------------------------------------
         1        2.0000           -0.7204639             -19.6048
       ...           ...                  ...                  ...
        95        2.0000           -0.4211652             -11.4605
        96        2.0000           -0.4191826             -11.4065
        97        2.0000           -0.4179112             -11.3719
        98        2.0000           -0.4171605             -11.3515
        99        2.0000           -0.3983234             -10.8389
       100        2.0000           -0.3937352             -10.7141
       101        2.0000           -0.3928150             -10.6890
       102        2.0000           -0.3911438             -10.6436
       103        2.0000           -0.3853439             -10.4857
       104        2.0000           -0.3851771             -10.4812
       105        2.0000           -0.3812534             -10.3744
       106        2.0000           -0.3795483             -10.3280
       107        2.0000           -0.3579868              -9.7413 (HOMO)
       108                         -0.2850080              -7.7555 (LUMO)
       109                         -0.2601552              -7.0792
       110                         -0.2456800              -6.6853
       111                         -0.2416456              -6.5755
       112                         -0.2345471              -6.3824
       113                         -0.2341252              -6.3709
       114                         -0.2240237              -6.0960
       115                         -0.2126795              -5.7873
       116                         -0.2107947              -5.7360
       117                         -0.2029153              -5.5216
       118                         -0.1907375              -5.1902
       ...                                ...                  ...
       206                          0.7041567              19.1611
      -------------------------------------------------------------
                  HL-Gap            0.0729788 Eh            1.9859 eV

     #   Z          covCN         q      C6AA      α(0)
     1   6 C        3.641     0.035    20.341     6.485
     2   8 O        1.704    -0.284    18.718     5.841
     3   6 C        2.863     0.127    25.217     8.231
     4   6 C        2.927    -0.078    29.942     8.974
     5   6 C        2.967    -0.010    28.261     8.720
     6   6 C        2.904    -0.034    28.837     8.805
     7   6 C        2.901    -0.043    29.060     8.839
     8   6 C        2.969     0.016    27.651     8.625
     9   6 C        2.923    -0.033    28.819     8.803
    10   6 C        2.919    -0.044    29.099     8.846
    11   6 C        2.912     0.056    26.745     8.480
    12   7 N        2.824    -0.038    21.982     6.963
    13   6 C        3.163     0.106    25.346     8.229
    14   7 N        1.879    -0.300    28.616     7.930
    15   6 C        3.217     0.066    25.852     8.270
    16   6 C        2.910    -0.045    29.116     8.848
    17   6 C        2.922    -0.040    29.006     8.832
    18   6 C        2.926    -0.038    28.955     8.824
    19   6 C        2.908    -0.051    29.273     8.872
    20   6 C        3.100     0.034    27.110     8.532
    21   6 C        2.918    -0.042    29.052     8.839
    22   6 C        2.929    -0.034    28.836     8.806
    23   6 C        2.858     0.128    25.185     8.226
    24   8 O        1.704    -0.280    18.650     5.831
    25   6 C        3.640     0.034    20.361     6.489
    26   6 C        2.920    -0.077    29.929     8.971
    27   6 C        2.969    -0.010    28.269     8.721
    28   6 C        2.901    -0.033    28.819     8.802
    29   6 C        2.901    -0.043    29.056     8.838
    30   6 C        2.969     0.016    27.660     8.627
    31   6 C        2.923    -0.033    28.822     8.804
    32   6 C        2.919    -0.042    29.039     8.837
    33   6 C        2.912     0.056    26.739     8.479
    34   7 N        2.824    -0.038    21.981     6.963
    35   6 C        3.162     0.106    25.349     8.230
    36   7 N        1.879    -0.299    28.610     7.929
    37   6 C        3.217     0.066    25.857     8.271
    38   6 C        2.910    -0.045    29.115     8.848
    39   6 C        2.922    -0.040    29.005     8.832
    40   6 C        2.926    -0.038    28.953     8.824
    41   6 C        2.908    -0.051    29.273     8.872
    42   6 C        3.100     0.034    27.109     8.532
    43   6 C        2.918    -0.044    29.103     8.846
    44   6 C        2.929    -0.034    28.839     8.807
    45   1 H        0.924     0.047     2.362     2.404
    46   1 H        0.925     0.067     2.124     2.279
    47   1 H        0.924     0.047     2.361     2.403
    48   1 H        0.926     0.049     2.336     2.390
    49   1 H        0.925     0.042     2.416     2.431
    50   1 H        0.926     0.058     2.218     2.329
    51   1 H        0.926     0.047     2.361     2.403
    52   1 H        0.926     0.039     2.468     2.457
    53   1 H        0.926     0.037     2.493     2.469
    54   1 H        0.926     0.040     2.445     2.445
    55   1 H        0.926     0.036     2.504     2.475
    56   1 H        0.926     0.037     2.486     2.466
    57   1 H        0.926     0.036     2.501     2.473
    58   1 H        0.926     0.044     2.399     2.422
    59   1 H        0.926     0.045     2.378     2.411
    60   1 H        0.924     0.048     2.350     2.398
    61   1 H        0.925     0.067     2.114     2.274
    62   1 H        0.924     0.047     2.353     2.399
    63   1 H        0.926     0.053     2.278     2.360
    64   1 H        0.926     0.053     2.283     2.363
    65   1 H        0.925     0.042     2.425     2.435
    66   1 H        0.926     0.048     2.345     2.395
    67   1 H        0.926     0.044     2.396     2.421
    68   1 H        0.926     0.037     2.492     2.469
    69   1 H        0.926     0.040     2.444     2.445
    70   1 H        0.926     0.036     2.503     2.474
    71   1 H        0.926     0.037     2.485     2.465
    72   1 H        0.926     0.036     2.501     2.473
    73   1 H        0.926     0.039     2.467     2.456
    74   1 H        0.926     0.045     2.385     2.415

molecular dipole:
                 x           y           z       tot (Debye)
 q only:       -0.033      -0.100       0.352
   full:       -0.037      -0.102       0.488       1.270

 projected vibrational frequencies (cm⁻¹)
eigval :       -0.00    -0.00    -0.00    -0.00     0.00     0.00
eigval :        6.95     9.66    12.02    15.31    23.74    27.83
eigval :       40.89    54.67    55.15    61.12    63.09    72.09
eigval :       73.77    91.84    97.66    99.23   103.39   134.59
eigval :      142.87   165.52   170.20   177.25   183.87   207.14
eigval :      217.38   217.63   221.94   231.26   235.53   248.42
eigval :      262.05   290.45   293.43   309.64   328.01   342.71
eigval :      363.89   380.11   382.30   386.66   388.15   399.22
eigval :      400.00   402.19   412.22   444.51   454.73   465.38
eigval :      473.48   482.16   483.27   509.87   515.98   540.76
eigval :      549.67   550.55   554.33   563.02   589.34   595.81
eigval :      596.50   611.78   616.93   619.82   624.49   631.31
eigval :      668.27   671.79   682.54   686.39   693.70   712.55
eigval :      713.53   719.87   774.37   774.52   775.83   777.83
eigval :      785.64   802.88   803.64   822.41   824.93   831.30
eigval :      833.08   839.78   845.04   854.82   858.77   861.86
eigval :      864.62   872.12   873.61   875.18   877.24   900.25
eigval :      901.48   903.03   914.29   917.44   921.18   923.18
eigval :      926.73   929.68   973.90   973.94   982.02   989.39
eigval :     1023.93  1027.00  1029.39  1051.19  1060.91  1061.15
eigval :     1096.75  1100.52  1114.39  1114.88  1128.16  1137.58
eigval :     1138.44  1150.63  1150.99  1151.23  1163.07  1169.83
eigval :     1171.01  1172.79  1185.90  1188.10  1194.68  1199.95
eigval :     1202.02  1215.70  1216.42  1229.65  1234.75  1251.31
eigval :     1263.35  1265.82  1267.59  1278.48  1281.26  1289.93
eigval :     1292.78  1295.91  1308.28  1319.82  1328.18  1332.13
eigval :     1339.26  1352.02  1360.07  1360.38  1380.83  1382.52
eigval :     1393.66  1398.12  1407.52  1409.84  1415.05  1420.44
eigval :     1421.40  1461.12  1465.36  1466.74  1478.05  1480.71
eigval :     1482.29  1484.38  1493.07  1494.97  1508.11  1508.65
eigval :     1525.50  1555.67  1557.46  1564.65  1582.44  1583.47
eigval :     1583.70  1590.71  1614.83  1615.05  1631.58  1634.88
eigval :     2934.77  2935.08  2947.20  2947.67  3021.04  3022.57
eigval :     3047.07  3060.20  3075.01  3076.10  3076.52  3078.11
eigval :     3081.05  3081.66  3082.09  3087.69  3088.91  3091.46
eigval :     3091.55  3092.91  3095.20  3099.86  3100.97  3101.51
eigval :     3102.03  3104.89  3113.04  3131.58  3153.31  3153.52

   temp. (K)  partition function   enthalpy   heat capacity  entropy
                                   cal/mol     cal/K/mol   cal/K/mol   J/K/mol
 298.15  VIB  0.232E+19            21950.032    134.056    139.726
         ROT  0.108E+09              888.752      2.981     39.747
         INT  0.252E+27            22838.784    137.037    179.473
         TR   0.133E+29             1481.254      4.968     44.910
         TOT                       24320.0381   142.0055   224.3834   938.8200

       T/K    H(0)-H(T)+PV         H(T)/Eh          T*S/Eh         G(T)/Eh
   ------------------------------------------------------------------------
    298.15    0.387564E-01    0.609998E+00    0.106612E+00    0.503387E+00
   ------------------------------------------------------------------------

         :::::::::::::::::::::::::::::::::::::::::::::::::::::
         ::                  THERMODYNAMIC                  ::
         :::::::::::::::::::::::::::::::::::::::::::::::::::::
         :: total free energy        -116.057814616570 Eh   ::
         ::.................................................::
         :: total energy             -116.561201323111 Eh   ::
         :: zero point energy           0.571242036559 Eh   ::
         :: G(RRHO) w/o ZPVE           -0.067855330018 Eh   ::
         :: G(RRHO) contrib.            0.503386706541 Eh   ::
         :::::::::::::::::::::::::::::::::::::::::::::::::::::

           -------------------------------------------------
          | TOTAL ENERGY             -116.561201323111 Eh   |
          | TOTAL ENTHALPY           -115.951202838933 Eh   |
          | TOTAL FREE ENERGY        -116.057814616570 Eh   |
          | GRADIENT NORM               0.000056858186 Eh/α |
          | HOMO-LUMO GAP               1.985853917479 eV   |
           -------------------------------------------------

 * finished run on 2025/09/12 at 04:14:08.797
