   * xtb version 6.7.1 (edcfbbe) compiled by 'albert@albert-system' on 2024-07-22

   ID    Z sym.   atoms
    1    8 O      1
    2    6 C      2-5, 7-9, 11-24
    3   35 Br     6
    4    7 N      10, 25
    5    1 H      26-38

          program call               : xtb data2507/toluene/HPIPXZ/HPIPXZ_toluene_S0_finalOpt.xtbopt.xyz --gfn 2 --uhf 2 --gbsa toluene --ohess vtight --parallel 40 --molden --ceasefiles --namespace data2507/toluene/HPIPXZ/HPIPXZ_toluene_T1_preOpt
      * Solvation model:               GBSA
        Solvent                        toluene
        Solvent mass                       9.2140E+01 g/mol
          :  Hamiltonian                  GFN2-xTB          :
 * total energy  :   -65.5831485 Eh     change       -0.1447091E-09 Eh
 * total energy  :   -65.5899054 Eh     change       -0.6756905E-02 Eh
 * total energy  :   -65.5919296 Eh     change       -0.2024241E-02 Eh
 * total energy  :   -65.5920016 Eh     change       -0.7192283E-04 Eh
 * total energy  :   -65.5920256 Eh     change       -0.2408431E-04 Eh
 * total energy  :   -65.5920284 Eh     change       -0.2787332E-05 Eh
 * total energy  :   -65.5920299 Eh     change       -0.1479986E-05 Eh
 * total energy  :   -65.5920306 Eh     change       -0.6986056E-06 Eh
 * total energy  :   -65.5920311 Eh     change       -0.5271866E-06 Eh
 * total energy  :   -65.5920315 Eh     change       -0.3292271E-06 Eh
 * total energy  :   -65.5920316 Eh     change       -0.1750838E-06 Eh
 * total energy  :   -65.5920317 Eh     change       -0.7018849E-07 Eh
   *** GEOMETRY OPTIMIZATION CONVERGED AFTER 12 ITERATIONS ***

 final structure:
================
38
 xtb: 6.7.1 (edcfbbe)
O           -1.27810211538941        2.83099159292652        0.01902231193081
C           -2.30777155023632        1.97656242952088        0.00333113028183
C           -3.59721856954362        2.48556090589855        0.00147430386180
C           -4.70371437928735        1.64877490868033       -0.01544101534169
C           -4.49612441727584        0.27088703010608       -0.03092292677861
Br          -6.01845736226621       -0.89027626509889       -0.05682759240791
C           -3.24220838654155       -0.28196185985019       -0.02878258314628
C           -2.09749360231702        0.55439701442155       -0.01110136008132
C           -0.79273867443313        0.03594631090969       -0.00799925837452
N            0.33240343170561        0.80757915732427        0.00230690526241
C            1.37107397005829       -0.01657012125625        0.00003780197577
C            0.92783914073330       -1.37587246520028       -0.01085516105473
C            1.81351565299282       -2.42053486548355       -0.01414460877253
C            3.19190989358848       -2.10790946691016       -0.00821036654394
C            3.68411044569955       -0.80985439544596        0.00041402157736
C            5.10662385932143       -0.50968038932836        0.00379308408558
C            6.09402509859361       -1.49489262868345       -0.00179962179685
C            7.44077435480701       -1.17486871369623        0.00050797549364
C            7.85183945438635        0.15677740589107        0.00857390714706
C            6.91083341839269        1.15394374945894        0.01459390798909
C            5.52797113269892        0.85423272697929        0.01229587023062
C            4.58010829413048        1.88945648040120        0.01801023840234
C            3.21951565720490        1.60700729074481        0.01453359226187
C            2.77088380735345        0.29549972198372        0.00564836386395
N           -0.44023940181238       -1.30408734099340       -0.01621723941487
H           -0.43678107382098        2.29712637887728        0.01653099249380
H           -3.72311049108567        3.55644790414258        0.01303184526005
H           -5.70147507840334        2.05537690658306       -0.01718043630195
H           -3.12888670369658       -1.35407960705923       -0.04152784719583
H            1.48817093851416       -3.44853387758949       -0.02136057666218
H            3.87343876501233       -2.94224904906626       -0.01130578928731
H            5.82108258597946       -2.53795885784531       -0.00815645938174
H            8.17659111580083       -1.96529752920816       -0.00410805556403
H            8.90474361228932        0.39687713260363        0.01013802215543
H            7.20925818261115        2.19210995821482        0.02088687267527
H            4.91867740871659        2.91435756573255        0.02458835341824
H            2.49297726400313        2.40536094844091        0.01829223379770
H           -1.07345317941778       -2.08352775839830       -0.02253427861710

          :  Hamiltonian                  GFN2-xTB          :
         :: gradient norm              0.000055608930 Eh/a0 ::
         :: HOMO-LUMO gap              0.727868257631 eV    ::
         :: SCC energy               -66.647692934661 Eh    ::
         :: -> dispersion             -0.048925149518 Eh    ::
         :: -> Gsolv                  -0.028988991868 Eh    ::
         :: repulsion energy           1.055661174448 Eh    ::

    * Orbital Energies and Occupations

         #    Occupation            Energy/Eh            Energy/eV
      -------------------------------------------------------------
         1        2.0000           -0.8417597             -22.9054
       ...           ...                  ...                  ...
        49        2.0000           -0.4448964             -12.1062
        50        2.0000           -0.4426947             -12.0463
        51        2.0000           -0.4262276             -11.5982
        52        2.0000           -0.4252400             -11.5714
        53        2.0000           -0.4224827             -11.4963
        54        2.0000           -0.4201361             -11.4325
        55        2.0000           -0.4151543             -11.2969
        56        2.0000           -0.4127806             -11.2323
        57        2.0000           -0.4059269             -11.0458
        58        2.0000           -0.3973907             -10.8136
        59        1.9994           -0.3867461             -10.5239
        60        1.0006           -0.3727009             -10.1417
        61        1.0000           -0.2924449              -7.9578 (HOMO)
        62        0.0000           -0.2656963              -7.2300 (LUMO)
        63                         -0.2506737              -6.8212
        64                         -0.2356771              -6.4131
        65                         -0.2224840              -6.0541
        66                         -0.2090000              -5.6872
        67                         -0.1936446              -5.2693
        68                         -0.1852397              -5.0406
        69                         -0.1681404              -4.5753
        70                         -0.1102273              -2.9994
        71                         -0.1006049              -2.7376
        72                         -0.0524230              -1.4265
       ...                                ...                  ...
       118                          0.7197080              19.5843
      -------------------------------------------------------------
                  HL-Gap            0.0267486 Eh            0.7279 eV

     #   Z          covCN         q      C6AA      α(0)
     1   8 O        1.656    -0.391    20.682     6.139
     2   6 C        2.843     0.149    24.751     8.153
     3   6 C        2.916    -0.061    29.505     8.907
     4   6 C        2.982    -0.046    29.125     8.853
     5   6 C        2.910     0.075    26.327     8.414
     6  35 Br       1.068    -0.190   190.311    22.243
     7   6 C        2.994    -0.059    29.453     8.902
     8   6 C        2.967    -0.047    29.158     8.857
     9   6 C        3.114     0.122    25.186     8.221
    10   7 N        1.894    -0.312    28.950     7.977
    11   6 C        3.143     0.085    25.878     8.324
    12   6 C        3.048     0.051    26.814     8.493
    13   6 C        2.902    -0.065    29.607     8.922
    14   6 C        2.922    -0.034    28.848     8.808
    15   6 C        2.970    -0.003    28.105     8.696
    16   6 C        2.976     0.013    27.724     8.637
    17   6 C        2.917    -0.035    28.877     8.812
    18   6 C        2.917    -0.025    28.629     8.774
    19   6 C        2.912    -0.028    28.707     8.786
    20   6 C        2.922    -0.033    28.828     8.805
    21   6 C        2.981     0.019    27.587     8.616
    22   6 C        2.917    -0.034    28.844     8.807
    23   6 C        2.912    -0.024    28.594     8.768
    24   6 C        2.976    -0.008    28.208     8.712
    25   7 N        2.765    -0.138    23.989     7.274
    26   1 H        0.808     0.338     0.616     1.232
    27   1 H        0.926     0.061     2.189     2.313
    28   1 H        0.926     0.056     2.241     2.341
    29   1 H        0.926     0.043     2.405     2.425
    30   1 H        0.926     0.040     2.455     2.450
    31   1 H        0.926     0.050     2.317     2.380
    32   1 H        0.926     0.041     2.434     2.439
    33   1 H        0.926     0.041     2.437     2.441
    34   1 H        0.926     0.040     2.448     2.446
    35   1 H        0.926     0.042     2.419     2.432
    36   1 H        0.926     0.047     2.359     2.402
    37   1 H        0.926     0.050     2.322     2.383
    38   1 H        0.860     0.170     1.273     1.767

molecular dipole:
                 x           y           z       tot (Debye)
 q only:        2.569      -0.433       0.010
   full:        2.830      -0.754       0.011       7.445

 projected vibrational frequencies (cm⁻¹)
eigval :       -0.00    -0.00    -0.00    -0.00     0.00     0.00
eigval :       18.81    20.97    52.86    63.34    79.75   104.42
eigval :      116.03   149.81   164.84   199.00   199.87   251.54
eigval :      257.00   264.42   308.41   320.96   329.38   362.79
eigval :      374.33   387.75   410.28   416.60   429.91   454.17
eigval :      462.18   481.78   490.11   499.41   515.16   546.15
eigval :      583.84   585.76   592.79   623.46   642.60   659.23
eigval :      680.89   693.67   721.15   734.56   745.65   759.39
eigval :      771.86   775.80   780.20   797.07   804.42   809.63
eigval :      830.53   853.33   857.77   874.89   877.89   882.07
eigval :      899.11   919.95   921.00  1019.50  1035.95  1075.48
eigval :     1083.01  1089.91  1121.47  1133.49  1147.84  1165.14
eigval :     1178.60  1186.63  1209.67  1214.04  1230.76  1242.12
eigval :     1244.24  1263.11  1272.59  1285.07  1292.35  1313.37
eigval :     1349.94  1355.48  1378.55  1378.98  1386.71  1396.38
eigval :     1421.91  1435.66  1454.55  1472.89  1489.41  1508.66
eigval :     1512.56  1526.47  1548.17  1561.27  1584.81  2835.01
eigval :     3075.07  3080.33  3085.45  3090.14  3095.41  3097.07
eigval :     3101.15  3101.96  3106.47  3116.91  3118.10  3500.65

   temp. (K)  partition function   enthalpy   heat capacity  entropy
                                   cal/mol     cal/K/mol   cal/K/mol   J/K/mol
 298.15  VIB  0.246E+08            10792.528     71.981     64.763
         ROT  0.179E+08              888.752      2.981     36.170
         INT  0.440E+15            11681.280     74.962    100.934
         TR   0.743E+28             1481.254      4.968     43.749
         TOT                       13162.5338    79.9301   144.6827   605.3524

       T/K    H(0)-H(T)+PV         H(T)/Eh          T*S/Eh         G(T)/Eh
   ------------------------------------------------------------------------
    298.15    0.209758E-01    0.292946E+00    0.687434E-01    0.224202E+00
   ------------------------------------------------------------------------

         :::::::::::::::::::::::::::::::::::::::::::::::::::::
         ::                  THERMODYNAMIC                  ::
         :::::::::::::::::::::::::::::::::::::::::::::::::::::
         :: total free energy         -65.367829412645 Eh   ::
         ::.................................................::
         :: total energy              -65.592031759837 Eh   ::
         :: zero point energy           0.271969935916 Eh   ::
         :: G(RRHO) w/o ZPVE           -0.047767588725 Eh   ::
         :: G(RRHO) contrib.            0.224202347191 Eh   ::
         :::::::::::::::::::::::::::::::::::::::::::::::::::::

           -------------------------------------------------
          | TOTAL ENERGY              -65.592031759837 Eh   |
          | TOTAL ENTHALPY            -65.299085991083 Eh   |
          | TOTAL FREE ENERGY         -65.367829412645 Eh   |
          | GRADIENT NORM               0.000056103758 Eh/α |
          | HOMO-LUMO GAP               0.727867653744 eV   |
           -------------------------------------------------

 * finished run on 2025/09/08 at 00:46:41.654
