   * xtb version 6.7.1 (edcfbbe) compiled by 'albert@albert-system' on 2024-07-22

   ID    Z sym.   atoms
    1    8 O      1
    2    6 C      2-5, 7-9, 11-24
    3   35 Br     6
    4    7 N      10, 25
    5    1 H      26-38

          program call               : xtb data2507/toluene/HPIPXZ/HPIPXZ.xyz --gfn 2 --gbsa toluene --ohess vtight --parallel 40 --molden --ceasefiles --namespace data2507/toluene/HPIPXZ/HPIPXZ_toluene_S0_preOpt
      * Solvation model:               GBSA
        Solvent                        toluene
        Solvent mass                       9.2140E+01 g/mol
          :  Hamiltonian                  GFN2-xTB          :
 * total energy  :   -65.6691029 Eh     change       -0.1003727E-08 Eh
 * total energy  :   -65.6762572 Eh     change       -0.7154238E-02 Eh
 * total energy  :   -65.6783947 Eh     change       -0.2137504E-02 Eh
 * total energy  :   -65.6786631 Eh     change       -0.2683916E-03 Eh
 * total energy  :   -65.6787234 Eh     change       -0.6032160E-04 Eh
 * total energy  :   -65.6787323 Eh     change       -0.8910507E-05 Eh
 * total energy  :   -65.6787355 Eh     change       -0.3178865E-05 Eh
 * total energy  :   -65.6787283 Eh     change        0.7181666E-05 Eh
 * total energy  :   -65.6787351 Eh     change       -0.6838525E-05 Eh
 * total energy  :   -65.6787358 Eh     change       -0.6851815E-06 Eh
 * total energy  :   -65.6787355 Eh     change        0.4949017E-06 Eh
 * total energy  :   -65.6787360 Eh     change       -0.4971837E-06 Eh
 * total energy  :   -65.6787355 Eh     change        0.4986538E-06 Eh
 * total energy  :   -65.6787360 Eh     change       -0.5001099E-06 Eh
 * total energy  :   -65.6787355 Eh     change        0.5045169E-06 Eh
 * total energy  :   -65.6787360 Eh     change       -0.5054806E-06 Eh
 * total energy  :   -65.6787355 Eh     change        0.5104093E-06 Eh
 * total energy  :   -65.6787360 Eh     change       -0.4754347E-06 Eh
 * total energy  :   -65.6787360 Eh     change       -0.3329660E-07 Eh
   *** GEOMETRY OPTIMIZATION CONVERGED AFTER 23 ITERATIONS ***

 final structure:
================
38
 xtb: 6.7.1 (edcfbbe)
O           -3.18051671257854        2.33239286897753       -0.00004943511472
C           -4.08921315110956        1.35245622512254       -0.00002676449821
C           -5.44152349983314        1.70008947465348       -0.00002938744274
C           -6.42545219510945        0.73471186044704        0.00000207559432
C           -6.05612067221068       -0.60204044467299        0.00003506421092
Br          -7.41038088108260       -1.95496618899235        0.00006344949468
C           -4.73105126569571       -0.98229470563931        0.00002901045492
C           -3.72612430690737       -0.01349102052170       -0.00000065601024
C           -2.32348883779369       -0.37188367162665       -0.00000044655720
N           -1.34794443285250        0.51604211528051        0.00000298114986
C           -0.17920107709841       -0.18902688375522       -0.00000191281329
C           -0.47031406212705       -1.56265065401584       -0.00000879498957
C            0.54110754026325       -2.52070852991596       -0.00001814002824
C            1.83606330044509       -2.06993797942357       -0.00001695828966
C            2.17816263136772       -0.69578918877715       -0.00000818180020
C            3.54755398810858       -0.24233216654516       -0.00000484777986
C            4.64873612899262       -1.11695383756284       -0.00001596231380
C            5.93838481552350       -0.64736013913564       -0.00000778590502
C            6.19348896946985        0.72574902668153        0.00001217341109
C            5.14417089433346        1.60638008535278        0.00002233491072
C            3.81389671429728        1.15031964402790        0.00001325770019
C            2.73987373222624        2.08202176838878        0.00002288750753
C            1.45251440418169        1.66155468899606        0.00001517326081
C            1.15166435125513        0.27649021546449        0.00000027091120
N           -1.83741339406893       -1.65018897466855       -0.00000459318436
H           -2.27619480442015        1.91349948626649       -0.00003747623491
H           -5.69633881980470        2.74784069471631       -0.00005204834921
H           -7.46737904330940        1.01371756327328       -0.00000194623128
H           -4.48464741402087       -2.03264443785984        0.00005862321853
H            0.31267719917110       -3.57555192250167       -0.00002109384717
H            2.62207682686591       -2.80678981192543       -0.00002738670534
H            4.49257966149795       -2.18384108043695       -0.00003171823449
H            6.76392318478664       -1.34441609869555       -0.00001633686441
H            7.21229237655366        1.08457807562816        0.00001986073150
H            5.32358664702114        2.67226718681987        0.00003793907401
H            2.97669882185027        3.13631490605629        0.00003580958378
H            0.62780602074100        2.35796319159805        0.00002143318522
H           -2.37395563892932       -2.50152234107881       -0.00001047120537

          :  Hamiltonian                  GFN2-xTB          :
         :: gradient norm              0.000036050098 Eh/a0 ::
         :: HOMO-LUMO gap              2.492411554090 eV    ::
         :: SCC energy               -66.752390273528 Eh    ::
         :: -> dispersion             -0.049036146035 Eh    ::
         :: -> Gsolv                  -0.028323145965 Eh    ::
         :: repulsion energy           1.073654237860 Eh    ::

    * Orbital Energies and Occupations

         #    Occupation            Energy/Eh            Energy/eV
      -------------------------------------------------------------
         1        2.0000           -0.8439785             -22.9658
       ...           ...                  ...                  ...
        48        2.0000           -0.4439640             -12.0809
        49        2.0000           -0.4433765             -12.0649
        50        2.0000           -0.4425616             -12.0427
        51        2.0000           -0.4310862             -11.7305
        52        2.0000           -0.4211992             -11.4614
        53        2.0000           -0.4211489             -11.4600
        54        2.0000           -0.4177189             -11.3667
        55        2.0000           -0.4171795             -11.3520
        56        2.0000           -0.4101818             -11.1616
        57        2.0000           -0.4044295             -11.0051
        58        2.0000           -0.3972154             -10.8088
        59        2.0000           -0.3848901             -10.4734
        60        2.0000           -0.3772484             -10.2655 (HOMO)
        61                         -0.2856538              -7.7730 (LUMO)
        62                         -0.2591036              -7.0506
        63                         -0.2480951              -6.7510
        64                         -0.2445076              -6.6534
        65                         -0.2191359              -5.9630
        66                         -0.2127384              -5.7889
        67                         -0.1922176              -5.2305
        68                         -0.1846637              -5.0250
        69                         -0.1616230              -4.3980
        70                         -0.1068322              -2.9071
        71                         -0.1023986              -2.7864
       ...                                ...                  ...
       118                          0.7180764              19.5399
      -------------------------------------------------------------
                  HL-Gap            0.0915946 Eh            2.4924 eV

     #   Z          covCN         q      C6AA      α(0)
     1   8 O        1.656    -0.395    20.753     6.150
     2   6 C        2.847     0.154    24.667     8.140
     3   6 C        2.921    -0.054    29.353     8.885
     4   6 C        2.982    -0.032    28.792     8.802
     5   6 C        2.914     0.072    26.383     8.423
     6  35 Br       1.060    -0.190   190.312    22.243
     7   6 C        2.994    -0.043    29.064     8.843
     8   6 C        2.972    -0.045    29.117     8.851
     9   6 C        3.155     0.139    24.699     8.127
    10   7 N        1.907    -0.315    29.017     7.986
    11   6 C        3.175     0.061    26.249     8.367
    12   6 C        3.085     0.039    27.028     8.522
    13   6 C        2.905    -0.055    29.369     8.886
    14   6 C        2.926    -0.040    28.987     8.829
    15   6 C        2.978    -0.001    28.054     8.688
    16   6 C        2.979     0.008    27.841     8.655
    17   6 C        2.919    -0.036    28.904     8.816
    18   6 C        2.917    -0.031    28.771     8.796
    19   6 C        2.915    -0.031    28.767     8.795
    20   6 C        2.923    -0.035    28.878     8.812
    21   6 C        2.986     0.012    27.746     8.641
    22   6 C        2.917    -0.035    28.870     8.811
    23   6 C        2.913    -0.035    28.868     8.810
    24   6 C        2.982    -0.003    28.088     8.694
    25   7 N        2.783    -0.119    23.594     7.214
    26   1 H        0.808     0.337     0.619     1.236
    27   1 H        0.926     0.070     2.083     2.257
    28   1 H        0.926     0.067     2.116     2.275
    29   1 H        0.926     0.054     2.274     2.358
    30   1 H        0.926     0.040     2.451     2.448
    31   1 H        0.926     0.048     2.349     2.397
    32   1 H        0.926     0.037     2.493     2.469
    33   1 H        0.926     0.034     2.530     2.487
    34   1 H        0.926     0.034     2.529     2.487
    35   1 H        0.926     0.036     2.505     2.475
    36   1 H        0.926     0.039     2.464     2.455
    37   1 H        0.926     0.043     2.414     2.430
    38   1 H        0.860     0.174     1.251     1.752

molecular dipole:
                 x           y           z       tot (Debye)
 q only:        1.220      -0.285      -0.000
   full:        1.473      -0.598      -0.000       4.040

 projected vibrational frequencies (cm⁻¹)
eigval :       -0.00    -0.00    -0.00    -0.00     0.00     0.00
eigval :       16.26    29.44    53.52    68.82    80.53   112.04
eigval :      115.52   158.31   172.17   203.43   210.57   253.85
eigval :      267.62   278.55   318.22   328.45   335.65   371.96
eigval :      381.75   415.38   434.26   457.19   466.05   491.82
eigval :      497.93   514.16   517.30   538.82   546.47   554.95
eigval :      592.30   600.22   622.84   647.70   650.52   689.98
eigval :      694.50   702.18   735.77   747.72   748.81   761.50
eigval :      785.71   808.83   820.92   829.91   838.88   856.78
eigval :      858.32   867.85   891.90   911.40   911.93   913.89
eigval :      920.52   927.17   961.06  1040.66  1067.56  1091.83
eigval :     1096.97  1100.02  1135.62  1157.50  1167.41  1171.50
eigval :     1186.62  1207.94  1219.69  1230.49  1245.32  1256.63
eigval :     1267.49  1280.89  1310.63  1323.60  1343.65  1360.51
eigval :     1365.71  1383.86  1394.53  1396.90  1402.21  1413.61
eigval :     1437.55  1456.77  1495.82  1508.73  1539.27  1551.57
eigval :     1574.81  1576.81  1586.64  1597.25  1607.73  2839.94
eigval :     3068.50  3073.52  3074.77  3084.98  3086.14  3095.36
eigval :     3097.61  3100.37  3102.60  3115.04  3117.10  3474.07

   temp. (K)  partition function   enthalpy   heat capacity  entropy
                                   cal/mol     cal/K/mol   cal/K/mol   J/K/mol
 298.15  VIB  0.111E+08            10369.522     69.767     62.180
         ROT  0.179E+08              888.752      2.981     36.165
         INT  0.198E+15            11258.274     72.748     98.345
         TR   0.743E+28             1481.254      4.968     43.749
         TOT                       12739.5282    77.7158   142.0942   594.5221

       T/K    H(0)-H(T)+PV         H(T)/Eh          T*S/Eh         G(T)/Eh
   ------------------------------------------------------------------------
    298.15    0.203017E-01    0.296808E+00    0.675135E-01    0.229295E+00
   ------------------------------------------------------------------------

         :::::::::::::::::::::::::::::::::::::::::::::::::::::
         ::                  THERMODYNAMIC                  ::
         :::::::::::::::::::::::::::::::::::::::::::::::::::::
         :: total free energy         -65.449441240057 Eh   ::
         ::.................................................::
         :: total energy              -65.678736037136 Eh   ::
         :: zero point energy           0.276506606858 Eh   ::
         :: G(RRHO) w/o ZPVE           -0.047211809779 Eh   ::
         :: G(RRHO) contrib.            0.229294797079 Eh   ::
         :::::::::::::::::::::::::::::::::::::::::::::::::::::

           -------------------------------------------------
          | TOTAL ENERGY              -65.678736037136 Eh   |
          | TOTAL ENTHALPY            -65.381927699833 Eh   |
          | TOTAL FREE ENERGY         -65.449441240057 Eh   |
          | GRADIENT NORM               0.000036218774 Eh/α |
          | HOMO-LUMO GAP               2.492414600371 eV   |
           -------------------------------------------------

 * finished run on 2025/09/08 at 00:45:27.055
