   * xtb version 6.7.1 (edcfbbe) compiled by 'albert@albert-system' on 2024-07-22

   ID    Z sym.   atoms
    1    8 O      1
    2    6 C      2-5, 7-9, 11-24
    3   35 Br     6
    4    7 N      10, 25
    5    1 H      26-38

          program call               : xtb data2507/toluene/HPIPXZ/HPIPXZ_toluene_T1_crest.xyz --gfn 2 --uhf 2 --gbsa toluene --ohess vtight --parallel 40 --molden --ceasefiles --namespace data2507/toluene/HPIPXZ/HPIPXZ_toluene_T1_finalOpt
      * Solvation model:               GBSA
        Solvent                        toluene
        Solvent mass                       9.2140E+01 g/mol
          :  Hamiltonian                  GFN2-xTB          :
 * total energy  :   -65.5919986 Eh     change       -0.1318540E-08 Eh
 * total energy  :   -65.5920197 Eh     change       -0.2107312E-04 Eh
 * total energy  :   -65.5920262 Eh     change       -0.6546774E-05 Eh
 * total energy  :   -65.5920275 Eh     change       -0.1303622E-05 Eh
 * total energy  :   -65.5920285 Eh     change       -0.1008934E-05 Eh
 * total energy  :   -65.5920293 Eh     change       -0.8040224E-06 Eh
 * total energy  :   -65.5920299 Eh     change       -0.5775784E-06 Eh
 * total energy  :   -65.5920301 Eh     change       -0.2235080E-06 Eh
 * total energy  :   -65.5920302 Eh     change       -0.3076123E-07 Eh
   *** GEOMETRY OPTIMIZATION CONVERGED AFTER 9 ITERATIONS ***

 final structure:
================
38
 xtb: 6.7.1 (edcfbbe)
O           -1.27680430080065        2.82403826867544        0.00631372397321
C           -2.30510622055181        1.96779419425231        0.00635374270514
C           -3.59543104425631        2.47461693841097        0.01319367283572
C           -4.70059146741462        1.63595765573822        0.01326237589401
C           -4.49097462323217        0.25826208227481        0.00577391492635
Br          -6.01138895474194       -0.90553319421316        0.00417298689943
C           -3.23605931545504       -0.29237829789996       -0.00044774617992
C           -2.09269092201594        0.54593200227487        0.00010500804909
C           -0.78707780572322        0.02948883642741       -0.00392582140113
N            0.33698628665183        0.80267612950785       -0.00636864919142
C            1.37680696754283       -0.02011027127317       -0.00756676719879
C            0.93535835975261       -1.38005371911350       -0.00543203132633
C            1.82239583256755       -2.42355911192842       -0.00384276625686
C            3.20040551498014       -2.10908005841215       -0.00200691771854
C            3.69088301508638       -0.81036214992923       -0.00249479606915
C            5.11299456235399       -0.50830391908155        0.00230176525884
C            6.10155728855909       -1.49213735045209        0.02273040979617
C            7.44792283516201       -1.17040626832368        0.02584826287794
C            7.85734631438064        0.16167021305634        0.00867510708217
C            6.91513254170252        1.15756092272929       -0.00983710596409
C            5.53263013718867        0.85611927363003       -0.01170619880336
C            4.58345923421784        1.89005584325898       -0.02459726160060
C            3.22318164322003        1.60585360024732       -0.02121403049404
C            2.77621690677082        0.29381070521354       -0.00981824318167
N           -0.43282546933624       -1.31011277620544       -0.00424206865466
H           -0.43448899104596        2.29195867381002        0.00140518882791
H           -3.72296131021163        3.54537386722981        0.01853649039492
H           -5.69904010272645        2.04087178040826        0.01870215515375
H           -3.12103729949334       -1.36437818024336       -0.00628353610839
H            1.49843821337902       -3.45202161664789       -0.00300561173316
H            3.88304116044045       -2.94250574045316       -0.00118933006951
H            5.82982968871908       -2.53543209685596        0.03749338068499
H            8.18465890306123       -1.95983733131815        0.04176486744526
H            8.90994622505447        0.40314089076772        0.01042526163212
H            7.21233277572304        2.19602678023998       -0.02216964212544
H            4.92069290056393        2.91536500783112       -0.03473189635525
H            2.49568264723756        2.40331002011489       -0.02837804246199
H           -1.06500151951042       -2.09041928804830       -0.00156830264269

          :  Hamiltonian                  GFN2-xTB          :
         :: gradient norm              0.000190223696 Eh/a0 ::
         :: HOMO-LUMO gap              0.727755993531 eV    ::
         :: SCC energy               -66.647653785551 Eh    ::
         :: -> dispersion             -0.048924642556 Eh    ::
         :: -> Gsolv                  -0.028986167950 Eh    ::
         :: repulsion energy           1.055623621063 Eh    ::

    * Orbital Energies and Occupations

         #    Occupation            Energy/Eh            Energy/eV
      -------------------------------------------------------------
         1        2.0000           -0.8417659             -22.9056
       ...           ...                  ...                  ...
        49        2.0000           -0.4448885             -12.1060
        50        2.0000           -0.4426873             -12.0461
        51        2.0000           -0.4262359             -11.5985
        52        2.0000           -0.4252345             -11.5712
        53        2.0000           -0.4224821             -11.4963
        54        2.0000           -0.4201306             -11.4323
        55        2.0000           -0.4151585             -11.2970
        56        2.0000           -0.4127741             -11.2322
        57        2.0000           -0.4059198             -11.0456
        58        2.0000           -0.3973868             -10.8134
        59        1.9994           -0.3867412             -10.5238
        60        1.0006           -0.3726936             -10.1415
        61        1.0000           -0.2924365              -7.9576 (HOMO)
        62        0.0000           -0.2656920              -7.2298 (LUMO)
        63                         -0.2506676              -6.8210
        64                         -0.2356908              -6.4135
        65                         -0.2224809              -6.0540
        66                         -0.2089861              -5.6868
        67                         -0.1936413              -5.2692
        68                         -0.1852367              -5.0405
        69                         -0.1681398              -4.5753
        70                         -0.1102292              -2.9995
        71                         -0.1006052              -2.7376
        72                         -0.0524325              -1.4268
       ...                                ...                  ...
       118                          0.7196971              19.5840
      -------------------------------------------------------------
                  HL-Gap            0.0267445 Eh            0.7278 eV

     #   Z          covCN         q      C6AA      α(0)
     1   8 O        1.656    -0.391    20.680     6.139
     2   6 C        2.843     0.149    24.751     8.153
     3   6 C        2.916    -0.061    29.505     8.907
     4   6 C        2.982    -0.046    29.125     8.853
     5   6 C        2.910     0.075    26.327     8.414
     6  35 Br       1.068    -0.190   190.310    22.243
     7   6 C        2.994    -0.059    29.453     8.902
     8   6 C        2.967    -0.047    29.158     8.857
     9   6 C        3.114     0.122    25.185     8.221
    10   7 N        1.894    -0.313    28.950     7.977
    11   6 C        3.143     0.085    25.879     8.324
    12   6 C        3.048     0.051    26.814     8.493
    13   6 C        2.902    -0.065    29.607     8.922
    14   6 C        2.922    -0.034    28.849     8.808
    15   6 C        2.970    -0.003    28.105     8.696
    16   6 C        2.976     0.013    27.724     8.637
    17   6 C        2.917    -0.035    28.877     8.812
    18   6 C        2.917    -0.025    28.629     8.774
    19   6 C        2.912    -0.028    28.707     8.786
    20   6 C        2.922    -0.033    28.828     8.805
    21   6 C        2.981     0.019    27.587     8.616
    22   6 C        2.917    -0.034    28.844     8.807
    23   6 C        2.912    -0.024    28.594     8.768
    24   6 C        2.976    -0.008    28.207     8.712
    25   7 N        2.765    -0.138    23.990     7.274
    26   1 H        0.808     0.338     0.616     1.232
    27   1 H        0.926     0.061     2.188     2.313
    28   1 H        0.926     0.056     2.241     2.341
    29   1 H        0.926     0.043     2.405     2.425
    30   1 H        0.926     0.040     2.455     2.450
    31   1 H        0.926     0.050     2.317     2.380
    32   1 H        0.926     0.041     2.434     2.439
    33   1 H        0.926     0.041     2.437     2.441
    34   1 H        0.926     0.040     2.448     2.447
    35   1 H        0.926     0.042     2.419     2.432
    36   1 H        0.926     0.047     2.359     2.402
    37   1 H        0.926     0.050     2.322     2.383
    38   1 H        0.860     0.170     1.273     1.768

molecular dipole:
                 x           y           z       tot (Debye)
 q only:        2.568      -0.429      -0.001
   full:        2.830      -0.749      -0.000       7.441

 projected vibrational frequencies (cm⁻¹)
eigval :       -0.00    -0.00    -0.00    -0.00     0.00     0.00
eigval :       19.50    20.00    52.85    63.21    79.59   104.15
eigval :      115.95   149.73   164.57   199.02   200.14   251.41
eigval :      257.11   264.47   309.13   321.18   329.28   362.64
eigval :      374.26   388.31   410.17   416.90   430.51   454.28
eigval :      462.14   481.70   490.32   499.05   515.08   546.14
eigval :      583.77   585.77   592.75   623.51   642.52   659.10
eigval :      680.90   693.75   721.32   734.56   744.50   758.95
eigval :      771.82   775.48   780.18   796.29   804.07   809.57
eigval :      830.64   853.28   856.58   875.19   876.91   882.09
eigval :      898.01   919.89   920.76  1019.44  1035.88  1075.33
eigval :     1083.21  1089.79  1121.26  1133.27  1147.70  1165.09
eigval :     1178.38  1186.54  1209.42  1213.86  1230.76  1242.01
eigval :     1244.16  1262.97  1272.25  1285.06  1292.41  1313.30
eigval :     1349.99  1355.37  1378.49  1378.89  1386.57  1396.30
eigval :     1421.89  1435.46  1454.54  1472.88  1489.35  1508.56
eigval :     1512.45  1526.36  1548.19  1561.20  1584.73  2837.11
eigval :     3075.00  3080.22  3085.41  3090.10  3095.39  3097.05
eigval :     3101.05  3102.00  3106.19  3116.92  3117.92  3500.64

   temp. (K)  partition function   enthalpy   heat capacity  entropy
                                   cal/mol     cal/K/mol   cal/K/mol   J/K/mol
 298.15  VIB  0.250E+08            10793.806     71.984     64.781
         ROT  0.179E+08              888.752      2.981     36.170
         INT  0.447E+15            11682.558     74.965    100.951
         TR   0.743E+28             1481.254      4.968     43.749
         TOT                       13163.8122    79.9334   144.7000   605.4246

       T/K    H(0)-H(T)+PV         H(T)/Eh          T*S/Eh         G(T)/Eh
   ------------------------------------------------------------------------
    298.15    0.209779E-01    0.292930E+00    0.687516E-01    0.224178E+00
   ------------------------------------------------------------------------

         :::::::::::::::::::::::::::::::::::::::::::::::::::::
         ::                  THERMODYNAMIC                  ::
         :::::::::::::::::::::::::::::::::::::::::::::::::::::
         :: total free energy         -65.367851698929 Eh   ::
         ::.................................................::
         :: total energy              -65.592030162791 Eh   ::
         :: zero point energy           0.271952211310 Eh   ::
         :: G(RRHO) w/o ZPVE           -0.047773747447 Eh   ::
         :: G(RRHO) contrib.            0.224178463862 Eh   ::
         :::::::::::::::::::::::::::::::::::::::::::::::::::::

           -------------------------------------------------
          | TOTAL ENERGY              -65.592030162791 Eh   |
          | TOTAL ENTHALPY            -65.299100081424 Eh   |
          | TOTAL FREE ENERGY         -65.367851698929 Eh   |
          | GRADIENT NORM               0.000189529818 Eh/α |
          | HOMO-LUMO GAP               0.727755793775 eV   |
           -------------------------------------------------

 * finished run on 2025/09/08 at 00:48:07.915
