   * xtb version 6.7.1 (edcfbbe) compiled by 'albert@albert-system' on 2024-07-22

   ID    Z sym.   atoms
    1    8 O      1
    2    6 C      2-5, 7-9, 11-24
    3   35 Br     6
    4    7 N      10, 25
    5    1 H      26-38

          program call               : xtb data2507/toluene/HPIPXZ/HPIPXZ_toluene_S0_crest.xyz --gfn 2 --gbsa toluene --ohess vtight --parallel 40 --molden --ceasefiles --namespace data2507/toluene/HPIPXZ/HPIPXZ_toluene_S0_finalOpt
      * Solvation model:               GBSA
        Solvent                        toluene
        Solvent mass                       9.2140E+01 g/mol
          :  Hamiltonian                  GFN2-xTB          :
 * total energy  :   -65.6787078 Eh     change       -0.8076597E-09 Eh
 * total energy  :   -65.6787238 Eh     change       -0.1604255E-04 Eh
 * total energy  :   -65.6787279 Eh     change       -0.4096187E-05 Eh
 * total energy  :   -65.6787287 Eh     change       -0.7844642E-06 Eh
 * total energy  :   -65.6787293 Eh     change       -0.5697275E-06 Eh
 * total energy  :   -65.6787298 Eh     change       -0.5183835E-06 Eh
 * total energy  :   -65.6787303 Eh     change       -0.5078069E-06 Eh
 * total energy  :   -65.6787305 Eh     change       -0.2112457E-06 Eh
 * total energy  :   -65.6787306 Eh     change       -0.1143365E-06 Eh
 * total energy  :   -65.6787308 Eh     change       -0.1635960E-06 Eh
 * total energy  :   -65.6787311 Eh     change       -0.2899841E-06 Eh
 * total energy  :   -65.6787315 Eh     change       -0.4017813E-06 Eh
 * total energy  :   -65.6787319 Eh     change       -0.4451419E-06 Eh
 * total energy  :   -65.6787324 Eh     change       -0.5065382E-06 Eh
 * total energy  :   -65.6787328 Eh     change       -0.3824262E-06 Eh
 * total energy  :   -65.6787331 Eh     change       -0.2701863E-06 Eh
 * total energy  :   -65.6787333 Eh     change       -0.1959841E-06 Eh
 * total energy  :   -65.6787334 Eh     change       -0.1077517E-06 Eh
 * total energy  :   -65.6787334 Eh     change       -0.4145460E-07 Eh
   *** GEOMETRY OPTIMIZATION CONVERGED AFTER 19 ITERATIONS ***

 final structure:
================
38
 xtb: 6.7.1 (edcfbbe)
O           -1.28806253028499        2.83773568046518        0.02051597469759
C           -2.30545191957469        1.97141185623335        0.00384812361052
C           -3.60766696039223        2.47511376942189        0.00218180303259
C           -4.69811544795552        1.63210918600644       -0.01612590954245
C           -4.48838771782294        0.26132775847858       -0.03317383655988
Br          -5.99203368760939       -0.92327627500331       -0.06059582821861
C           -3.21694638996288       -0.27164331909654       -0.03098599060906
C           -2.10531277880522        0.57232925259741       -0.01196988037528
C           -0.75445432754086        0.05170333900568       -0.00854754673979
N            0.31849470817511        0.81902272004033        0.00113906631270
C            1.39639152000904       -0.01827635425969        0.00045502132271
C            0.94628028625432       -1.34829191134006       -0.00930094232056
C            1.83858920634449       -2.41819896001592       -0.01178128260858
C            3.17741283009112       -2.12206634513618       -0.00635248099722
C            3.67816675610331       -0.79750751136851        0.00151623795074
C            5.09126709422406       -0.50748405203757        0.00399281284603
C            6.08280930655306       -1.50474075638235       -0.00371170127452
C            7.41847391823729       -1.18881551297346       -0.00255014306364
C            7.83223065268156        0.14506168523869        0.00665875735630
C            6.89291430843759        1.14213268769911        0.01465308754320
C            5.51853177608018        0.84448756616075        0.01315110483048
C            4.56091377397747        1.89547082235229        0.02001767970757
C            3.23323053922805        1.62848749651220        0.01623271730966
C            2.77254783317750        0.28819782560978        0.00646095197356
N           -0.42167657042029       -1.27479319004913       -0.01503711694819
H           -0.43926656264571        2.31536207495185        0.01733129409158
H           -3.73821829756170        3.54535557062865        0.01496055332590
H           -5.69971085529372        2.03230646301547       -0.01768196299148
H           -3.09499904833660       -1.34346223584662       -0.04483785977169
H            1.48860855793791       -3.43917092468481       -0.01792514108302
H            3.87196244420135       -2.94570034835104       -0.00830279665888
H            5.80332385762838       -2.54617280970545       -0.01111609624944
H            8.15707509943621       -1.97741376618079       -0.00899372533828
H            8.88596709072571        0.38266233049446        0.00738759603083
H            7.19525969519553        2.17987404844061        0.02170490430391
H            4.91934709118338        2.91481945313246        0.02753475633642
H            2.49563180196854        2.41660421477429        0.02036623365369
H           -1.05456380824446       -2.05712531982801       -0.02136020568537

          :  Hamiltonian                  GFN2-xTB          :
         :: gradient norm              0.000035743072 Eh/a0 ::
         :: HOMO-LUMO gap              2.492420391023 eV    ::
         :: SCC energy               -66.752361663837 Eh    ::
         :: -> dispersion             -0.049036236990 Eh    ::
         :: -> Gsolv                  -0.028322613466 Eh    ::
         :: repulsion energy           1.073628231154 Eh    ::

    * Orbital Energies and Occupations

         #    Occupation            Energy/Eh            Energy/eV
      -------------------------------------------------------------
         1        2.0000           -0.8439672             -22.9655
       ...           ...                  ...                  ...
        48        2.0000           -0.4439627             -12.0808
        49        2.0000           -0.4433689             -12.0647
        50        2.0000           -0.4425624             -12.0427
        51        2.0000           -0.4310782             -11.7302
        52        2.0000           -0.4211990             -11.4614
        53        2.0000           -0.4211449             -11.4599
        54        2.0000           -0.4177107             -11.3665
        55        2.0000           -0.4171871             -11.3522
        56        2.0000           -0.4101817             -11.1616
        57        2.0000           -0.4044376             -11.0053
        58        2.0000           -0.3972142             -10.8087
        59        2.0000           -0.3848934             -10.4735
        60        2.0000           -0.3772471             -10.2654 (HOMO)
        61                         -0.2856523              -7.7730 (LUMO)
        62                         -0.2590999              -7.0505
        63                         -0.2480974              -6.7511
        64                         -0.2445080              -6.6534
        65                         -0.2191334              -5.9629
        66                         -0.2127677              -5.7897
        67                         -0.1922254              -5.2307
        68                         -0.1846623              -5.0249
        69                         -0.1616252              -4.3980
        70                         -0.1068340              -2.9071
        71                         -0.1023985              -2.7864
       ...                                ...                  ...
       118                          0.7180894              19.5402
      -------------------------------------------------------------
                  HL-Gap            0.0915948 Eh            2.4924 eV

     #   Z          covCN         q      C6AA      α(0)
     1   8 O        1.656    -0.395    20.753     6.150
     2   6 C        2.847     0.154    24.667     8.140
     3   6 C        2.921    -0.054    29.354     8.885
     4   6 C        2.982    -0.032    28.792     8.802
     5   6 C        2.914     0.072    26.383     8.423
     6  35 Br       1.060    -0.190   190.312    22.243
     7   6 C        2.994    -0.043    29.064     8.843
     8   6 C        2.972    -0.045    29.117     8.851
     9   6 C        3.155     0.139    24.699     8.127
    10   7 N        1.907    -0.315    29.017     7.986
    11   6 C        3.175     0.061    26.248     8.367
    12   6 C        3.085     0.039    27.028     8.522
    13   6 C        2.905    -0.055    29.369     8.886
    14   6 C        2.926    -0.040    28.987     8.829
    15   6 C        2.978    -0.001    28.055     8.688
    16   6 C        2.979     0.008    27.841     8.655
    17   6 C        2.919    -0.036    28.904     8.816
    18   6 C        2.917    -0.031    28.770     8.796
    19   6 C        2.915    -0.031    28.767     8.795
    20   6 C        2.923    -0.035    28.878     8.812
    21   6 C        2.986     0.012    27.746     8.641
    22   6 C        2.917    -0.035    28.870     8.811
    23   6 C        2.913    -0.035    28.868     8.810
    24   6 C        2.982    -0.003    28.088     8.694
    25   7 N        2.783    -0.119    23.594     7.214
    26   1 H        0.808     0.337     0.619     1.236
    27   1 H        0.926     0.070     2.083     2.257
    28   1 H        0.926     0.067     2.116     2.275
    29   1 H        0.926     0.054     2.274     2.358
    30   1 H        0.926     0.040     2.451     2.448
    31   1 H        0.926     0.048     2.349     2.397
    32   1 H        0.926     0.037     2.493     2.469
    33   1 H        0.926     0.034     2.530     2.487
    34   1 H        0.926     0.034     2.529     2.487
    35   1 H        0.926     0.036     2.505     2.475
    36   1 H        0.926     0.039     2.464     2.455
    37   1 H        0.926     0.043     2.414     2.430
    38   1 H        0.860     0.174     1.251     1.752

molecular dipole:
                 x           y           z       tot (Debye)
 q only:        1.179      -0.426       0.007
   full:        1.392      -0.767       0.008       4.041

 projected vibrational frequencies (cm⁻¹)
eigval :       -0.00    -0.00    -0.00    -0.00     0.00     0.00
eigval :       12.41    24.39    52.96    68.75    81.31   112.04
eigval :      115.35   157.79   172.49   203.37   210.30   253.65
eigval :      267.14   279.19   318.03   328.48   335.90   372.18
eigval :      381.53   415.38   434.40   457.23   465.89   491.96
eigval :      498.05   513.03   517.35   541.70   546.40   555.37
eigval :      592.06   600.06   623.49   647.74   650.96   689.93
eigval :      694.94   702.98   735.88   747.74   753.28   763.62
eigval :      785.77   809.15   817.23   829.69   840.49   854.56
eigval :      856.76   870.84   891.47   907.82   913.88   914.28
eigval :      921.41   929.05   961.12  1041.02  1067.81  1091.83
eigval :     1096.90  1100.19  1135.45  1156.46  1166.78  1171.84
eigval :     1183.56  1209.36  1219.29  1230.26  1245.61  1257.06
eigval :     1268.03  1280.98  1310.84  1323.63  1343.99  1360.85
eigval :     1366.01  1384.31  1394.64  1396.87  1402.53  1413.59
eigval :     1436.81  1456.70  1496.01  1508.89  1539.03  1551.34
eigval :     1575.17  1576.75  1586.69  1597.02  1607.63  2840.42
eigval :     3068.22  3072.61  3074.19  3084.71  3085.82  3094.89
eigval :     3097.49  3099.65  3103.38  3114.91  3117.51  3473.87

   temp. (K)  partition function   enthalpy   heat capacity  entropy
                                   cal/mol     cal/K/mol   cal/K/mol   J/K/mol
 298.15  VIB  0.172E+08            10379.869     69.683     62.520
         ROT  0.179E+08              888.752      2.981     36.165
         INT  0.307E+15            11268.621     72.663     98.684
         TR   0.743E+28             1481.254      4.968     43.749
         TOT                       12749.8749    77.6315   142.4336   595.9420

       T/K    H(0)-H(T)+PV         H(T)/Eh          T*S/Eh         G(T)/Eh
   ------------------------------------------------------------------------
    298.15    0.203182E-01    0.296819E+00    0.676748E-01    0.229144E+00
   ------------------------------------------------------------------------

         :::::::::::::::::::::::::::::::::::::::::::::::::::::
         ::                  THERMODYNAMIC                  ::
         :::::::::::::::::::::::::::::::::::::::::::::::::::::
         :: total free energy         -65.449589664804 Eh   ::
         ::.................................................::
         :: total energy              -65.678733432487 Eh   ::
         :: zero point energy           0.276500328054 Eh   ::
         :: G(RRHO) w/o ZPVE           -0.047356560370 Eh   ::
         :: G(RRHO) contrib.            0.229143767684 Eh   ::
         :::::::::::::::::::::::::::::::::::::::::::::::::::::

           -------------------------------------------------
          | TOTAL ENERGY              -65.678733432487 Eh   |
          | TOTAL ENTHALPY            -65.381914885502 Eh   |
          | TOTAL FREE ENERGY         -65.449589664804 Eh   |
          | GRADIENT NORM               0.000035816131 Eh/α |
          | HOMO-LUMO GAP               2.492420892322 eV   |
           -------------------------------------------------

 * finished run on 2025/09/08 at 00:46:40.431
