   * xtb version 6.7.1 (edcfbbe) compiled by 'albert@albert-system' on 2024-07-22

   ID    Z sym.   atoms
    1    7 N      1, 7, 9, 24
    2    6 C      2-6, 8, 10-23, 25-36
    3    1 H      37-54

          program call               : xtb data2507/toluene/DCzIPN/DCzIPN.xyz --gfn 2 --gbsa toluene --ohess vtight --parallel 40 --molden --ceasefiles --namespace data2507/toluene/DCzIPN/DCzIPN_toluene_S0_preOpt
      * Solvation model:               GBSA
        Solvent                        toluene
        Solvent mass                       9.2140E+01 g/mol
          :  Hamiltonian                  GFN2-xTB          :
 * total energy  :   -89.4094204 Eh     change       -0.5639151E-09 Eh
 * total energy  :   -89.4217606 Eh     change       -0.1234015E-01 Eh
 * total energy  :   -89.4226559 Eh     change       -0.8952671E-03 Eh
 * total energy  :   -89.4241901 Eh     change       -0.1534276E-02 Eh
 * total energy  :   -89.4248372 Eh     change       -0.6470353E-03 Eh
 * total energy  :   -89.4250334 Eh     change       -0.1961718E-03 Eh
 * total energy  :   -89.4249828 Eh     change        0.5052391E-04 Eh
 * total energy  :   -89.4252079 Eh     change       -0.2250393E-03 Eh
 * total energy  :   -89.4252565 Eh     change       -0.4859342E-04 Eh
 * total energy  :   -89.4252049 Eh     change        0.5153537E-04 Eh
 * total energy  :   -89.4258490 Eh     change       -0.6414871E-06 Eh
 * total energy  :   -89.4258496 Eh     change       -0.6404270E-06 Eh
 * total energy  :   -89.4258503 Eh     change       -0.6399473E-06 Eh
 * total energy  :   -89.4258508 Eh     change       -0.5084542E-06 Eh
 * total energy  :   -89.4258511 Eh     change       -0.3658831E-06 Eh
 * total energy  :   -89.4258514 Eh     change       -0.2608444E-06 Eh
 * total energy  :   -89.4258516 Eh     change       -0.2017533E-06 Eh
 * total energy  :   -89.4258518 Eh     change       -0.2409090E-06 Eh
 * total energy  :   -89.4258518 Eh     change       -0.2329742E-08 Eh
   *** GEOMETRY OPTIMIZATION CONVERGED AFTER 44 ITERATIONS ***

 final structure:
================
54
 xtb: 6.7.1 (edcfbbe)
N           -3.29864693979089        3.78176781441127       -0.58591069356199
C           -2.37451692788474        3.14377209400397       -0.34992221137838
C           -1.19860890715859        2.39906178967250       -0.11095849160154
C            0.00068362698994        3.08381914266219        0.05485120250226
C            1.19924081641932        2.39218934970435        0.19521440284577
C            2.37659537652347        3.12568210270135        0.46012388050086
N            3.30272478700695        3.75218114699896        0.71811019547066
C            1.20616390836461        0.97998974983019        0.14916723120506
N            2.39134211174204        0.27058087371197        0.27062271498001
C            3.55519084519783        0.49556427457728       -0.45346674139571
C            3.78272676475889        1.36542457263879       -1.50799839757323
C            5.03744433449065        1.35743024280017       -2.08984977926920
C            6.03690826907013        0.49482199387621       -1.64851917195027
C            5.80114152595154       -0.40123410931753       -0.62382483715154
C            4.54902035111177       -0.40989004587555       -0.02435118722541
C            3.95815738200911       -1.21173560758375        1.01442997236891
C            4.44408857534253       -2.23088770295989        1.82257771693749
C            3.60091936733234       -2.78610687136597        2.76593237127442
C            2.29577132313867       -2.32650819179520        2.91861954036294
C            1.79028363716459       -1.31212345150064        2.12505833607731
C            2.62521184160486       -0.77101227572414        1.16002422268993
C           -0.00080065611585        0.30458561533793        0.00433909616965
C           -1.20712737428009        0.98613556908982       -0.11625360269121
N           -2.39262711056208        0.28244719138219       -0.26371120601057
C           -2.62536752198457       -0.73025470187683       -1.18626622933452
C           -1.78964029163318       -1.24006897082776       -2.16756293605369
C           -2.29398750837465       -2.22928611241617       -2.99300645683011
C           -3.59883347406732       -2.69451679889732       -2.85554299941906
C           -4.44292531972869       -2.16971683763663       -1.89574228375065
C           -3.95805118981337       -1.17641257103844       -1.05541385077826
C           -4.54983686464580       -0.40906779843100        0.00862203050002
C           -5.80197467252885       -0.42106465622939        0.60801058875358
C           -6.03849068474415        0.44072815724908        1.66151330384717
C           -5.03982417740188        1.28939747813365        2.13072375317244
C           -3.78507362313566        1.31731902959304        1.54955680890408
C           -3.55681803752875        0.48269604950396        0.46711914105744
H            0.00122799500663        4.16405993519678        0.07434591646428
H            3.01429505524408        2.02984587832818       -1.87461188428113
H            5.24189949059106        2.03308939979837       -2.90681653334210
H            7.00521569441421        0.52189816230037       -2.12533102121901
H            6.56853255473100       -1.08614072403774       -0.29724669865644
H            5.46211327046267       -2.57308368106099        1.71734914255301
H            3.95872271843733       -3.58079073783632        3.40333139639946
H            1.66362196404556       -2.76648000005844        3.67550249187949
H            0.78270029310942       -0.95243207809779        2.26943066440343
H           -0.00143623858931       -0.77437085488530       -0.01469670714018
H           -0.78239021273812       -0.87495299467190       -2.30045021209142
H           -1.66106824675676       -2.64491952669259       -3.76289382152559
H           -3.95568185242002       -3.46912376003198       -3.51769752233179
H           -5.46072532532909       -2.51583383889800       -1.80172072403921
H           -6.56866799431577       -1.09577489382537        0.25929322261304
H           -7.00683320375950        0.45141522378943        2.13889409392421
H           -5.24491233202464        1.93810766951190        2.96908995519855
H           -3.01707919295738        1.96977628677076        1.93790980755054

          :  Hamiltonian                  GFN2-xTB          :
         :: gradient norm              0.000068966550 Eh/a0 ::
         :: HOMO-LUMO gap              2.071983843955 eV    ::
         :: SCC energy               -91.165561476357 Eh    ::
         :: -> dispersion             -0.078340112185 Eh    ::
         :: -> Gsolv                  -0.040937567703 Eh    ::
         :: repulsion energy           1.739709634847 Eh    ::

    * Orbital Energies and Occupations

         #    Occupation            Energy/Eh            Energy/eV
      -------------------------------------------------------------
         1        2.0000           -0.7081463             -19.2696
       ...           ...                  ...                  ...
        71        2.0000           -0.4372633             -11.8985
        72        2.0000           -0.4333116             -11.7910
        73        2.0000           -0.4331787             -11.7874
        74        2.0000           -0.4296802             -11.6922
        75        2.0000           -0.4293085             -11.6821
        76        2.0000           -0.4286667             -11.6646
        77        2.0000           -0.4284056             -11.6575
        78        2.0000           -0.4163888             -11.3305
        79        2.0000           -0.4162491             -11.3267
        80        2.0000           -0.3899726             -10.6117
        81        2.0000           -0.3899293             -10.6105
        82        2.0000           -0.3812806             -10.3752
        83        2.0000           -0.3791691             -10.3177 (HOMO)
        84                         -0.3030251              -8.2457 (LUMO)
        85                         -0.2899424              -7.8897
        86                         -0.2560346              -6.9671
        87                         -0.2557895              -6.9604
        88                         -0.2340456              -6.3687
        89                         -0.2332295              -6.3465
        90                         -0.2319560              -6.3118
        91                         -0.2294814              -6.2445
        92                         -0.2225876              -6.0569
        93                         -0.2060508              -5.6069
        94                         -0.2003911              -5.4529
       ...                                ...                  ...
       162                          1.1454245              31.1686
      -------------------------------------------------------------
                  HL-Gap            0.0761440 Eh            2.0720 eV

     #   Z          covCN         q      C6AA      α(0)
     1   7 N        0.911    -0.255    26.635     7.464
     2   6 C        1.912     0.124    28.065     8.556
     3   6 C        2.971    -0.001    28.056     8.688
     4   6 C        2.938    -0.011    28.296     8.724
     5   6 C        2.971    -0.001    28.056     8.688
     6   6 C        1.912     0.124    28.065     8.556
     7   7 N        0.911    -0.255    26.635     7.464
     8   6 C        2.912     0.081    26.194     8.392
     9   7 N        2.801    -0.043    22.065     6.977
    10   6 C        3.063     0.046    26.900     8.505
    11   6 C        2.910    -0.046    29.153     8.854
    12   6 C        2.924    -0.030    28.760     8.795
    13   6 C        2.920    -0.037    28.915     8.818
    14   6 C        2.913    -0.031    28.783     8.797
    15   6 C        3.065    -0.013    28.269     8.719
    16   6 C        3.065    -0.012    28.255     8.716
    17   6 C        2.913    -0.031    28.776     8.796
    18   6 C        2.920    -0.037    28.928     8.820
    19   6 C        2.924    -0.032    28.786     8.799
    20   6 C        2.910    -0.050    29.250     8.868
    21   6 C        3.063     0.045    26.924     8.509
    22   6 C        2.924    -0.058    29.438     8.898
    23   6 C        2.912     0.081    26.195     8.392
    24   7 N        2.801    -0.043    22.062     6.976
    25   6 C        3.063     0.045    26.925     8.509
    26   6 C        2.910    -0.050    29.249     8.868
    27   6 C        2.924    -0.031    28.786     8.799
    28   6 C        2.920    -0.037    28.927     8.820
    29   6 C        2.913    -0.031    28.776     8.796
    30   6 C        3.065    -0.012    28.254     8.716
    31   6 C        3.065    -0.013    28.268     8.718
    32   6 C        2.913    -0.031    28.782     8.797
    33   6 C        2.920    -0.037    28.914     8.818
    34   6 C        2.924    -0.030    28.760     8.795
    35   6 C        2.910    -0.046    29.153     8.854
    36   6 C        3.063     0.046    26.900     8.505
    37   1 H        0.926     0.059     2.206     2.323
    38   1 H        0.926     0.023     2.689     2.564
    39   1 H        0.926     0.038     2.470     2.458
    40   1 H        0.926     0.039     2.459     2.452
    41   1 H        0.926     0.042     2.421     2.433
    42   1 H        0.926     0.041     2.436     2.441
    43   1 H        0.926     0.038     2.473     2.459
    44   1 H        0.926     0.039     2.461     2.453
    45   1 H        0.926     0.032     2.559     2.502
    46   1 H        0.926     0.071     2.072     2.251
    47   1 H        0.926     0.032     2.558     2.501
    48   1 H        0.926     0.039     2.461     2.453
    49   1 H        0.926     0.038     2.472     2.459
    50   1 H        0.926     0.041     2.436     2.441
    51   1 H        0.926     0.042     2.421     2.433
    52   1 H        0.926     0.039     2.458     2.452
    53   1 H        0.926     0.038     2.469     2.457
    54   1 H        0.926     0.023     2.688     2.564

molecular dipole:
                 x           y           z       tot (Debye)
 q only:       -0.006      -1.928      -0.034
   full:       -0.006      -2.138      -0.038       5.435

 projected vibrational frequencies (cm⁻¹)
eigval :       -0.00    -0.00    -0.00     0.00     0.00     0.00
eigval :       19.35    20.95    27.02    43.69    46.23    60.55
eigval :       88.56   100.66   105.17   115.37   120.68   127.39
eigval :      143.79   149.79   150.30   185.78   203.36   241.74
eigval :      257.59   269.56   271.15   276.63   277.83   291.39
eigval :      345.39   378.62   392.82   395.76   400.60   419.77
eigval :      420.32   435.57   436.69   484.50   495.02   496.36
eigval :      517.14   517.63   521.71   526.45   540.34   540.54
eigval :      548.26   555.04   576.44   580.67   590.01   594.55
eigval :      643.80   652.90   666.82   672.55   672.88   691.74
eigval :      704.38   705.74   710.33   721.28   754.51   756.17
eigval :      767.71   770.94   779.76   782.18   864.14   870.32
eigval :      871.53   872.81   873.74   890.44   893.63   899.51
eigval :      901.79   905.06   905.84   907.76   908.02   915.21
eigval :      919.81   923.56   926.21   927.39  1010.52  1011.73
eigval :     1070.65  1071.10  1071.25  1074.75  1078.99  1106.74
eigval :     1148.59  1151.39  1152.16  1169.11  1171.03  1178.88
eigval :     1179.22  1183.01  1184.68  1221.62  1222.22  1231.27
eigval :     1232.02  1235.29  1257.23  1290.09  1290.72  1293.92
eigval :     1297.46  1307.75  1341.69  1351.39  1353.96  1355.27
eigval :     1356.50  1360.70  1407.02  1416.39  1424.58  1424.90
eigval :     1453.25  1459.43  1469.23  1470.64  1483.29  1483.33
eigval :     1496.87  1549.71  1576.15  1576.24  1589.10  1589.51
eigval :     1597.24  1597.35  1609.21  1609.38  2355.35  2361.00
eigval :     3075.82  3075.99  3077.99  3078.05  3082.56  3082.62
eigval :     3083.12  3083.20  3089.81  3089.99  3090.83  3091.00
eigval :     3092.07  3097.78  3097.82  3099.92  3100.01  3109.11

   temp. (K)  partition function   enthalpy   heat capacity  entropy
                                   cal/mol     cal/K/mol   cal/K/mol   J/K/mol
 298.15  VIB  0.132E+12            15642.635    101.521     95.202
         ROT  0.142E+08              888.752      2.981     35.709
         INT  0.188E+19            16531.388    104.502    130.911
         TR   0.950E+28             1481.254      4.968     44.237
         TOT                       18012.6418   109.4700   175.1480   732.8193

       T/K    H(0)-H(T)+PV         H(T)/Eh          T*S/Eh         G(T)/Eh
   ------------------------------------------------------------------------
    298.15    0.287050E-01    0.426348E+00    0.832185E-01    0.343129E+00
   ------------------------------------------------------------------------

         :::::::::::::::::::::::::::::::::::::::::::::::::::::
         ::                  THERMODYNAMIC                  ::
         :::::::::::::::::::::::::::::::::::::::::::::::::::::
         :: total free energy         -89.082722643361 Eh   ::
         ::.................................................::
         :: total energy              -89.425851839520 Eh   ::
         :: zero point energy           0.397642702278 Eh   ::
         :: G(RRHO) w/o ZPVE           -0.054513506120 Eh   ::
         :: G(RRHO) contrib.            0.343129196159 Eh   ::
         :::::::::::::::::::::::::::::::::::::::::::::::::::::

           -------------------------------------------------
          | TOTAL ENERGY              -89.425851839520 Eh   |
          | TOTAL ENTHALPY            -88.999504165424 Eh   |
          | TOTAL FREE ENERGY         -89.082722643361 Eh   |
          | GRADIENT NORM               0.000068972193 Eh/α |
          | HOMO-LUMO GAP               2.071984092394 eV   |
           -------------------------------------------------

 * finished run on 2025/07/19 at 22:00:33.048
