   * xtb version 6.7.1 (edcfbbe) compiled by 'albert@albert-system' on 2024-07-22

   ID    Z sym.   atoms
    1    7 N      1, 7, 9, 24
    2    6 C      2-6, 8, 10-23, 25-36
    3    1 H      37-54

          program call               : xtb data2507/toluene/DCzIPN/DCzIPN_toluene_T1_crest.xyz --gfn 2 --uhf 2 --gbsa toluene --ohess vtight --parallel 40 --molden --ceasefiles --namespace data2507/toluene/DCzIPN/DCzIPN_toluene_T1_finalOpt
      * Solvation model:               GBSA
        Solvent                        toluene
        Solvent mass                       9.2140E+01 g/mol
          :  Hamiltonian                  GFN2-xTB          :
 * total energy  :   -89.3392799 Eh     change       -0.2441013E-08 Eh
 * total energy  :   -89.3393364 Eh     change       -0.5641879E-04 Eh
 * total energy  :   -89.3393397 Eh     change       -0.3317751E-05 Eh
 * total energy  :   -89.3393741 Eh     change       -0.3445814E-04 Eh
 * total energy  :   -89.3393825 Eh     change       -0.8387533E-05 Eh
 * total energy  :   -89.3393868 Eh     change       -0.4279853E-05 Eh
 * total energy  :   -89.3393880 Eh     change       -0.1200190E-05 Eh
 * total energy  :   -89.3393959 Eh     change       -0.7854459E-05 Eh
 * total energy  :   -89.3393917 Eh     change        0.4119209E-05 Eh
 * total energy  :   -89.3393976 Eh     change       -0.5811053E-05 Eh
 * total energy  :   -89.3394024 Eh     change       -0.8413502E-06 Eh
 * total energy  :   -89.3394035 Eh     change       -0.1046783E-05 Eh
 * total energy  :   -89.3394049 Eh     change       -0.1456206E-05 Eh
 * total energy  :   -89.3394064 Eh     change       -0.1435820E-05 Eh
 * total energy  :   -89.3394073 Eh     change       -0.9736893E-06 Eh
 * total energy  :   -89.3394080 Eh     change       -0.6307737E-06 Eh
 * total energy  :   -89.3394085 Eh     change       -0.5724320E-06 Eh
 * total energy  :   -89.3394090 Eh     change       -0.4765371E-06 Eh
 * total energy  :   -89.3394090 Eh     change       -0.1075676E-08 Eh
   *** GEOMETRY OPTIMIZATION CONVERGED AFTER 22 ITERATIONS ***

 final structure:
================
54
 xtb: 6.7.1 (edcfbbe)
N           -3.37989390806971       -2.66184702800239       -2.26031793006411
C           -2.40221032714173       -2.22844296769627       -1.81712379664374
C           -1.21456329921892       -1.71593669176433       -1.30495211978957
C            0.00015293622780       -2.24929243970696       -1.71643739404465
C            1.21414375950033       -1.71646669745030       -1.30207615641463
C            2.40327606891306       -2.23000318302489       -1.80963295196758
N            3.38275415586497       -2.66370048018150       -2.24856671870261
C            1.20822896284468       -0.55146738927263       -0.42550789535994
N            2.41805438004668       -0.00408044873869        0.00424848339251
C            3.42006914533457       -0.69155236242701        0.65202481715267
C            3.44525940214284       -2.01519914630118        1.07682557564908
C            4.58375673078331       -2.46153655611035        1.72171411646882
C            5.66348313124919       -1.61306966388566        1.95494103498335
C            5.63018147911892       -0.28261530127985        1.56265947673774
C            4.50168149140690        0.18668572167925        0.91342575913191
C            4.11054058789511        1.47469994738783        0.39887632130424
C            4.72566561105144        2.71420566925942        0.35004623208282
C            4.05208900484065        3.76631859160304       -0.25314493793778
C            2.79002308459755        3.58705928412778       -0.81452438335687
C            2.15643118150036        2.35853048381664       -0.77627891586152
C            2.81604672051620        1.30640295628299       -0.15315574190525
C           -0.00129549711887        0.00313427713725       -0.04549933656152
C           -1.21041943480454       -0.55177661309972       -0.42724330340051
N           -2.42031310011808       -0.00518541656220        0.00281121387019
C           -3.42415201088875       -0.69340314472706        0.64720508395899
C           -3.45423027539142       -2.01981841126918        1.06302279169202
C           -4.59409719237549       -2.46630729776769        1.70542357817283
C           -5.67030728448514       -1.61531529812780        1.94558239222595
C           -5.63187488348973       -0.28218953092937        1.56301026112741
C           -4.50216620173626        0.18715369369271        0.91589703973837
C           -4.10683456271905        1.47721772663557        0.40989007629838
C           -4.71705756213989        2.71951062036744        0.37114933196700
C           -4.04055659136298        3.77315028863869       -0.22605143643652
C           -2.78068385581229        3.59261609966152       -0.79198553639377
C           -2.15191420520760        2.36136486185515       -0.76356339353372
C           -2.81394934809148        1.30770720331999       -0.14553958358552
H            0.00077377347716       -3.09644948898390       -2.38979534651749
H            2.60608163015730       -2.67351344999202        0.91226933881577
H            4.63362162334506       -3.48717380825151        2.05428702765580
H            6.53698582811677       -1.99813779319607        2.45890444865293
H            6.46418607159350        0.37268942641571        1.76078229953128
H            5.71069064911976        2.85559410714236        0.76699089459880
H            4.51618879029834        4.73989426651540       -0.29801637186724
H            2.29852059315824        4.42087645696315       -1.29231540891644
H            1.18739568404142        2.21669851074566       -1.22803587262127
H           -0.00176192529344        0.85674349095009        0.61754364978942
H           -2.61784844713152       -2.68039460689238        0.89347286898555
H           -4.64778790822479       -3.49415372156507        2.03049981426163
H           -6.54491221403734       -2.00049374480675        2.44754657977379
H           -6.46287917704442        0.37516750644008        1.76685702627145
H           -5.70055567372002        2.86193469553079        0.79133633284402
H           -4.50066651130267        4.74895220321207       -0.26280026919174
H           -2.28708876093624        4.42761113406079       -1.26554479835250
H           -1.18470771968002        2.21874588107139       -1.21895787880848

          :  Hamiltonian                  GFN2-xTB          :
         :: gradient norm              0.000066468909 Eh/a0 ::
         :: HOMO-LUMO gap              0.529089173958 eV    ::
         :: SCC energy               -91.057213587050 Eh    ::
         :: -> dispersion             -0.078787656023 Eh    ::
         :: -> Gsolv                  -0.046984070413 Eh    ::
         :: repulsion energy           1.717804563923 Eh    ::

    * Orbital Energies and Occupations

         #    Occupation            Energy/Eh            Energy/eV
      -------------------------------------------------------------
         1        2.0000           -0.6970178             -18.9668
       ...           ...                  ...                  ...
        72        2.0000           -0.4348509             -11.8329
        73        2.0000           -0.4335591             -11.7977
        74        2.0000           -0.4274610             -11.6318
        75        2.0000           -0.4230113             -11.5107
        76        2.0000           -0.4229998             -11.5104
        77        2.0000           -0.4203494             -11.4383
        78        2.0000           -0.4163049             -11.3282
        79        2.0000           -0.4120082             -11.2113
        80        2.0000           -0.3967634             -10.7965
        81        2.0000           -0.3967575             -10.7963
        82        1.8906           -0.3838658             -10.4455
        83        1.1094           -0.3798811             -10.3371
        84        1.0000           -0.2854311              -7.7670 (HOMO)
        85        0.0000           -0.2659875              -7.2379 (LUMO)
        86        0.0000           -0.2613878              -7.1127
        87        0.0000           -0.2610502              -7.1035
        88                         -0.2413264              -6.5668
        89                         -0.2413024              -6.5662
        90                         -0.2203898              -5.9971
        91                         -0.2115007              -5.7552
        92                         -0.2105474              -5.7293
        93                         -0.2041247              -5.5545
        94                         -0.2032427              -5.5305
        95                         -0.1985350              -5.4024
       ...                                ...                  ...
       162                          1.1509785              31.3197
      -------------------------------------------------------------
                  HL-Gap            0.0194436 Eh            0.5291 eV

     #   Z          covCN         q      C6AA      α(0)
     1   7 N        0.911    -0.326    28.391     7.706
     2   6 C        1.912     0.105    28.495     8.621
     3   6 C        2.961    -0.014    28.368     8.736
     4   6 C        2.934    -0.014    28.373     8.736
     5   6 C        2.961    -0.014    28.369     8.736
     6   6 C        1.911     0.105    28.495     8.621
     7   7 N        0.911    -0.326    28.393     7.707
     8   6 C        2.908     0.020    27.551     8.607
     9   7 N        2.799    -0.004    21.340     6.861
    10   6 C        3.076     0.049    26.810     8.489
    11   6 C        2.909    -0.033    28.815     8.802
    12   6 C        2.922    -0.028    28.709     8.787
    13   6 C        2.920    -0.027    28.680     8.782
    14   6 C        2.911    -0.026    28.649     8.777
    15   6 C        3.063    -0.009    28.184     8.706
    16   6 C        3.063    -0.009    28.182     8.705
    17   6 C        2.911    -0.026    28.646     8.776
    18   6 C        2.920    -0.029    28.717     8.788
    19   6 C        2.922    -0.030    28.748     8.793
    20   6 C        2.909    -0.037    28.932     8.820
    21   6 C        3.075     0.046    26.882     8.501
    22   6 C        2.911    -0.051    29.255     8.869
    23   6 C        2.908     0.020    27.552     8.607
    24   7 N        2.799    -0.004    21.336     6.860
    25   6 C        3.076     0.049    26.813     8.490
    26   6 C        2.909    -0.033    28.814     8.802
    27   6 C        2.922    -0.028    28.710     8.787
    28   6 C        2.920    -0.027    28.680     8.782
    29   6 C        2.911    -0.026    28.649     8.777
    30   6 C        3.063    -0.009    28.184     8.706
    31   6 C        3.063    -0.009    28.182     8.705
    32   6 C        2.911    -0.026    28.646     8.776
    33   6 C        2.920    -0.029    28.717     8.788
    34   6 C        2.922    -0.030    28.748     8.793
    35   6 C        2.909    -0.037    28.931     8.820
    36   6 C        3.075     0.046    26.883     8.501
    37   1 H        0.925     0.032     2.553     2.499
    38   1 H        0.926     0.036     2.503     2.474
    39   1 H        0.926     0.046     2.367     2.406
    40   1 H        0.926     0.050     2.321     2.382
    41   1 H        0.926     0.052     2.298     2.370
    42   1 H        0.926     0.050     2.320     2.382
    43   1 H        0.926     0.049     2.337     2.391
    44   1 H        0.926     0.048     2.345     2.395
    45   1 H        0.926     0.041     2.437     2.441
    46   1 H        0.926     0.045     2.377     2.411
    47   1 H        0.926     0.036     2.503     2.474
    48   1 H        0.926     0.046     2.367     2.406
    49   1 H        0.926     0.050     2.321     2.383
    50   1 H        0.926     0.052     2.298     2.370
    51   1 H        0.926     0.050     2.320     2.382
    52   1 H        0.926     0.049     2.337     2.391
    53   1 H        0.926     0.048     2.345     2.395
    54   1 H        0.926     0.041     2.436     2.441

molecular dipole:
                 x           y           z       tot (Debye)
 q only:       -0.001       3.007       2.589
   full:       -0.002       3.084       2.710      10.434

 projected vibrational frequencies (cm⁻¹)
eigval :       -0.00    -0.00    -0.00     0.00     0.00     0.00
eigval :       14.16    24.70    25.91    39.96    46.59    59.42
eigval :       85.11    98.98   101.46   107.55   120.00   122.74
eigval :      140.37   141.92   144.90   180.37   192.22   245.42
eigval :      248.47   263.96   267.15   269.62   275.57   287.40
eigval :      354.95   363.17   373.20   387.09   392.55   412.32
eigval :      413.87   423.49   426.27   429.78   432.86   487.82
eigval :      509.71   510.46   523.14   526.82   528.71   529.27
eigval :      536.42   544.36   569.73   571.43   581.34   586.50
eigval :      595.52   619.02   642.12   657.15   668.74   669.50
eigval :      691.40   704.65   706.03   714.87   752.56   752.95
eigval :      759.57   763.26   767.40   770.99   856.33   858.23
eigval :      859.53   860.63   865.21   878.21   886.32   893.34
eigval :      894.85   897.37   898.64   899.63   900.37   905.10
eigval :      911.30   915.75   918.48   920.94  1006.35  1006.57
eigval :     1059.81  1062.90  1063.39  1067.02  1070.78  1100.01
eigval :     1124.42  1128.20  1137.99  1158.53  1162.66  1169.85
eigval :     1170.91  1171.44  1177.97  1183.41  1214.95  1216.82
eigval :     1220.50  1220.73  1258.77  1260.55  1263.20  1281.10
eigval :     1287.35  1300.96  1317.23  1317.41  1321.91  1357.67
eigval :     1360.84  1365.12  1368.35  1394.03  1397.14  1397.18
eigval :     1410.95  1414.13  1446.49  1448.06  1452.97  1457.33
eigval :     1473.99  1475.22  1553.56  1554.06  1560.83  1561.20
eigval :     1564.00  1567.38  1587.29  1592.15  2214.09  2291.77
eigval :     3067.62  3080.85  3084.98  3085.01  3085.43  3085.60
eigval :     3088.88  3088.91  3091.37  3091.75  3095.83  3095.90
eigval :     3098.47  3098.56  3102.19  3102.44  3103.51  3104.37

   temp. (K)  partition function   enthalpy   heat capacity  entropy
                                   cal/mol     cal/K/mol   cal/K/mol   J/K/mol
 298.15  VIB  0.307E+12            15992.224    103.231     97.638
         ROT  0.286E+08              888.752      2.981     37.101
         INT  0.878E+19            16880.976    106.212    134.739
         TR   0.950E+28             1481.254      4.968     44.237
         TOT                       18362.2298   111.1798   178.9762   748.8363

       T/K    H(0)-H(T)+PV         H(T)/Eh          T*S/Eh         G(T)/Eh
   ------------------------------------------------------------------------
    298.15    0.292621E-01    0.422466E+00    0.850374E-01    0.337428E+00
   ------------------------------------------------------------------------

         :::::::::::::::::::::::::::::::::::::::::::::::::::::
         ::                  THERMODYNAMIC                  ::
         :::::::::::::::::::::::::::::::::::::::::::::::::::::
         :: total free energy         -89.001980785276 Eh   ::
         ::.................................................::
         :: total energy              -89.339409023707 Eh   ::
         :: zero point energy           0.393203516223 Eh   ::
         :: G(RRHO) w/o ZPVE           -0.055775277791 Eh   ::
         :: G(RRHO) contrib.            0.337428238432 Eh   ::
         :::::::::::::::::::::::::::::::::::::::::::::::::::::

           -------------------------------------------------
          | TOTAL ENERGY              -89.339409023707 Eh   |
          | TOTAL ENTHALPY            -88.916943431637 Eh   |
          | TOTAL FREE ENERGY         -89.001980785276 Eh   |
          | GRADIENT NORM               0.000066158031 Eh/α |
          | HOMO-LUMO GAP               0.529087162313 eV   |
           -------------------------------------------------

 * finished run on 2025/07/19 at 22:05:22.969
