   * xtb version 6.7.1 (edcfbbe) compiled by 'albert@albert-system' on 2024-07-22

   ID    Z sym.   atoms
    1    7 N      1, 7, 9, 24
    2    6 C      2-6, 8, 10-23, 25-36
    3    1 H      37-54

          program call               : xtb data2507/toluene/DCzIPN/DCzIPN_toluene_S0_crest.xyz --gfn 2 --gbsa toluene --ohess vtight --parallel 40 --molden --ceasefiles --namespace data2507/toluene/DCzIPN/DCzIPN_toluene_S0_finalOpt
      * Solvation model:               GBSA
        Solvent                        toluene
        Solvent mass                       9.2140E+01 g/mol
          :  Hamiltonian                  GFN2-xTB          :
 * total energy  :   -89.4257023 Eh     change       -0.1315115E-08 Eh
 * total energy  :   -89.4257373 Eh     change       -0.3504006E-04 Eh
 * total energy  :   -89.4257454 Eh     change       -0.8094092E-05 Eh
 * total energy  :   -89.4257534 Eh     change       -0.7951478E-05 Eh
 * total energy  :   -89.4257589 Eh     change       -0.5489366E-05 Eh
 * total energy  :   -89.4257617 Eh     change       -0.2817918E-05 Eh
 * total energy  :   -89.4257642 Eh     change       -0.2529138E-05 Eh
 * total energy  :   -89.4257667 Eh     change       -0.2450312E-05 Eh
 * total energy  :   -89.4257677 Eh     change       -0.1015990E-05 Eh
 * total energy  :   -89.4257690 Eh     change       -0.1313405E-05 Eh
 * total energy  :   -89.4257719 Eh     change       -0.6840585E-06 Eh
 * total energy  :   -89.4257724 Eh     change       -0.4479402E-06 Eh
 * total energy  :   -89.4257726 Eh     change       -0.2901771E-06 Eh
 * total energy  :   -89.4257729 Eh     change       -0.2511891E-06 Eh
 * total energy  :   -89.4257732 Eh     change       -0.2825956E-06 Eh
 * total energy  :   -89.4257735 Eh     change       -0.2900211E-06 Eh
 * total energy  :   -89.4257737 Eh     change       -0.2673721E-06 Eh
 * total energy  :   -89.4257740 Eh     change       -0.2588777E-06 Eh
 * total energy  :   -89.4257740 Eh     change       -0.3193307E-08 Eh
   *** GEOMETRY OPTIMIZATION CONVERGED AFTER 22 ITERATIONS ***

 final structure:
================
54
 xtb: 6.7.1 (edcfbbe)
N           -3.35834475564994       -2.77911480915887       -2.17303636841545
C           -2.40680972717535       -2.32182329643715       -1.72326248186868
C           -1.20710205199143       -1.75774036947891       -1.23661771671370
C            0.00197226956959       -2.32894759476579       -1.61873785794922
C            1.20991890746335       -1.75561064644145       -1.23624813886083
C            2.41056505956529       -2.31756748832230       -1.72301879218457
N            3.36268405296134       -2.77327278645647       -2.17323279604591
C            1.21423798632440       -0.58267281755383       -0.44774001357851
N            2.40865475294344       -0.01922278739638       -0.02431562238528
C            3.44748603966083       -0.69199496266462        0.60802048664566
C            3.51489954955867       -2.00813986876990        1.03646439483409
C            4.66394233591057       -2.41523763247784        1.68990315029151
C            5.71437535791813       -1.53383138792596        1.92909280871698
C            5.63395260147769       -0.21086397832274        1.53973959372231
C            4.49028933929928        0.21904781002428        0.88066895386341
C            4.06272924743557        1.49981643443458        0.38314522561592
C            4.65912772546143        2.75297608580402        0.34109715469948
C            3.96749169703349        3.79626765289212       -0.24417144665077
C            2.70667591079783        3.59697475759495       -0.79943875198732
C            2.09588058548883        2.35632561847424       -0.77091294224762
C            2.77213886991630        1.31468568316111       -0.15691797191886
C           -0.00025775411246       -0.01092742538233       -0.08297364563290
C           -1.21359219206316       -0.58465790679039       -0.44840420256181
N           -2.40909320849419       -0.02272845242635       -0.02583815137567
C           -3.44648360283398       -0.69601919403413        0.60822390466926
C           -3.51207221985821       -2.01186483000507        1.03785350382904
C           -4.66000622806387       -2.41958332379757        1.69285179270412
C           -5.71110480006843       -1.53905506670110        1.93237711949047
C           -5.63259869570382       -0.21641069076304        1.54153847160699
C           -4.49010596942932        0.21412340504566        0.88084195458138
C           -4.06464768763052        1.49477847321286        0.38122344877545
C           -4.66259696747995        2.74716270390239        0.33792309855733
C           -3.97290370654144        3.79036614139964       -0.24979246156141
C           -2.71248685891339        3.59177307614729       -0.80623955105533
C           -2.10010521351354        2.35195098603454       -0.77637822579125
C           -2.77439628099186        1.31048541341344       -0.15992526417266
H            0.00286725190451       -3.21500669492165       -2.23697534612634
H            2.70290565919852       -2.70181757936112        0.87653914139726
H            4.74347368951173       -3.43900079618587        2.02362807072400
H            6.59723274249853       -1.89075403508365        2.43781132126120
H            6.43750909514076        0.47913453812058        1.74675850802289
H            5.64566041287263        2.90228883542051        0.75217754207925
H            4.41265829178441        4.77912867405945       -0.28388852188984
H            2.19562355772451        4.42486811865261       -1.26783455699050
H            1.13000752818859        2.20868320588747       -1.22789402181989
H           -0.00122494714222        0.86676537841344        0.54551935630749
H           -2.69955583162675       -2.70483698520191        0.87752726125221
H           -4.73812980437149       -3.44312791941740        2.02758015600961
H           -6.59299531762449       -1.89641808341458        2.44246293513859
H           -6.43670811771579        0.47289801601055        1.74871020392861
H           -5.64886869023809        2.89594078956163        0.74982251035960
H           -4.41935179716627        4.77260048614730       -0.29059076229243
H           -2.20306209030667        4.41954214358769       -1.27662454011136
H           -1.13461484420363        2.20462400905589       -1.23431392909579

          :  Hamiltonian                  GFN2-xTB          :
         :: gradient norm              0.000103982097 Eh/a0 ::
         :: HOMO-LUMO gap              2.107612443094 eV    ::
         :: SCC energy               -91.166091600329 Eh    ::
         :: -> dispersion             -0.079208137555 Eh    ::
         :: -> Gsolv                  -0.040682206692 Eh    ::
         :: repulsion energy           1.740317597061 Eh    ::

    * Orbital Energies and Occupations

         #    Occupation            Energy/Eh            Energy/eV
      -------------------------------------------------------------
         1        2.0000           -0.7080877             -19.2680
       ...           ...                  ...                  ...
        71        2.0000           -0.4370368             -11.8924
        72        2.0000           -0.4338069             -11.8045
        73        2.0000           -0.4330623             -11.7842
        74        2.0000           -0.4312233             -11.7342
        75        2.0000           -0.4293340             -11.6828
        76        2.0000           -0.4289740             -11.6730
        77        2.0000           -0.4271299             -11.6228
        78        2.0000           -0.4165297             -11.3344
        79        2.0000           -0.4164450             -11.3320
        80        2.0000           -0.3901166             -10.6156
        81        2.0000           -0.3901051             -10.6153
        82        2.0000           -0.3803762             -10.3506
        83        2.0000           -0.3803521             -10.3499 (HOMO)
        84                         -0.3028988              -8.2423 (LUMO)
        85                         -0.2899850              -7.8909
        86                         -0.2563449              -6.9755
        87                         -0.2557367              -6.9589
        88                         -0.2339874              -6.3671
        89                         -0.2333355              -6.3494
        90                         -0.2319846              -6.3126
        91                         -0.2296373              -6.2487
        92                         -0.2226086              -6.0575
        93                         -0.2050564              -5.5799
        94                         -0.2019933              -5.4965
       ...                                ...                  ...
       162                          1.1454714              31.1699
      -------------------------------------------------------------
                  HL-Gap            0.0774533 Eh            2.1076 eV

     #   Z          covCN         q      C6AA      α(0)
     1   7 N        0.911    -0.256    26.642     7.465
     2   6 C        1.912     0.124    28.067     8.556
     3   6 C        2.971    -0.002    28.064     8.689
     4   6 C        2.938    -0.011    28.293     8.724
     5   6 C        2.971    -0.002    28.064     8.689
     6   6 C        1.912     0.124    28.067     8.556
     7   7 N        0.911    -0.256    26.643     7.465
     8   6 C        2.912     0.081    26.196     8.393
     9   7 N        2.801    -0.042    22.059     6.976
    10   6 C        3.064     0.046    26.900     8.505
    11   6 C        2.910    -0.046    29.151     8.853
    12   6 C        2.924    -0.030    28.760     8.795
    13   6 C        2.920    -0.037    28.913     8.818
    14   6 C        2.913    -0.031    28.783     8.797
    15   6 C        3.065    -0.013    28.266     8.718
    16   6 C        3.065    -0.012    28.257     8.717
    17   6 C        2.913    -0.031    28.774     8.796
    18   6 C        2.920    -0.037    28.927     8.820
    19   6 C        2.924    -0.031    28.785     8.798
    20   6 C        2.910    -0.049    29.225     8.865
    21   6 C        3.064     0.045    26.922     8.508
    22   6 C        2.924    -0.057    29.406     8.893
    23   6 C        2.912     0.081    26.196     8.393
    24   7 N        2.801    -0.042    22.060     6.976
    25   6 C        3.064     0.046    26.900     8.505
    26   6 C        2.910    -0.046    29.151     8.853
    27   6 C        2.924    -0.030    28.760     8.795
    28   6 C        2.920    -0.037    28.914     8.818
    29   6 C        2.913    -0.031    28.783     8.797
    30   6 C        3.065    -0.013    28.266     8.718
    31   6 C        3.065    -0.012    28.257     8.717
    32   6 C        2.913    -0.031    28.774     8.796
    33   6 C        2.920    -0.037    28.928     8.820
    34   6 C        2.924    -0.031    28.785     8.798
    35   6 C        2.910    -0.049    29.225     8.865
    36   6 C        3.064     0.045    26.922     8.508
    37   1 H        0.926     0.059     2.206     2.323
    38   1 H        0.926     0.023     2.687     2.563
    39   1 H        0.926     0.039     2.468     2.457
    40   1 H        0.926     0.039     2.457     2.451
    41   1 H        0.926     0.042     2.420     2.433
    42   1 H        0.926     0.041     2.438     2.442
    43   1 H        0.926     0.038     2.471     2.458
    44   1 H        0.926     0.040     2.453     2.449
    45   1 H        0.926     0.030     2.585     2.514
    46   1 H        0.926     0.070     2.081     2.256
    47   1 H        0.926     0.023     2.687     2.563
    48   1 H        0.926     0.039     2.469     2.457
    49   1 H        0.926     0.039     2.457     2.451
    50   1 H        0.926     0.042     2.420     2.433
    51   1 H        0.926     0.041     2.438     2.442
    52   1 H        0.926     0.038     2.471     2.458
    53   1 H        0.926     0.040     2.453     2.449
    54   1 H        0.926     0.030     2.586     2.515

molecular dipole:
                 x           y           z       tot (Debye)
 q only:        0.001       1.518       1.218
   full:        0.001       1.647       1.409       5.508

 projected vibrational frequencies (cm⁻¹)
eigval :       -0.00    -0.00    -0.00     0.00     0.00     0.00
eigval :       18.93    27.72    31.40    45.70    47.50    65.91
eigval :       91.22   102.04   106.78   111.39   125.67   126.84
eigval :      147.06   150.18   152.14   185.73   201.81   254.13
eigval :      254.90   270.09   272.12   277.70   281.35   289.75
eigval :      347.65   378.09   395.99   396.31   401.06   419.15
eigval :      420.82   435.00   438.00   488.63   493.36   497.58
eigval :      517.67   518.13   522.11   526.01   537.38   539.52
eigval :      540.39   568.99   576.16   579.32   589.53   596.81
eigval :      637.97   658.67   667.18   672.32   672.44   689.59
eigval :      705.26   706.61   713.18   721.24   755.49   755.74
eigval :      765.52   767.91   777.27   780.59   862.48   865.03
eigval :      871.90   872.19   875.74   892.03   894.16   899.68
eigval :      902.23   902.47   903.42   908.28   910.37   910.85
eigval :      919.01   919.13   922.93   926.77  1011.39  1012.01
eigval :     1068.04  1071.29  1072.09  1075.96  1077.80  1107.44
eigval :     1148.26  1149.55  1152.54  1169.36  1171.24  1176.65
eigval :     1179.44  1182.20  1185.98  1222.42  1222.82  1228.95
eigval :     1232.39  1235.40  1257.12  1289.83  1290.24  1293.87
eigval :     1297.69  1307.44  1341.61  1351.93  1354.53  1355.85
eigval :     1356.90  1361.06  1407.71  1416.14  1424.45  1425.19
eigval :     1452.15  1458.04  1469.34  1471.15  1483.32  1483.59
eigval :     1497.03  1548.99  1576.29  1576.57  1589.62  1590.21
eigval :     1597.88  1598.16  1609.70  1610.06  2354.88  2360.54
eigval :     3076.55  3076.67  3080.43  3080.70  3082.68  3082.73
eigval :     3086.42  3086.90  3090.26  3090.29  3092.31  3094.11
eigval :     3094.35  3098.49  3098.54  3100.77  3100.98  3105.42

   temp. (K)  partition function   enthalpy   heat capacity  entropy
                                   cal/mol     cal/K/mol   cal/K/mol   J/K/mol
 298.15  VIB  0.709E+11            15589.406    101.755     94.616
         ROT  0.285E+08              888.752      2.981     37.092
         INT  0.202E+19            16478.158    104.736    131.709
         TR   0.950E+28             1481.254      4.968     44.237
         TOT                       17959.4118   109.7042   175.9457   736.1568

       T/K    H(0)-H(T)+PV         H(T)/Eh          T*S/Eh         G(T)/Eh
   ------------------------------------------------------------------------
    298.15    0.286201E-01    0.426384E+00    0.835975E-01    0.342787E+00
   ------------------------------------------------------------------------

         :::::::::::::::::::::::::::::::::::::::::::::::::::::
         ::                  THERMODYNAMIC                  ::
         :::::::::::::::::::::::::::::::::::::::::::::::::::::
         :: total free energy         -89.082987160255 Eh   ::
         ::.................................................::
         :: total energy              -89.425774002145 Eh   ::
         :: zero point energy           0.397764180854 Eh   ::
         :: G(RRHO) w/o ZPVE           -0.054977338963 Eh   ::
         :: G(RRHO) contrib.            0.342786841891 Eh   ::
         :::::::::::::::::::::::::::::::::::::::::::::::::::::

           -------------------------------------------------
          | TOTAL ENERGY              -89.425774002145 Eh   |
          | TOTAL ENTHALPY            -88.999389676831 Eh   |
          | TOTAL FREE ENERGY         -89.082987160255 Eh   |
          | GRADIENT NORM               0.000103997982 Eh/α |
          | HOMO-LUMO GAP               2.107612228985 eV   |
           -------------------------------------------------

 * finished run on 2025/07/19 at 22:02:37.954
