   * xtb version 6.7.1 (edcfbbe) compiled by 'albert@albert-system' on 2024-07-22

   ID    Z sym.   atoms
    1    7 N      1, 7, 9, 24
    2    6 C      2-6, 8, 10-23, 25-36
    3    1 H      37-54

          program call               : xtb data2507/toluene/DCzIPN/DCzIPN_toluene_S0_finalOpt.xtbopt.xyz --gfn 2 --uhf 2 --gbsa toluene --ohess vtight --parallel 40 --molden --ceasefiles --namespace data2507/toluene/DCzIPN/DCzIPN_toluene_T1_preOpt
      * Solvation model:               GBSA
        Solvent                        toluene
        Solvent mass                       9.2140E+01 g/mol
          :  Hamiltonian                  GFN2-xTB          :
 * total energy  :   -89.3346423 Eh     change       -0.7030593E-08 Eh
 * total energy  :   -89.3383046 Eh     change       -0.3662228E-02 Eh
 * total energy  :   -89.3391093 Eh     change       -0.8047796E-03 Eh
 * total energy  :   -89.3391980 Eh     change       -0.8863827E-04 Eh
 * total energy  :   -89.3392589 Eh     change       -0.6089461E-04 Eh
 * total energy  :   -89.3392979 Eh     change       -0.3904184E-04 Eh
 * total energy  :   -89.3393289 Eh     change       -0.3098165E-04 Eh
 * total energy  :   -89.3393497 Eh     change       -0.2081694E-04 Eh
 * total energy  :   -89.3393551 Eh     change       -0.5372214E-05 Eh
 * total energy  :   -89.3393667 Eh     change       -0.1155631E-04 Eh
 * total energy  :   -89.3394110 Eh     change       -0.4488058E-06 Eh
 * total energy  :   -89.3394112 Eh     change       -0.2712301E-06 Eh
 * total energy  :   -89.3394115 Eh     change       -0.2645654E-06 Eh
 * total energy  :   -89.3394118 Eh     change       -0.2994628E-06 Eh
 * total energy  :   -89.3394121 Eh     change       -0.3127218E-06 Eh
 * total energy  :   -89.3394124 Eh     change       -0.2398417E-06 Eh
 * total energy  :   -89.3394125 Eh     change       -0.1476631E-06 Eh
 * total energy  :   -89.3394126 Eh     change       -0.1104166E-06 Eh
 * total energy  :   -89.3394127 Eh     change       -0.8217160E-07 Eh
   *** GEOMETRY OPTIMIZATION CONVERGED AFTER 37 ITERATIONS ***

 final structure:
================
54
 xtb: 6.7.1 (edcfbbe)
N           -3.38119228360468       -2.68240079120253       -2.22427537790712
C           -2.40152519615958       -2.24495611726770       -1.78951616294303
C           -1.21305648318418       -1.72622097870422       -1.28570197516639
C            0.00168904816051       -2.26279811640448       -1.69290135166932
C            1.21563675151930       -1.72464645037781       -1.28540605595528
C            2.40486127011802       -2.24193605872128       -1.78892130850453
N            3.38511787578927       -2.67818988338785       -2.22356188944671
C            1.20971500385786       -0.55079872485372       -0.42072231978176
N            2.41917269481811        0.00209566067813        0.00291422050437
C            3.42179442115818       -0.67676156115501        0.65886239430009
C            3.44945400598670       -1.99601247988152        1.09700946440458
C            4.58773988874689       -2.43299682273841        1.74869135306376
C            5.66495400341812       -1.57959793433511        1.97549653991967
C            5.62946857965713       -0.25345625096534        1.56908958747749
C            4.50111568846482        0.20646915367885        0.91295255904344
C            4.10806360702161        1.48835384441098        0.38478529308938
C            4.72065276944023        2.72860554205325        0.32435666770726
C            4.04556422338970        3.77324217286847       -0.29004208759947
C            2.78452590150656        3.58573308036306       -0.85105192848213
C            2.15350785360001        2.35628812601282       -0.80140392510956
C            2.81461668081899        1.31177981224815       -0.16709400557769
C            0.00002412723271        0.00721840859644       -0.04595399124619
C           -1.20884595021292       -0.55236073502403       -0.42102264433547
N           -2.41911832780241       -0.00103210003402        0.00235177939598
C           -3.42090143005418       -0.68112381843885        0.65830544567261
C           -3.44689411801967       -2.00038710561978        1.09650999772968
C           -4.58462636878258       -2.43877833246734        1.74821350927331
C           -5.66292447123734       -1.58673484839154        1.97495951444840
C           -5.62913204085249       -0.26058059449009        1.56845197207277
C           -4.50135749495792        0.20074629528186        0.91229701360335
C           -4.10992433855147        1.48309119238980        0.38403948762777
C           -4.72407601316983        2.72256533295663        0.32349955236870
C           -4.05029272715892        3.76800484463745       -0.29096562495280
C           -2.78899929210674        3.58205288686066       -0.85192334838648
C           -2.15642454758670        2.35341607477207       -0.80215395294251
C           -2.81623329823340        1.30812643239891       -0.16777873605204
H            0.00233179612258       -3.11717000292745       -2.35710447884585
H            2.61229140268797       -2.65809421946661        0.93741377537593
H            4.63931960956369       -3.45497144297920        2.09209264862883
H            6.53822059930445       -1.95730482896297        2.48539818339402
H            6.46148367379772        0.40590049961762        1.76205999080072
H            5.70488452248592        2.87620248209953        0.74101793207492
H            4.50765448122680        4.74730607499258       -0.34411266846912
H            2.29174517577067        4.41368905364169       -1.33761684161431
H            1.18529569779777        2.20802123292263       -1.25284699668892
H           -0.00062184295076        0.86803918273302        0.60770207347249
H           -2.60889852310994       -2.66141655131526        0.93692343251811
H           -4.63491974926185       -3.46080350582580        2.09165465568985
H           -6.53571868516412       -1.96552042547196        2.48487248972801
H           -6.46200709936650        0.39770619013955        1.76137098913199
H           -5.70849353830645        2.86896300555400        0.74014403990239
H           -4.51360424924634        4.74148565060980       -0.34509390250671
H           -2.29726101216217        4.41060536728068       -1.33853019932759
H           -1.18802344197996        2.20631671117683       -1.25357629028792

          :  Hamiltonian                  GFN2-xTB          :
         :: gradient norm              0.000048008159 Eh/a0 ::
         :: HOMO-LUMO gap              0.529297020109 eV    ::
         :: SCC energy               -91.057238870678 Eh    ::
         :: -> dispersion             -0.078778912246 Eh    ::
         :: -> Gsolv                  -0.047001114019 Eh    ::
         :: repulsion energy           1.717826167714 Eh    ::

    * Orbital Energies and Occupations

         #    Occupation            Energy/Eh            Energy/eV
      -------------------------------------------------------------
         1        2.0000           -0.6970121             -18.9667
       ...           ...                  ...                  ...
        72        2.0000           -0.4348548             -11.8330
        73        2.0000           -0.4335672             -11.7980
        74        2.0000           -0.4274328             -11.6310
        75        2.0000           -0.4230192             -11.5109
        76        2.0000           -0.4230135             -11.5108
        77        2.0000           -0.4203352             -11.4379
        78        2.0000           -0.4162666             -11.3272
        79        2.0000           -0.4119592             -11.2100
        80        2.0000           -0.3967734             -10.7968
        81        2.0000           -0.3967674             -10.7966
        82        1.8907           -0.3838753             -10.4458
        83        1.1093           -0.3798887             -10.3373
        84        1.0000           -0.2854092              -7.7664 (HOMO)
        85        0.0000           -0.2659579              -7.2371 (LUMO)
        86        0.0000           -0.2613977              -7.1130
        87        0.0000           -0.2610592              -7.1038
        88                         -0.2413318              -6.5670
        89                         -0.2413112              -6.5664
        90                         -0.2203500              -5.9960
        91                         -0.2115263              -5.7559
        92                         -0.2104938              -5.7278
        93                         -0.2041255              -5.5545
        94                         -0.2032598              -5.5310
        95                         -0.1985483              -5.4028
       ...                                ...                  ...
       162                          1.1510688              31.3222
      -------------------------------------------------------------
                  HL-Gap            0.0194513 Eh            0.5293 eV

     #   Z          covCN         q      C6AA      α(0)
     1   7 N        0.911    -0.326    28.394     7.707
     2   6 C        1.911     0.105    28.496     8.621
     3   6 C        2.961    -0.014    28.369     8.736
     4   6 C        2.933    -0.014    28.373     8.736
     5   6 C        2.961    -0.014    28.369     8.736
     6   6 C        1.911     0.105    28.496     8.621
     7   7 N        0.911    -0.326    28.394     7.707
     8   6 C        2.908     0.020    27.552     8.607
     9   7 N        2.799    -0.004    21.339     6.861
    10   6 C        3.076     0.049    26.811     8.489
    11   6 C        2.909    -0.033    28.815     8.802
    12   6 C        2.922    -0.028    28.710     8.787
    13   6 C        2.920    -0.027    28.680     8.782
    14   6 C        2.911    -0.026    28.649     8.777
    15   6 C        3.063    -0.009    28.184     8.706
    16   6 C        3.063    -0.009    28.182     8.705
    17   6 C        2.911    -0.026    28.646     8.776
    18   6 C        2.920    -0.029    28.717     8.788
    19   6 C        2.922    -0.030    28.748     8.793
    20   6 C        2.909    -0.037    28.931     8.820
    21   6 C        3.075     0.046    26.882     8.501
    22   6 C        2.911    -0.051    29.254     8.869
    23   6 C        2.908     0.020    27.552     8.607
    24   7 N        2.799    -0.004    21.339     6.861
    25   6 C        3.076     0.049    26.811     8.489
    26   6 C        2.909    -0.033    28.815     8.802
    27   6 C        2.922    -0.028    28.710     8.787
    28   6 C        2.920    -0.027    28.680     8.782
    29   6 C        2.911    -0.026    28.649     8.777
    30   6 C        3.063    -0.009    28.184     8.706
    31   6 C        3.063    -0.009    28.182     8.705
    32   6 C        2.911    -0.026    28.646     8.776
    33   6 C        2.920    -0.029    28.717     8.788
    34   6 C        2.922    -0.030    28.748     8.793
    35   6 C        2.909    -0.037    28.931     8.820
    36   6 C        3.075     0.046    26.882     8.501
    37   1 H        0.925     0.032     2.554     2.499
    38   1 H        0.926     0.036     2.502     2.474
    39   1 H        0.926     0.046     2.367     2.406
    40   1 H        0.926     0.050     2.321     2.382
    41   1 H        0.926     0.052     2.298     2.370
    42   1 H        0.926     0.050     2.320     2.382
    43   1 H        0.926     0.049     2.337     2.391
    44   1 H        0.926     0.048     2.345     2.395
    45   1 H        0.926     0.041     2.437     2.441
    46   1 H        0.926     0.045     2.378     2.412
    47   1 H        0.926     0.036     2.502     2.474
    48   1 H        0.926     0.046     2.367     2.406
    49   1 H        0.926     0.050     2.321     2.382
    50   1 H        0.926     0.052     2.298     2.370
    51   1 H        0.926     0.050     2.320     2.382
    52   1 H        0.926     0.049     2.337     2.391
    53   1 H        0.926     0.048     2.345     2.395
    54   1 H        0.926     0.041     2.437     2.441

molecular dipole:
                 x           y           z       tot (Debye)
 q only:       -0.002       3.036       2.555
   full:       -0.002       3.113       2.674      10.432

 projected vibrational frequencies (cm⁻¹)
eigval :       -0.00    -0.00     0.00     0.00     0.00     0.00
eigval :       12.46    24.07    27.65    40.19    47.13    58.82
eigval :       85.02    98.43   100.39   107.17   119.70   122.56
eigval :      140.80   141.50   143.98   180.00   192.05   245.74
eigval :      248.49   263.54   266.43   269.32   275.16   287.40
eigval :      355.06   363.07   373.41   387.34   393.18   412.07
eigval :      413.41   423.62   426.44   429.64   432.76   487.54
eigval :      509.62   510.38   523.22   526.76   528.72   529.30
eigval :      536.33   544.34   569.69   571.33   581.41   586.46
eigval :      595.45   618.78   642.16   657.07   668.96   669.64
eigval :      691.37   704.93   706.34   714.83   752.64   753.04
eigval :      758.58   760.00   764.76   768.62   855.39   857.19
eigval :      859.28   859.48   864.03   878.21   885.34   893.23
eigval :      894.00   897.52   897.91   898.70   899.01   903.32
eigval :      911.22   911.51   913.54   915.99  1006.36  1006.58
eigval :     1059.70  1062.76  1063.19  1066.73  1070.69  1099.90
eigval :     1124.04  1127.81  1137.93  1158.15  1162.27  1169.37
eigval :     1170.60  1171.03  1177.40  1183.82  1214.62  1216.67
eigval :     1220.11  1220.58  1258.50  1260.09  1262.83  1280.87
eigval :     1287.22  1300.85  1317.17  1317.35  1322.02  1357.67
eigval :     1360.79  1365.07  1368.19  1394.06  1397.01  1397.09
eigval :     1410.82  1414.08  1446.39  1448.11  1452.81  1457.27
eigval :     1473.84  1475.08  1553.58  1554.07  1560.83  1561.16
eigval :     1563.86  1567.33  1587.31  1592.17  2214.13  2291.86
eigval :     3067.43  3081.12  3085.02  3085.08  3085.32  3085.49
eigval :     3088.98  3088.99  3091.27  3091.67  3096.01  3096.02
eigval :     3098.45  3098.51  3102.31  3102.52  3103.43  3104.30

   temp. (K)  partition function   enthalpy   heat capacity  entropy
                                   cal/mol     cal/K/mol   cal/K/mol   J/K/mol
 298.15  VIB  0.343E+12            16003.997    103.304     97.840
         ROT  0.286E+08              888.752      2.981     37.100
         INT  0.981E+19            16892.750    106.285    134.941
         TR   0.950E+28             1481.254      4.968     44.237
         TOT                       18374.0035   111.2531   179.1777   749.6797

       T/K    H(0)-H(T)+PV         H(T)/Eh          T*S/Eh         G(T)/Eh
   ------------------------------------------------------------------------
    298.15    0.292808E-01    0.422376E+00    0.851331E-01    0.337243E+00
   ------------------------------------------------------------------------

         :::::::::::::::::::::::::::::::::::::::::::::::::::::
         ::                  THERMODYNAMIC                  ::
         :::::::::::::::::::::::::::::::::::::::::::::::::::::
         :: total free energy         -89.002169858890 Eh   ::
         ::.................................................::
         :: total energy              -89.339412703020 Eh   ::
         :: zero point energy           0.393095130171 Eh   ::
         :: G(RRHO) w/o ZPVE           -0.055852286042 Eh   ::
         :: G(RRHO) contrib.            0.337242844130 Eh   ::
         :::::::::::::::::::::::::::::::::::::::::::::::::::::

           -------------------------------------------------
          | TOTAL ENERGY              -89.339412703020 Eh   |
          | TOTAL ENTHALPY            -88.917036734402 Eh   |
          | TOTAL FREE ENERGY         -89.002169858890 Eh   |
          | GRADIENT NORM               0.000048036887 Eh/α |
          | HOMO-LUMO GAP               0.529296410513 eV   |
           -------------------------------------------------

 * finished run on 2025/07/19 at 22:02:41.506
