   * xtb version 6.7.1 (edcfbbe) compiled by 'albert@albert-system' on 2024-07-22

   ID    Z sym.   atoms
    1    6 C      1, 3-5, 8-19, 21-26
    2    8 O      2, 6, 7
    3    7 N      20
    4    1 H      27-41

          program call               : xtb data2507/gas/4CzMC/4CzMC.xyz --gfn 2 --ohess vtight --parallel 40 --molden --ceasefiles --namespace data2507/gas/4CzMC/4CzMC_gas_S0_preOpt
          :  Hamiltonian                  GFN2-xTB          :
 * total energy  :   -69.9198067 Eh     change       -0.1947129E-08 Eh
 * total energy  :   -69.9308244 Eh     change       -0.1101774E-01 Eh
 * total energy  :   -69.9340287 Eh     change       -0.3204342E-02 Eh
 * total energy  :   -69.9344413 Eh     change       -0.4125589E-03 Eh
 * total energy  :   -69.9346021 Eh     change       -0.1607680E-03 Eh
 * total energy  :   -69.9346592 Eh     change       -0.5710219E-04 Eh
 * total energy  :   -69.9347047 Eh     change       -0.4552249E-04 Eh
 * total energy  :   -69.9347417 Eh     change       -0.3696878E-04 Eh
 * total energy  :   -69.9347716 Eh     change       -0.2989499E-04 Eh
 * total energy  :   -69.9347982 Eh     change       -0.2665253E-04 Eh
 * total energy  :   -69.9348654 Eh     change       -0.6557688E-05 Eh
 * total energy  :   -69.9348690 Eh     change       -0.3525371E-05 Eh
 * total energy  :   -69.9348699 Eh     change       -0.9314282E-06 Eh
 * total energy  :   -69.9348703 Eh     change       -0.3931726E-06 Eh
 * total energy  :   -69.9348706 Eh     change       -0.3092943E-06 Eh
 * total energy  :   -69.9348710 Eh     change       -0.4015162E-06 Eh
 * total energy  :   -69.9348713 Eh     change       -0.2725376E-06 Eh
 * total energy  :   -69.9348714 Eh     change       -0.1590473E-06 Eh
 * total energy  :   -69.9348714 Eh     change       -0.6741459E-08 Eh
   *** GEOMETRY OPTIMIZATION CONVERGED AFTER 22 ITERATIONS ***

 final structure:
================
41
 xtb: 6.7.1 (edcfbbe)
C            5.83338002177398       -1.94783883804329        0.18571938359635
O            4.42986181058471       -1.81562801805270        0.15672736389292
C            3.90326512305720       -0.57816188179192        0.09136844220090
C            4.60971982212210        0.58206514165666        0.04919185349220
C            3.96721728348478        1.86902885747418       -0.02090930714081
O            4.53724119524000        2.93293214375268       -0.05803843072075
O            2.59240607865600        1.88219560842426       -0.04863045681350
C            1.87134996861652        0.74635817160956       -0.00848210209137
C            2.45994639590816       -0.52334936615197        0.06581352227649
C            1.65581244038246       -1.67621933276588        0.12482466199931
C            0.28611962422556       -1.60351194583704        0.09644037439412
C           -0.30224782755718       -0.34159394955732       -0.00128420847384
C            0.47794515743680        0.83510380640124       -0.03833165897445
C           -0.43566714346365        1.93874649937842       -0.09244849747647
C           -0.26688823181052        3.31627969388168       -0.16036817647444
C           -1.39458752881641        4.10929163094913       -0.22270286304043
C           -2.67065051604949        3.54801506852700       -0.23173534713184
C           -2.86047214155954        2.18095664127068       -0.16451346668978
C           -1.73244653389991        1.37793563666721       -0.07935127912646
N           -1.63147217152711       -0.00079770288603       -0.02437828530063
C           -2.71138167622444       -0.89896038808883        0.00016768885521
C           -3.73240748028274       -0.73458620627859        0.93073718378489
C           -4.79749483456298       -1.61626015133338        0.94742181553350
C           -4.84768712803823       -2.66810916140067        0.04777266952901
C           -3.82918368550457       -2.83466805015536       -0.87586518066182
C           -2.76474281485973       -1.95255125039516       -0.90682210733989
H            6.25992335627288       -1.45664848708131        1.06480603323278
H            6.28948264262529       -1.53485585816899       -0.71839911717559
H            6.02761645779320       -3.01773762310018        0.23581397625386
H            5.68577755619243        0.61634227096464        0.06609253846849
H            2.15139595679350       -2.63071310189855        0.19745876260991
H           -0.31838011739951       -2.49460072645313        0.15962933208757
H            0.72446545315023        3.74013948384366       -0.16773408785186
H           -1.29192252565013        5.18267572182589       -0.27431194670403
H           -3.53195056300659        4.19636643789578       -0.29625353936931
H           -3.85197635097950        1.75466555876675       -0.18868350228588
H           -3.67803373602081        0.07502841175552        1.64290772274192
H           -5.58792009898133       -1.48524449736754        1.67126875414465
H           -5.67907911501787       -3.35623891599624        0.06602685844711
H           -3.86710815135731       -3.65078544361250       -1.58189026302184
H           -1.97922697174584       -2.06506988862890       -1.63905511367659

          :  Hamiltonian                  GFN2-xTB          :
         :: gradient norm              0.000046848344 Eh/a0 ::
         :: HOMO-LUMO gap              2.757122168092 eV    ::
         :: SCC energy               -71.051348522079 Eh    ::
         :: -> dispersion             -0.051338657872 Eh    ::
         :: repulsion energy           1.116477078706 Eh    ::

    * Orbital Energies and Occupations

         #    Occupation            Energy/Eh            Energy/eV
      -------------------------------------------------------------
         1        2.0000           -0.7403514             -20.1460
       ...           ...                  ...                  ...
        51        2.0000           -0.4500877             -12.2475
        52        2.0000           -0.4449447             -12.1076
        53        2.0000           -0.4401470             -11.9770
        54        2.0000           -0.4335361             -11.7971
        55        2.0000           -0.4316591             -11.7460
        56        2.0000           -0.4244465             -11.5498
        57        2.0000           -0.4215470             -11.4709
        58        2.0000           -0.4204670             -11.4415
        59        2.0000           -0.4166578             -11.3378
        60        2.0000           -0.3987495             -10.8505
        61        2.0000           -0.3973317             -10.8119
        62        2.0000           -0.3853067             -10.4847
        63        2.0000           -0.3720873             -10.1250 (HOMO)
        64                         -0.2707650              -7.3679 (LUMO)
        65                         -0.2505695              -6.8183
        66                         -0.2429851              -6.6120
        67                         -0.2413504              -6.5675
        68                         -0.2267844              -6.1711
        69                         -0.2014657              -5.4822
        70                         -0.1916488              -5.2150
        71                         -0.1435366              -3.9058
        72                         -0.1111853              -3.0255
        73                         -0.0895729              -2.4374
        74                         -0.0627136              -1.7065
       ...                                ...                  ...
       119                          0.7311086              19.8945
      -------------------------------------------------------------
                  HL-Gap            0.1013223 Eh            2.7571 eV

     #   Z          covCN         q      C6AA      α(0)
     1   6 C        3.648     0.030    20.395     6.489
     2   8 O        1.705    -0.246    18.072     5.740
     3   6 C        2.862     0.160    24.535     8.119
     4   6 C        2.901    -0.132    31.374     9.184
     5   6 C        2.718     0.340    21.222     7.541
     6   8 O        0.857    -0.411    21.892     6.273
     7   8 O        1.709    -0.227    17.772     5.692
     8   6 C        2.870     0.143    24.883     8.177
     9   6 C        2.981    -0.038    28.935     8.824
    10   6 C        2.924    -0.033    28.833     8.806
    11   6 C        2.907    -0.055    29.376     8.887
    12   6 C        3.075     0.050    26.802     8.488
    13   6 C        3.072    -0.033    28.756     8.793
    14   6 C        3.068    -0.007    28.116     8.695
    15   6 C        2.912    -0.030    28.740     8.791
    16   6 C        2.921    -0.037    28.913     8.818
    17   6 C        2.924    -0.031    28.784     8.798
    18   6 C        2.909    -0.049    29.214     8.863
    19   6 C        3.082     0.045    26.898     8.502
    20   7 N        2.807    -0.032    21.869     6.946
    21   6 C        2.914     0.064    26.571     8.453
    22   6 C        2.922    -0.041    29.011     8.833
    23   6 C        2.920    -0.027    28.672     8.781
    24   6 C        2.919    -0.031    28.782     8.798
    25   6 C        2.920    -0.027    28.676     8.781
    26   6 C        2.922    -0.042    29.034     8.836
    27   1 H        0.924     0.051     2.302     2.373
    28   1 H        0.924     0.051     2.302     2.373
    29   1 H        0.925     0.069     2.095     2.264
    30   1 H        0.926     0.061     2.188     2.313
    31   1 H        0.926     0.059     2.210     2.325
    32   1 H        0.926     0.043     2.411     2.428
    33   1 H        0.926     0.056     2.244     2.342
    34   1 H        0.926     0.036     2.497     2.471
    35   1 H        0.926     0.034     2.530     2.487
    36   1 H        0.926     0.031     2.573     2.508
    37   1 H        0.926     0.044     2.394     2.420
    38   1 H        0.926     0.040     2.449     2.447
    39   1 H        0.926     0.039     2.464     2.455
    40   1 H        0.926     0.040     2.454     2.450
    41   1 H        0.926     0.042     2.417     2.431

molecular dipole:
                 x           y           z       tot (Debye)
 q only:       -1.432      -2.120       0.085
   full:       -1.309      -2.359       0.094       6.861

 projected vibrational frequencies (cm⁻¹)
eigval :       -0.00    -0.00    -0.00     0.00     0.00     0.00
eigval :       32.64    39.71    55.89    65.44    83.29   106.21
eigval :      113.20   135.79   159.21   170.99   190.23   220.86
eigval :      226.19   241.02   244.70   282.26   295.96   306.73
eigval :      375.90   380.14   390.82   410.83   413.26   432.08
eigval :      473.01   477.82   511.06   538.05   539.28   577.26
eigval :      580.41   583.67   594.84   618.69   639.41   649.17
eigval :      670.05   674.79   695.01   697.85   711.65   748.72
eigval :      766.05   779.78   809.20   830.92   835.22   848.19
eigval :      874.12   883.72   901.66   908.77   911.62   917.51
eigval :      925.56   931.06   933.81   934.35   987.78  1009.07
eigval :     1062.60  1073.31  1079.92  1094.94  1117.66  1118.33
eigval :     1132.30  1139.52  1154.07  1168.84  1177.10  1180.83
eigval :     1186.78  1202.62  1219.59  1239.68  1253.08  1274.17
eigval :     1281.59  1315.38  1317.62  1335.81  1358.19  1379.31
eigval :     1383.59  1400.06  1419.68  1432.48  1436.54  1463.50
eigval :     1466.49  1475.94  1482.33  1487.16  1551.19  1572.89
eigval :     1583.43  1588.42  1595.42  1602.16  1609.97  1736.57
eigval :     2951.17  2962.28  3032.52  3079.67  3081.79  3083.98
eigval :     3088.29  3092.41  3095.81  3096.35  3098.53  3101.45
eigval :     3113.11  3117.90  3131.66

   temp. (K)  partition function   enthalpy   heat capacity  entropy
                                   cal/mol     cal/K/mol   cal/K/mol   J/K/mol
 298.15  VIB  0.147E+08            11072.271     73.982     66.577
         ROT  0.124E+08              888.752      2.981     35.437
         INT  0.182E+15            11961.024     76.963    102.014
         TR   0.610E+28             1481.254      4.968     43.358
         TOT                       13442.2774    81.9310   145.3721   608.2369

       T/K    H(0)-H(T)+PV         H(T)/Eh          T*S/Eh         G(T)/Eh
   ------------------------------------------------------------------------
    298.15    0.214216E-01    0.328110E+00    0.690710E-01    0.259039E+00
   ------------------------------------------------------------------------

         :::::::::::::::::::::::::::::::::::::::::::::::::::::
         ::                  THERMODYNAMIC                  ::
         :::::::::::::::::::::::::::::::::::::::::::::::::::::
         :: total free energy         -69.675832886103 Eh   ::
         ::.................................................::
         :: total energy              -69.934871443372 Eh   ::
         :: zero point energy           0.306687902790 Eh   ::
         :: G(RRHO) w/o ZPVE           -0.047649345520 Eh   ::
         :: G(RRHO) contrib.            0.259038557269 Eh   ::
         :::::::::::::::::::::::::::::::::::::::::::::::::::::

           -------------------------------------------------
          | TOTAL ENERGY              -69.934871443372 Eh   |
          | TOTAL ENTHALPY            -69.606761907952 Eh   |
          | TOTAL FREE ENERGY         -69.675832886103 Eh   |
          | GRADIENT NORM               0.000046806637 Eh/α |
          | HOMO-LUMO GAP               2.757120652406 eV   |
           -------------------------------------------------

 * finished run on 2025/08/26 at 03:11:20.160
