   * xtb version 6.7.1 (edcfbbe) compiled by 'albert@albert-system' on 2024-07-22

   ID    Z sym.   atoms
    1    6 C      1, 3-5, 8-19, 21-26
    2    8 O      2, 6, 7
    3    7 N      20
    4    1 H      27-41

          program call               : xtb data2507/gas/4CzMC/4CzMC_gas_S0_finalOpt.xtbopt.xyz --gfn 2 --spinpol --tblite --uhf 2 --ohess vtight --parallel 40 --molden --ceasefiles --namespace data2507/gas/4CzMC/4CzMC_gas_T1_preOpt
 * total energy  :   -69.8300257 Eh     change       -0.6257764E-08 Eh
 * total energy  :   -69.8346049 Eh     change       -0.4579227E-02 Eh
 * total energy  :   -69.8362543 Eh     change       -0.1649381E-02 Eh
 * total energy  :   -69.8363769 Eh     change       -0.1226146E-03 Eh
 * total energy  :   -69.8364586 Eh     change       -0.8169135E-04 Eh
 * total energy  :   -69.8364743 Eh     change       -0.1571560E-04 Eh
 * total energy  :   -69.8365015 Eh     change       -0.2718266E-04 Eh
 * total energy  :   -69.8365149 Eh     change       -0.1343522E-04 Eh
 * total energy  :   -69.8365295 Eh     change       -0.1461217E-04 Eh
 * total energy  :   -69.8365385 Eh     change       -0.8948209E-05 Eh
 * total energy  :   -69.8365511 Eh     change       -0.4290109E-06 Eh
 * total energy  :   -69.8365514 Eh     change       -0.2584718E-06 Eh
 * total energy  :   -69.8365516 Eh     change       -0.2364560E-06 Eh
 * total energy  :   -69.8365519 Eh     change       -0.2194386E-06 Eh
 * total energy  :   -69.8365518 Eh     change        0.7970243E-08 Eh
 * total energy  :   -69.8365520 Eh     change       -0.1301249E-06 Eh
 * total energy  :   -69.8365522 Eh     change       -0.2069780E-06 Eh
 * total energy  :   -69.8365523 Eh     change       -0.1543424E-06 Eh
 * total energy  :   -69.8365524 Eh     change       -0.9858034E-07 Eh
   *** GEOMETRY OPTIMIZATION CONVERGED AFTER 26 ITERATIONS ***

 final structure:
================
41
 xtb: 6.7.1 (edcfbbe)
C            5.36227524406695       -2.79470916043163        0.08741285190328
O            3.97816072197949       -2.54862601086852        0.07152614539384
C            3.54746175879640       -1.25299303823129        0.03408108925065
C            4.41400386680965       -0.12861880296615       -0.00503211511323
C            3.92208150547021        1.19621886710475       -0.02891264510726
O            4.60067622765398        2.20901831091738       -0.05302171849301
O            2.54041096108208        1.37892503389944       -0.02465665055551
C            1.69860582642485        0.32166634511092       -0.00260289159229
C            2.16684776538217       -1.03401144679115        0.03471683973088
C            1.20861948329028       -2.10004958625326        0.09530688584678
C           -0.14147945737754       -1.86181777461796        0.09280990502849
C           -0.58432303381249       -0.54069863962076        0.01336754805063
C            0.34542825358508        0.55368605881312       -0.00598712573254
C           -0.44350844746421        1.76004059173265       -0.01337971540446
C           -0.11349061400922        3.10120708842300       -0.05102938303389
C           -1.14856427255379        4.03367913917676       -0.08437644055649
C           -2.47384045921946        3.63206425635184       -0.09948751489794
C           -2.82330683282731        2.28569584640142       -0.06168530193051
C           -1.79826431722059        1.35559633921917        0.00531433037922
N           -1.86446948478080       -0.02997901568028        0.02217073350122
C           -3.03674556513891       -0.78183726933944        0.01221053674212
C           -4.08110401183648       -0.47152490400569        0.88714466977236
C           -5.23967600779097       -1.22141007487875        0.87101954896139
C           -5.37597270742260       -2.28506721976818       -0.00890646761753
C           -4.33980018694769       -2.59701861690457       -0.87711566253298
C           -3.17605486099874       -1.85541020915108       -0.87121414136291
H            5.46547681967382       -3.87809874292196        0.12800420472527
H            5.84063697768726       -2.35313669470766        0.96738263133763
H            5.84944811113782       -2.41961895074754       -0.81824753738920
H            5.48480395810263       -0.23218591871987       -0.01437746661087
H            1.59487461319719       -3.10262302992973        0.15620220973885
H           -0.84256116508708       -2.67877297177143        0.16647236384272
H            0.91994461339720        3.40685025395050       -0.06044224527056
H           -0.91220718055890        5.08651381532286       -0.11179861298990
H           -3.25650154190806        4.37415269916920       -0.14635446399527
H           -3.85877415380285        1.98495877356145       -0.10110634219435
H           -3.95868693778429        0.33337437490111        1.59584459140765
H           -6.03929205644669       -0.98176983232411        1.55585367119135
H           -6.28383897514839       -2.86806749496745       -0.01731232380015
H           -4.44447998315173       -3.41935941461396       -1.56885352395541
H           -2.38066755594487       -2.07456037312058       -1.56720213639139

 projected vibrational frequencies (cm⁻¹)
eigval :       -0.00    -0.00    -0.00     0.00     0.00     0.00
eigval :       32.26    36.65    57.10    69.54    79.92    87.95
eigval :      112.27   122.18   133.10   152.24   189.54   213.67
eigval :      225.00   243.77   246.03   274.55   280.91   288.20
eigval :      372.65   379.77   383.34   392.77   404.01   421.15
eigval :      443.21   463.94   471.62   507.29   519.64   544.00
eigval :      572.02   573.22   574.97   589.78   594.68   606.85
eigval :      640.57   660.23   664.67   686.32   697.22   706.02
eigval :      729.00   756.54   768.41   771.76   810.40   832.25
eigval :      858.29   869.05   879.97   883.32   896.85   902.95
eigval :      913.73   915.87   927.94   930.90   977.20   995.41
eigval :     1042.35  1066.38  1074.99  1086.11  1092.37  1108.55
eigval :     1118.97  1119.26  1143.26  1161.10  1172.22  1176.29
eigval :     1178.69  1182.33  1200.54  1203.97  1227.92  1240.38
eigval :     1264.15  1278.94  1308.87  1321.28  1326.01  1340.48
eigval :     1376.06  1385.85  1401.42  1407.36  1428.21  1436.13
eigval :     1449.57  1452.19  1462.09  1469.81  1481.23  1494.02
eigval :     1545.06  1552.49  1555.09  1570.07  1575.44  1615.51
eigval :     2933.03  2947.10  3026.10  3084.05  3084.96  3085.65
eigval :     3091.88  3093.01  3096.00  3098.50  3100.68  3104.11
eigval :     3119.05  3132.85  3137.72

   temp. (K)  partition function   enthalpy   heat capacity  entropy
                                   cal/mol     cal/K/mol   cal/K/mol   J/K/mol
 298.15  VIB  0.322E+08            11477.800     76.103     69.334
         ROT  0.124E+08              888.752      2.981     35.443
         INT  0.400E+15            12366.552     79.084    104.777
         TR   0.610E+28             1481.254      4.968     43.358
         TOT                       13847.8058    84.0517   148.1348   619.7960

       T/K    H(0)-H(T)+PV         H(T)/Eh          T*S/Eh         G(T)/Eh
   ------------------------------------------------------------------------
    298.15    0.220679E-01    0.324067E+00    0.703836E-01    0.253684E+00
   ------------------------------------------------------------------------

         :::::::::::::::::::::::::::::::::::::::::::::::::::::
         ::                  THERMODYNAMIC                  ::
         :::::::::::::::::::::::::::::::::::::::::::::::::::::
         :: total free energy         -69.582868862868 Eh   ::
         ::.................................................::
         :: total energy              -69.836552435445 Eh   ::
         :: zero point energy           0.301999313064 Eh   ::
         :: G(RRHO) w/o ZPVE           -0.048315740488 Eh   ::
         :: G(RRHO) contrib.            0.253683572577 Eh   ::
         :::::::::::::::::::::::::::::::::::::::::::::::::::::

           -------------------------------------------------
          | TOTAL ENERGY              -69.836552435445 Eh   |
          | TOTAL ENTHALPY            -69.512485239092 Eh   |
          | TOTAL FREE ENERGY         -69.582868862868 Eh   |
          | GRADIENT NORM               0.000067379406 Eh/α |
           -------------------------------------------------

 * finished run on 2025/08/26 at 03:12:27.429
