   * xtb version 6.7.1 (edcfbbe) compiled by 'albert@albert-system' on 2024-07-22

   ID    Z sym.   atoms
    1    6 C      1, 3-5, 8-19, 21-26
    2    8 O      2, 6, 7
    3    7 N      20
    4    1 H      27-41

          program call               : xtb data2507/gas/4CzMC/4CzMC_gas_T1_crest.xyz --gfn 2 --spinpol --tblite --uhf 2 --ohess vtight --parallel 40 --molden --ceasefiles --namespace data2507/gas/4CzMC/4CzMC_gas_T1_finalOpt
 * total energy  :   -69.8364785 Eh     change       -0.9230234E-08 Eh
 * total energy  :   -69.8365223 Eh     change       -0.4380571E-04 Eh
 * total energy  :   -69.8365453 Eh     change       -0.2302415E-04 Eh
 * total energy  :   -69.8365492 Eh     change       -0.3859378E-05 Eh
 * total energy  :   -69.8365512 Eh     change       -0.1984095E-05 Eh
 * total energy  :   -69.8365518 Eh     change       -0.6003187E-06 Eh
 * total energy  :   -69.8365518 Eh     change        0.7684434E-08 Eh
 * total energy  :   -69.8365522 Eh     change       -0.4561305E-06 Eh
 * total energy  :   -69.8365525 Eh     change       -0.2270082E-06 Eh
 * total energy  :   -69.8365526 Eh     change       -0.1654073E-06 Eh
 * total energy  :   -69.8365527 Eh     change       -0.8742008E-07 Eh
   *** GEOMETRY OPTIMIZATION CONVERGED AFTER 11 ITERATIONS ***

 final structure:
================
41
 xtb: 6.7.1 (edcfbbe)
C            5.37002804422397       -2.77928411671609        0.10175538445771
O            3.98532660530724       -2.53610576225279        0.09384725455844
C            3.55170660316196       -1.24168437689105        0.04973299075927
C            4.41567189156203       -0.11564650611555        0.00344935115788
C            3.92080741154628        1.20793927282268       -0.02730261250871
O            4.59696539938050        2.22216318297979       -0.05732434015974
O            2.53860402250115        1.38750288985386       -0.02367796980961
C            1.69931754703903        0.32849991008850        0.00342892610095
C            2.17060448437397       -1.02579821606649        0.05023440498093
C            1.21470704363395       -2.09345712524134        0.11815387175792
C           -0.13598532712629       -1.85846660203442        0.11050521295336
C           -0.58175667387844       -0.53912928631640        0.01881497325235
C            0.34558939190849        0.55721285670278       -0.00520073442992
C           -0.44595281046733        1.76165123539176       -0.02489937205421
C           -0.11853066478544        3.10319380690778       -0.07109998679851
C           -1.15532353709706        4.03318651208790       -0.11712332164333
C           -2.47961951592984        3.62855684915492       -0.13640508260502
C           -2.82645102421160        2.28175214618219       -0.08977118736430
C           -1.79989739127020        1.35436676438369       -0.00972065867291
N           -1.86313516101233       -0.03127896981820        0.01784863087367
C           -3.03361244393869       -0.78579901934063        0.00728260967564
C           -4.08443417232181       -0.46973443107110        0.87243302042235
C           -5.24140472729925       -1.22204973939573        0.85542339185909
C           -5.36966063720720       -2.29411994150181       -0.01546415935669
C           -4.32702125896280       -2.61196945148978       -0.87375183394816
C           -3.16493155104737       -1.86781026278274       -0.86710398679430
H            5.85303483507546       -2.33433590899814        0.97747444266299
H            5.85064189998655       -2.40564512133678       -0.80798819608618
H            5.47572346499255       -3.86234000633587        0.14466766066057
H            5.48671048491644       -0.21677329644177       -0.00566795736024
H            1.60307692450025       -3.09461860278254        0.18815406222653
H           -0.83508439418826       -2.67663591337756        0.18924952198119
H            0.91430399019179        3.41093390726470       -0.07746268939593
H           -0.92093583707873        5.08625624907823       -0.15139322768950
H           -3.26366684602353        4.36845097968016       -0.19356760688186
H           -3.86111175016104        1.97874433753218       -0.13266673119213
H           -3.96831348859160        0.34173303867481        1.57466107303770
H           -6.04604763641820       -0.97777007999178        1.53269226454788
H           -6.27629776649746       -2.87901862959727       -0.02458368217280
H           -4.42543622738074       -3.44085009573166       -1.55857443192150
H           -2.36461653090637       -2.09158782885847       -1.55592402868087

 projected vibrational frequencies (cm⁻¹)
eigval :       -0.00    -0.00    -0.00     0.00     0.00     0.00
eigval :       32.25    36.65    57.07    69.61    79.97    88.04
eigval :      112.18   122.45   133.13   152.25   189.53   213.65
eigval :      225.00   243.77   246.10   274.71   281.08   288.08
eigval :      372.68   379.80   383.33   392.73   404.03   421.23
eigval :      443.05   464.03   471.69   507.31   519.67   544.05
eigval :      572.04   573.20   574.97   589.80   594.66   606.83
eigval :      640.56   660.23   664.78   686.32   697.22   706.07
eigval :      729.00   756.53   768.40   771.74   810.28   832.34
eigval :      858.29   869.03   879.89   883.34   896.86   902.97
eigval :      913.74   915.85   927.94   930.94   977.24   995.45
eigval :     1042.30  1066.46  1075.00  1086.15  1092.38  1108.61
eigval :     1119.02  1119.24  1143.38  1161.11  1172.22  1176.27
eigval :     1178.67  1182.34  1200.54  1203.72  1228.20  1240.32
eigval :     1264.12  1278.92  1308.84  1321.31  1326.02  1340.48
eigval :     1376.05  1385.79  1401.33  1407.27  1428.18  1436.19
eigval :     1449.47  1452.14  1461.98  1469.78  1481.08  1493.90
eigval :     1544.93  1552.50  1555.13  1569.97  1575.44  1615.71
eigval :     2933.10  2947.03  3026.02  3084.00  3084.98  3085.63
eigval :     3091.94  3093.13  3096.07  3098.48  3100.78  3104.07
eigval :     3119.09  3132.87  3137.67

   temp. (K)  partition function   enthalpy   heat capacity  entropy
                                   cal/mol     cal/K/mol   cal/K/mol   J/K/mol
 298.15  VIB  0.321E+08            11477.026     76.102     69.325
         ROT  0.124E+08              888.752      2.981     35.443
         INT  0.398E+15            12365.778     79.083    104.768
         TR   0.610E+28             1481.254      4.968     43.358
         TOT                       13847.0318    84.0511   148.1260   619.7594

       T/K    H(0)-H(T)+PV         H(T)/Eh          T*S/Eh         G(T)/Eh
   ------------------------------------------------------------------------
    298.15    0.220666E-01    0.324067E+00    0.703795E-01    0.253688E+00
   ------------------------------------------------------------------------

         :::::::::::::::::::::::::::::::::::::::::::::::::::::
         ::                  THERMODYNAMIC                  ::
         :::::::::::::::::::::::::::::::::::::::::::::::::::::
         :: total free energy         -69.582864977504 Eh   ::
         ::.................................................::
         :: total energy              -69.836552718933 Eh   ::
         :: zero point energy           0.302000556362 Eh   ::
         :: G(RRHO) w/o ZPVE           -0.048312814934 Eh   ::
         :: G(RRHO) contrib.            0.253687741428 Eh   ::
         :::::::::::::::::::::::::::::::::::::::::::::::::::::

           -------------------------------------------------
          | TOTAL ENERGY              -69.836552718933 Eh   |
          | TOTAL ENTHALPY            -69.512485512734 Eh   |
          | TOTAL FREE ENERGY         -69.582864977504 Eh   |
          | GRADIENT NORM               0.000123189958 Eh/α |
           -------------------------------------------------

 * finished run on 2025/08/26 at 03:13:43.305
