   * xtb version 6.7.1 (edcfbbe) compiled by 'albert@albert-system' on 2024-07-22

   ID    Z sym.   atoms
    1    6 C      1, 3-5, 8-19, 21-26
    2    8 O      2, 6, 7
    3    7 N      20
    4    1 H      27-41

          program call               : xtb data2507/gas/4CzMC/4CzMC_gas_S0_crest.xyz --gfn 2 --ohess vtight --parallel 40 --molden --ceasefiles --namespace data2507/gas/4CzMC/4CzMC_gas_S0_finalOpt
          :  Hamiltonian                  GFN2-xTB          :
 * total energy  :   -69.9348688 Eh     change       -0.3141963E-08 Eh
 * total energy  :   -69.9348692 Eh     change       -0.3908038E-06 Eh
 * total energy  :   -69.9348702 Eh     change       -0.1003121E-05 Eh
 * total energy  :   -69.9348705 Eh     change       -0.3491528E-06 Eh
 * total energy  :   -69.9348706 Eh     change       -0.2696071E-07 Eh
 * total energy  :   -69.9348710 Eh     change       -0.4730445E-06 Eh
 * total energy  :   -69.9348714 Eh     change       -0.3828656E-06 Eh
 * total energy  :   -69.9348715 Eh     change       -0.1131016E-06 Eh
 * total energy  :   -69.9348716 Eh     change       -0.3467129E-07 Eh
   *** GEOMETRY OPTIMIZATION CONVERGED AFTER 9 ITERATIONS ***

 final structure:
================
41
 xtb: 6.7.1 (edcfbbe)
C            5.33545496815595       -2.81479437530498        0.11244276133011
O            3.95634840330172       -2.52183052331629        0.09161598225291
C            3.57514495019912       -1.23102727380090        0.05386820135446
C            4.41003898103602       -0.15892713322797        0.03085615237887
C            3.91934368450656        1.19447142642034       -0.00885294531125
O            4.60769556039096        2.18642110771287       -0.02984873651641
O            2.55501985994737        1.36600571946871       -0.02420811784080
C            1.70841145589409        0.31981014392408       -0.00343981630237
C            2.14758998195448       -1.01042354747852        0.03814183442237
C            1.21665238738530       -2.06452339453601        0.07612548767065
C           -0.13573240870668       -1.83455544115745        0.05873510540402
C           -0.57568514920490       -0.51146462677466       -0.00475965419481
C            0.33428181772317        0.56852747950642       -0.02009855206636
C           -0.44684895855736        1.77064363169760       -0.03976893028391
C           -0.12128103048833        3.12099750571892       -0.07491208015022
C           -1.15072425929951        4.03951426510697       -0.10705330442801
C           -2.48285666823112        3.62875106128742       -0.11836989551820
C           -2.82813590669762        2.29120444651567       -0.08383385715362
C           -1.79938523769586        1.36211143245473       -0.02910446807837
N           -1.85709010595890       -0.02006269067616       -0.00887275448449
C           -3.03260088141506       -0.78923502627811        0.00204668134742
C           -4.02319482322116       -0.53360389302907        0.94481575467593
C           -5.18200930940965       -1.28806146983196        0.94800271750479
C           -5.35681772853834       -2.30365298328238        0.02265157502382
C           -4.36886794793214       -2.56145435945211       -0.91312988823618
C           -3.21079977103543       -1.80601587271033       -0.93065916253348
H            5.40562688816969       -3.90068864720960        0.14104258613054
H            5.81703380731368       -2.39324693693267        0.99923404512325
H            5.83449161371271       -2.43915416281401       -0.78524242581401
H            5.48296242065531       -0.24877460391258        0.04137456778143
H            1.59966605373012       -3.07099846837905        0.12342323052132
H           -0.83831638962274       -2.65167028663226        0.10510079227582
H            0.91216653142468        3.42832046322452       -0.08068557544343
H           -0.92569584149555        5.09500809628341       -0.13268125396300
H           -3.26431980001852        4.37311003368240       -0.15849630750666
H           -3.86221569592057        1.98233012332347       -0.10946998619124
H           -3.87286220755449        0.24580393429970        1.67662315500452
H           -5.94830108590080       -1.08675383366576        1.68161575663202
H           -6.26122151509530       -2.89278728039698        0.03052508809858
H           -4.50363387738934       -3.34927719955477       -1.63916654749360
H           -2.44714208151161       -1.98841526807261       -1.67189749952243

          :  Hamiltonian                  GFN2-xTB          :
         :: gradient norm              0.000074149342 Eh/a0 ::
         :: HOMO-LUMO gap              2.757262555093 eV    ::
         :: SCC energy               -71.051336802032 Eh    ::
         :: -> dispersion             -0.051337879285 Eh    ::
         :: repulsion energy           1.116465232838 Eh    ::

    * Orbital Energies and Occupations

         #    Occupation            Energy/Eh            Energy/eV
      -------------------------------------------------------------
         1        2.0000           -0.7403487             -20.1459
       ...           ...                  ...                  ...
        51        2.0000           -0.4500879             -12.2475
        52        2.0000           -0.4449510             -12.1077
        53        2.0000           -0.4401496             -11.9771
        54        2.0000           -0.4335339             -11.7971
        55        2.0000           -0.4316602             -11.7461
        56        2.0000           -0.4244467             -11.5498
        57        2.0000           -0.4215489             -11.4709
        58        2.0000           -0.4204721             -11.4416
        59        2.0000           -0.4166581             -11.3378
        60        2.0000           -0.3987476             -10.8505
        61        2.0000           -0.3973309             -10.8119
        62        2.0000           -0.3853043             -10.4847
        63        2.0000           -0.3720888             -10.1251 (HOMO)
        64                         -0.2707613              -7.3678 (LUMO)
        65                         -0.2505723              -6.8184
        66                         -0.2429891              -6.6121
        67                         -0.2413581              -6.5677
        68                         -0.2267833              -6.1711
        69                         -0.2014686              -5.4822
        70                         -0.1916483              -5.2150
        71                         -0.1435377              -3.9059
        72                         -0.1111951              -3.0258
        73                         -0.0895736              -2.4374
        74                         -0.0627118              -1.7065
       ...                                ...                  ...
       119                          0.7311051              19.8944
      -------------------------------------------------------------
                  HL-Gap            0.1013275 Eh            2.7573 eV

     #   Z          covCN         q      C6AA      α(0)
     1   6 C        3.648     0.030    20.395     6.489
     2   8 O        1.705    -0.246    18.072     5.740
     3   6 C        2.862     0.160    24.535     8.119
     4   6 C        2.901    -0.132    31.374     9.184
     5   6 C        2.718     0.340    21.222     7.541
     6   8 O        0.857    -0.411    21.892     6.273
     7   8 O        1.709    -0.227    17.772     5.692
     8   6 C        2.870     0.143    24.883     8.177
     9   6 C        2.981    -0.038    28.935     8.824
    10   6 C        2.924    -0.033    28.833     8.806
    11   6 C        2.907    -0.055    29.376     8.887
    12   6 C        3.075     0.050    26.802     8.488
    13   6 C        3.071    -0.033    28.756     8.793
    14   6 C        3.068    -0.007    28.116     8.695
    15   6 C        2.912    -0.030    28.740     8.791
    16   6 C        2.921    -0.037    28.913     8.818
    17   6 C        2.924    -0.031    28.784     8.798
    18   6 C        2.909    -0.049    29.215     8.863
    19   6 C        3.082     0.045    26.898     8.502
    20   7 N        2.807    -0.033    21.869     6.946
    21   6 C        2.914     0.064    26.571     8.453
    22   6 C        2.922    -0.041    29.011     8.833
    23   6 C        2.920    -0.027    28.672     8.781
    24   6 C        2.919    -0.031    28.782     8.798
    25   6 C        2.920    -0.027    28.676     8.781
    26   6 C        2.922    -0.042    29.034     8.836
    27   1 H        0.925     0.069     2.095     2.264
    28   1 H        0.924     0.051     2.302     2.373
    29   1 H        0.924     0.051     2.302     2.373
    30   1 H        0.926     0.061     2.188     2.313
    31   1 H        0.926     0.059     2.210     2.325
    32   1 H        0.926     0.043     2.411     2.428
    33   1 H        0.926     0.056     2.244     2.342
    34   1 H        0.926     0.036     2.497     2.471
    35   1 H        0.926     0.034     2.530     2.487
    36   1 H        0.926     0.031     2.573     2.508
    37   1 H        0.926     0.044     2.394     2.420
    38   1 H        0.926     0.040     2.449     2.447
    39   1 H        0.926     0.039     2.464     2.455
    40   1 H        0.926     0.040     2.454     2.450
    41   1 H        0.926     0.042     2.417     2.431

molecular dipole:
                 x           y           z       tot (Debye)
 q only:       -1.665      -1.944       0.054
   full:       -1.571      -2.195       0.058       6.862

 projected vibrational frequencies (cm⁻¹)
eigval :       -0.00    -0.00     0.00     0.00     0.00     0.00
eigval :       32.54    39.67    55.88    65.37    83.23   106.19
eigval :      113.26   135.77   159.25   170.95   190.25   220.90
eigval :      226.20   240.92   244.67   282.19   296.00   306.76
eigval :      375.94   380.13   390.65   410.88   413.20   432.10
eigval :      472.99   477.81   510.98   538.03   539.25   577.23
eigval :      580.42   583.68   594.80   618.69   639.39   649.16
eigval :      670.06   674.79   695.04   697.82   711.64   748.70
eigval :      766.06   779.75   809.17   830.89   835.20   848.18
eigval :      874.11   883.72   901.66   908.76   911.61   917.49
eigval :      925.56   930.94   933.81   934.35   987.74  1009.06
eigval :     1062.53  1073.28  1079.93  1094.86  1117.65  1118.30
eigval :     1132.22  1139.51  1154.06  1168.80  1177.07  1180.85
eigval :     1186.76  1202.62  1219.59  1239.67  1253.06  1274.17
eigval :     1281.60  1315.37  1317.62  1335.81  1358.17  1379.32
eigval :     1383.59  1400.06  1419.64  1432.47  1436.54  1463.52
eigval :     1466.49  1475.97  1482.30  1487.14  1551.21  1572.87
eigval :     1583.44  1588.40  1595.40  1602.20  1609.96  1736.48
eigval :     2951.17  2962.32  3032.55  3079.67  3081.74  3083.92
eigval :     3088.31  3092.36  3095.79  3096.34  3098.51  3101.40
eigval :     3113.13  3117.97  3131.72

   temp. (K)  partition function   enthalpy   heat capacity  entropy
                                   cal/mol     cal/K/mol   cal/K/mol   J/K/mol
 298.15  VIB  0.148E+08            11072.901     73.980     66.581
         ROT  0.124E+08              888.752      2.981     35.437
         INT  0.183E+15            11961.653     76.961    102.018
         TR   0.610E+28             1481.254      4.968     43.358
         TOT                       13442.9074    81.9294   145.3765   608.2552

       T/K    H(0)-H(T)+PV         H(T)/Eh          T*S/Eh         G(T)/Eh
   ------------------------------------------------------------------------
    298.15    0.214226E-01    0.328107E+00    0.690731E-01    0.259034E+00
   ------------------------------------------------------------------------

         :::::::::::::::::::::::::::::::::::::::::::::::::::::
         ::                  THERMODYNAMIC                  ::
         :::::::::::::::::::::::::::::::::::::::::::::::::::::
         :: total free energy         -69.675837756436 Eh   ::
         ::.................................................::
         :: total energy              -69.934871569194 Eh   ::
         :: zero point energy           0.306684238629 Eh   ::
         :: G(RRHO) w/o ZPVE           -0.047650425871 Eh   ::
         :: G(RRHO) contrib.            0.259033812758 Eh   ::
         :::::::::::::::::::::::::::::::::::::::::::::::::::::

           -------------------------------------------------
          | TOTAL ENERGY              -69.934871569194 Eh   |
          | TOTAL ENTHALPY            -69.606764693984 Eh   |
          | TOTAL FREE ENERGY         -69.675837756436 Eh   |
          | GRADIENT NORM               0.000074158745 Eh/α |
          | HOMO-LUMO GAP               2.757261539120 eV   |
           -------------------------------------------------

 * finished run on 2025/08/26 at 03:12:25.261
