   * xtb version 6.7.1 (edcfbbe) compiled by 'albert@albert-system' on 2024-07-22

   ID    Z sym.   atoms
    1    8 O      1, 14, 29, 41
    2    6 C      2-6, 8-13, 15-28, 30-33, 35-40, 42-49
    3    7 N      7, 34, 50
    4    1 H      51-77

          program call               : xtb data2507/gas/26DPXZBPy/26DPXZBPy.xyz --gfn 2 --ohess vtight --parallel 40 --molden --ceasefiles --namespace data2507/gas/26DPXZBPy/26DPXZBPy_gas_S0_preOpt
          :  Hamiltonian                  GFN2-xTB          :
 * total energy  :  -130.8878272 Eh     change       -0.2482835E-08 Eh
 * total energy  :  -130.9005847 Eh     change       -0.1275755E-01 Eh
 * total energy  :  -130.9055023 Eh     change       -0.4917549E-02 Eh
 * total energy  :  -130.9071967 Eh     change       -0.1694460E-02 Eh
 * total energy  :  -130.9084903 Eh     change       -0.1293614E-02 Eh
 * total energy  :  -130.9092917 Eh     change       -0.8013941E-03 Eh
 * total energy  :  -130.9099912 Eh     change       -0.6994955E-03 Eh
 * total energy  :  -130.9107932 Eh     change       -0.8019310E-03 Eh
 * total energy  :  -130.9116603 Eh     change       -0.8671906E-03 Eh
 * total energy  :  -130.9123506 Eh     change       -0.6902511E-03 Eh
 * total energy  :  -130.9163973 Eh     change       -0.1173271E-05 Eh
 * total energy  :  -130.9163983 Eh     change       -0.1058922E-05 Eh
 * total energy  :  -130.9163993 Eh     change       -0.1004735E-05 Eh
 * total energy  :  -130.9164003 Eh     change       -0.9563215E-06 Eh
 * total energy  :  -130.9164012 Eh     change       -0.8886873E-06 Eh
 * total energy  :  -130.9164021 Eh     change       -0.8847229E-06 Eh
 * total energy  :  -130.9164030 Eh     change       -0.9316065E-06 Eh
 * total energy  :  -130.9164040 Eh     change       -0.1013392E-05 Eh
 * total energy  :  -130.9164040 Eh     change       -0.3271509E-08 Eh
   *** GEOMETRY OPTIMIZATION CONVERGED AFTER 122 ITERATIONS ***

 final structure:
================
77
 xtb: 6.7.1 (edcfbbe)
O           -5.05357483779384       -2.48787180653756       -2.43106583947518
C           -4.52778272105577       -1.85317398981421       -1.53765492869943
C           -3.07762137558818       -1.91517858947656       -1.25989936375610
C           -2.21284339243280       -2.14375798290123       -2.33189944852985
C           -0.84751101733918       -2.16150656939711       -2.14524256363812
C           -0.31317431299152       -1.97117991262975       -0.87058579787126
N            1.07980100433394       -1.97030278156756       -0.67802503143286
C            1.88939444208416       -1.05080955150523       -1.35429839747699
C            1.36397482609221       -0.05447458038094       -2.16773246103021
C            2.19069347727313        0.84980459884022       -2.81594096170112
C            3.56019918123102        0.77497731107178       -2.66222371268519
C            4.10057016738021       -0.19486929940759       -1.83281147289360
C            3.27794982819780       -1.09197761798395       -1.17563205529462
O            3.88757104319761       -2.00189869919102       -0.35197408772718
C            3.08202962150429       -2.87843907908379        0.32655242944569
C            3.71293176445333       -3.78224355144045        1.16135860990667
C            2.97578825759555       -4.72883530300088        1.85544140836145
C            1.60721793401555       -4.77929874770832        1.68551569589616
C            0.97030169138351       -3.87659341859548        0.84796187523425
C            1.68910441192968       -2.89454164272448        0.17808275092553
C           -1.17663245628937       -1.79043305787709        0.20878574695437
C           -2.54182244398343       -1.75928031130843        0.01796702895304
C           -5.32760666500543       -0.90077648851125       -0.70681027012990
C           -6.72326148192699       -0.93708199597568       -0.73945276631675
C           -7.42570293484686        0.00099150394610       -0.00081956521093
C           -6.72068171012642        0.93733710630173        0.73752565991956
C           -5.32510849035014        0.89784704822230        0.70412417942464
C           -4.52291594893715        1.84793807581098        1.53531674408573
O           -5.04728524297924        2.48277692875213        2.42950184177992
C           -3.07274052314615        1.90826200570043        1.25731508478785
C           -2.53693601877948        1.75172254776630       -0.02045707666467
C           -1.17175357600473        1.78393225322569       -0.21150918287089
C           -0.30828026971246        1.96626630621273        0.86756616920491
N            1.08469500183567        1.96798973745583        0.67507168039162
C            1.89582142870604        1.05191243349119        1.35412529057149
C            1.37130675964683        0.05161775319107        2.16325954598505
C            2.19937647802140       -0.84879367933266        2.81509890334056
C            3.56929700502306       -0.76611437237822        2.66914471242584
C            4.10892077461248        0.20726123993333        1.84340900566732
C            3.28500370644929        1.10051577310773        1.18262444827327
O            3.89382858963236        2.01421314339391        0.36260648125393
C            3.08683234458243        2.88540832762041       -0.32108358083240
C            3.71707418717186        3.79123784979873       -1.15419243869525
C            2.97847393548663        4.73319038665511       -1.85301370519772
C            1.60890842370251        4.77692605886609       -1.68953007974982
C            0.97261015160341        3.87207185158754       -0.85381388970254
C            1.69311998168905        2.89453059397654       -0.17921606023224
C           -0.84260266505776        2.15577952207146        2.14238494892144
C           -2.20784760134669        2.13722404712621        2.32920602594227
N           -4.65788180393311       -0.00215092442534       -0.00162386113226
H           -2.63414061104400       -2.29844810116406       -3.31412223602246
H           -0.18399074733097       -2.33414928496498       -2.97991926511637
H            0.29576089077556        0.01200828700407       -2.29880595374287
H            1.75330431035498        1.61626195237214       -3.43726667944594
H            4.20757753863862        1.47215848093667       -3.16911541568758
H            5.16378683476454       -0.26769128359203       -1.67135803539732
H            4.78637038378824       -3.73064306990190        1.24723767933371
H            3.47558426637539       -5.42670406889971        2.50845102938691
H            1.02019051274012       -5.52622670879765        2.19747718661308
H           -0.09624079057564       -3.94928270270051        0.70603080485556
H           -0.76496711153958       -1.66572818727658        1.19811205912551
H           -3.19225737720374       -1.62338017412610        0.86629681437791
H           -7.21785665234706       -1.68927173811823       -1.33392623152568
H           -8.50595270484144        0.00226836600349       -0.00054350967205
H           -7.21320420040009        1.69054807376291        1.33242703037673
H           -3.18737482174327        1.61462126826022       -0.86859270183411
H           -0.76006515089740        1.65878111566897       -1.20074072328471
H            0.30272250410582       -0.02088927592611        2.28803108652114
H            1.76276824599620       -1.61843338787716        3.43303741416563
H            4.21769823296471       -1.46011725903763        3.17908338551304
H            5.17259346903509        0.28597433292582        1.68782475374462
H            4.79117857435369        3.74505701575633       -1.23482143151105
H            3.47782120210543        5.43274479688298       -2.50456203405846
H            1.02051330768735        5.52022471200988       -2.20519089195955
H           -0.09490133696733        3.93978504718348       -0.71695877178445
H           -0.17904943786839        2.32853275933120        2.97701888836210
H           -2.62910126009950        2.29184858331184        3.31145407996670

          :  Hamiltonian                  GFN2-xTB          :
         :: gradient norm              0.000051902918 Eh/a0 ::
         :: HOMO-LUMO gap              1.022214064548 eV    ::
         :: SCC energy              -133.105452870660 Eh    ::
         :: -> dispersion             -0.131095110082 Eh    ::
         :: repulsion energy           2.189048858374 Eh    ::

    * Orbital Energies and Occupations

         #    Occupation            Energy/Eh            Energy/eV
      -------------------------------------------------------------
         1        2.0000           -0.7301819             -19.8693
       ...           ...                  ...                  ...
       107        2.0000           -0.4219464             -11.4817
       108        2.0000           -0.4216904             -11.4748
       109        2.0000           -0.4208803             -11.4527
       110        2.0000           -0.4180797             -11.3765
       111        2.0000           -0.4160721             -11.3219
       112        2.0000           -0.4141116             -11.2685
       113        2.0000           -0.4130079             -11.2385
       114        2.0000           -0.3993544             -10.8670
       115        2.0000           -0.3934852             -10.7073
       116        2.0000           -0.3917453             -10.6599
       117        2.0000           -0.3819211             -10.3926
       118        2.0000           -0.3480754              -9.4716
       119        2.0000           -0.3452879              -9.3958 (HOMO)
       120                         -0.3077221              -8.3735 (LUMO)
       121                         -0.3048592              -8.2956
       122                         -0.2616996              -7.1212
       123                         -0.2525282              -6.8716
       124                         -0.2452586              -6.6738
       125                         -0.2439743              -6.6389
       126                         -0.2413366              -6.5671
       127                         -0.2372457              -6.4558
       128                         -0.2318293              -6.3084
       129                         -0.2318066              -6.3078
       130                         -0.2210179              -6.0142
       ...                                ...                  ...
       227                          0.6938592              18.8809
      -------------------------------------------------------------
                  HL-Gap            0.0375658 Eh            1.0222 eV

     #   Z          covCN         q      C6AA      α(0)
     1   8 O        0.858    -0.364    20.973     6.140
     2   6 C        2.829     0.223    23.320     7.913
     3   6 C        2.972    -0.008    28.222     8.714
     4   6 C        2.925    -0.018    28.466     8.750
     5   6 C        2.920    -0.041    29.012     8.833
     6   6 C        2.920     0.072    26.392     8.425
     7   7 N        2.751    -0.068    22.551     7.053
     8   6 C        2.922     0.040    27.093     8.536
     9   6 C        2.925    -0.060    29.497     8.907
    10   6 C        2.919    -0.039    28.976     8.827
    11   6 C        2.919    -0.037    28.917     8.818
    12   6 C        2.920    -0.051    29.273     8.872
    13   6 C        2.886     0.125    25.253     8.239
    14   8 O        1.709    -0.252    18.167     5.755
    15   6 C        2.886     0.126    25.232     8.235
    16   6 C        2.920    -0.055    29.369     8.887
    17   6 C        2.919    -0.039    28.975     8.827
    18   6 C        2.919    -0.039    28.962     8.825
    19   6 C        2.924    -0.059    29.472     8.903
    20   6 C        2.921     0.042    27.059     8.530
    21   6 C        2.921    -0.042    29.036     8.836
    22   6 C        2.920    -0.020    28.502     8.755
    23   6 C        2.954     0.074    26.342     8.418
    24   6 C        2.917    -0.023    28.585     8.767
    25   6 C        2.924    -0.009    28.233     8.714
    26   6 C        2.917    -0.023    28.585     8.767
    27   6 C        2.954     0.074    26.342     8.418
    28   6 C        2.829     0.223    23.321     7.913
    29   8 O        0.858    -0.364    20.974     6.140
    30   6 C        2.972    -0.008    28.222     8.714
    31   6 C        2.920    -0.020    28.503     8.755
    32   6 C        2.921    -0.042    29.038     8.837
    33   6 C        2.920     0.072    26.392     8.425
    34   7 N        2.751    -0.068    22.552     7.053
    35   6 C        2.922     0.040    27.093     8.536
    36   6 C        2.925    -0.060    29.496     8.906
    37   6 C        2.919    -0.039    28.976     8.827
    38   6 C        2.919    -0.037    28.914     8.818
    39   6 C        2.920    -0.051    29.271     8.872
    40   6 C        2.886     0.125    25.251     8.238
    41   8 O        1.709    -0.252    18.166     5.755
    42   6 C        2.886     0.126    25.232     8.235
    43   6 C        2.920    -0.055    29.369     8.887
    44   6 C        2.919    -0.039    28.975     8.827
    45   6 C        2.919    -0.039    28.961     8.825
    46   6 C        2.924    -0.059    29.473     8.903
    47   6 C        2.921     0.042    27.059     8.530
    48   6 C        2.920    -0.041    29.011     8.833
    49   6 C        2.925    -0.018    28.466     8.750
    50   7 N        1.847    -0.225    26.754     7.666
    51   1 H        0.926     0.060     2.194     2.316
    52   1 H        0.926     0.048     2.339     2.392
    53   1 H        0.926     0.033     2.539     2.492
    54   1 H        0.926     0.034     2.531     2.488
    55   1 H        0.926     0.041     2.442     2.444
    56   1 H        0.926     0.054     2.267     2.354
    57   1 H        0.926     0.052     2.294     2.369
    58   1 H        0.926     0.040     2.448     2.447
    59   1 H        0.926     0.038     2.478     2.462
    60   1 H        0.926     0.037     2.484     2.465
    61   1 H        0.926     0.047     2.363     2.404
    62   1 H        0.926     0.051     2.309     2.376
    63   1 H        0.926     0.068     2.105     2.269
    64   1 H        0.926     0.051     2.310     2.377
    65   1 H        0.926     0.068     2.105     2.269
    66   1 H        0.926     0.051     2.309     2.376
    67   1 H        0.926     0.047     2.361     2.403
    68   1 H        0.926     0.033     2.542     2.493
    69   1 H        0.926     0.034     2.531     2.488
    70   1 H        0.926     0.041     2.442     2.443
    71   1 H        0.926     0.054     2.267     2.355
    72   1 H        0.926     0.052     2.294     2.369
    73   1 H        0.926     0.040     2.448     2.447
    74   1 H        0.926     0.038     2.479     2.462
    75   1 H        0.926     0.037     2.484     2.465
    76   1 H        0.926     0.048     2.340     2.392
    77   1 H        0.926     0.060     2.193     2.316

molecular dipole:
                 x           y           z       tot (Debye)
 q only:        0.529      -0.001      -0.002
   full:        0.016      -0.000      -0.001       0.042

 projected vibrational frequencies (cm⁻¹)
eigval :       -0.00    -0.00    -0.00    -0.00     0.00     0.00
eigval :        5.26    18.13    24.71    26.25    36.99    38.26
eigval :       51.64    58.07    58.33    64.24    82.14    89.32
eigval :       91.50    93.88   117.73   129.46   130.37   135.08
eigval :      142.37   161.32   164.45   166.88   179.43   211.64
eigval :      216.07   232.07   249.86   255.15   267.38   267.45
eigval :      278.80   281.01   282.27   293.14   339.41   343.87
eigval :      361.47   375.36   378.62   379.14   383.20   384.43
eigval :      394.62   404.48   417.98   420.16   432.46   436.93
eigval :      442.32   443.55   450.48   452.39   477.01   480.46
eigval :      509.85   510.88   523.86   524.09   529.64   539.90
eigval :      558.21   562.82   584.42   587.01   593.29   596.08
eigval :      611.32   612.11   623.57   636.85   651.63   658.44
eigval :      660.90   661.33   662.20   664.96   681.38   694.66
eigval :      696.80   718.34   723.44   743.50   778.63   779.37
eigval :      781.82   782.85   787.31   802.95   803.08   818.28
eigval :      824.67   826.48   856.73   856.95   860.97   866.41
eigval :      869.74   870.44   875.89   878.97   891.31   898.51
eigval :      898.61   898.87   901.09   906.57   912.77   914.19
eigval :      915.08   915.19   916.13   917.86   918.44   928.68
eigval :      933.98   937.05   937.70   941.12   942.16   982.99
eigval :     1012.17  1027.98  1029.91  1091.12  1091.55  1091.90
eigval :     1092.26  1100.98  1109.37  1109.43  1121.30  1122.08
eigval :     1134.25  1134.82  1151.79  1170.08  1170.64  1174.91
eigval :     1175.74  1175.84  1182.31  1182.35  1188.62  1192.39
eigval :     1199.86  1204.49  1204.71  1223.25  1227.58  1242.57
eigval :     1242.62  1244.11  1261.79  1261.96  1263.06  1263.16
eigval :     1276.46  1308.66  1309.73  1310.20  1312.88  1315.83
eigval :     1320.37  1320.90  1336.88  1338.38  1354.87  1355.17
eigval :     1400.22  1402.20  1402.86  1419.42  1424.43  1424.66
eigval :     1442.82  1443.39  1473.05  1473.45  1483.80  1489.15
eigval :     1504.22  1504.42  1548.28  1551.12  1552.83  1557.92
eigval :     1568.90  1568.97  1579.04  1580.87  1580.92  1583.36
eigval :     1591.49  1591.86  1602.94  1603.38  1689.35  1691.48
eigval :     3078.88  3084.92  3084.94  3089.29  3089.31  3089.91
eigval :     3089.95  3096.37  3096.39  3099.61  3099.66  3101.62
eigval :     3102.20  3104.02  3104.28  3104.30  3105.15  3108.31
eigval :     3108.47  3108.99  3109.47  3113.92  3114.06  3114.53
eigval :     3114.65  3117.88  3119.07

   temp. (K)  partition function   enthalpy   heat capacity  entropy
                                   cal/mol     cal/K/mol   cal/K/mol   J/K/mol
 298.15  VIB  0.108E+18            22791.871    146.256    140.700
         ROT  0.279E+08              888.752      2.981     37.053
         INT  0.302E+25            23680.624    149.237    177.753
         TR   0.160E+29             1481.254      4.968     45.275
         TOT                       25161.8776   154.2053   223.0288   933.1525

       T/K    H(0)-H(T)+PV         H(T)/Eh          T*S/Eh         G(T)/Eh
   ------------------------------------------------------------------------
    298.15    0.400980E-01    0.611837E+00    0.105968E+00    0.505869E+00
   ------------------------------------------------------------------------

         :::::::::::::::::::::::::::::::::::::::::::::::::::::
         ::                  THERMODYNAMIC                  ::
         :::::::::::::::::::::::::::::::::::::::::::::::::::::
         :: total free energy        -130.410534875685 Eh   ::
         ::.................................................::
         :: total energy             -130.916404012286 Eh   ::
         :: zero point energy           0.571739306853 Eh   ::
         :: G(RRHO) w/o ZPVE           -0.065870170252 Eh   ::
         :: G(RRHO) contrib.            0.505869136601 Eh   ::
         :::::::::::::::::::::::::::::::::::::::::::::::::::::

           -------------------------------------------------
          | TOTAL ENERGY             -130.916404012286 Eh   |
          | TOTAL ENTHALPY           -130.304566701108 Eh   |
          | TOTAL FREE ENERGY        -130.410534875685 Eh   |
          | GRADIENT NORM               0.000051918310 Eh/α |
          | HOMO-LUMO GAP               1.022217015681 eV   |
           -------------------------------------------------

 * finished run on 2025/09/07 at 04:22:36.028
