   * xtb version 6.7.1 (edcfbbe) compiled by 'albert@albert-system' on 2024-07-22

   ID    Z sym.   atoms
    1    8 O      1, 14, 29, 41
    2    6 C      2-6, 8-13, 15-28, 30-33, 35-40, 42-49
    3    7 N      7, 34, 50
    4    1 H      51-77

          program call               : xtb data2507/gas/26DPXZBPy/26DPXZBPy_gas_T1_crest.xyz --gfn 2 --spinpol --tblite --uhf 2 --ohess vtight --parallel 40 --molden --ceasefiles --namespace data2507/gas/26DPXZBPy/26DPXZBPy_gas_T1_finalOpt
 * total energy  :  -130.8574404 Eh     change        0.6144023E-07 Eh
 * total energy  :  -130.8574555 Eh     change       -0.1510112E-04 Eh
 * total energy  :  -130.8574633 Eh     change       -0.7809994E-05 Eh
 * total energy  :  -130.8574650 Eh     change       -0.1687652E-05 Eh
 * total energy  :  -130.8574665 Eh     change       -0.1545578E-05 Eh
 * total energy  :  -130.8574671 Eh     change       -0.6211076E-06 Eh
 * total energy  :  -130.8574676 Eh     change       -0.5065135E-06 Eh
 * total energy  :  -130.8574681 Eh     change       -0.4938986E-06 Eh
 * total energy  :  -130.8574686 Eh     change       -0.4649086E-06 Eh
 * total energy  :  -130.8574689 Eh     change       -0.3219795E-06 Eh
 * total energy  :  -130.8574691 Eh     change       -0.2120878E-06 Eh
 * total energy  :  -130.8574692 Eh     change       -0.2661304E-07 Eh
 * total energy  :  -130.8574693 Eh     change       -0.1043498E-06 Eh
 * total energy  :  -130.8574695 Eh     change       -0.2204914E-06 Eh
 * total energy  :  -130.8574696 Eh     change       -0.1284592E-06 Eh
 * total energy  :  -130.8574698 Eh     change       -0.1601242E-06 Eh
 * total energy  :  -130.8574699 Eh     change       -0.1378294E-06 Eh
 * total energy  :  -130.8574701 Eh     change       -0.2278977E-06 Eh
 * total energy  :  -130.8574702 Eh     change       -0.9790753E-07 Eh
   *** GEOMETRY OPTIMIZATION CONVERGED AFTER 19 ITERATIONS ***

 final structure:
================
77
 xtb: 6.7.1 (edcfbbe)
O           -4.97340285174220       -2.70307185530230       -2.23511293048776
C           -4.43497617147781       -1.95500207195246       -1.41433782937776
C           -2.97884102609613       -1.98323138455457       -1.18329292308720
C           -2.15208762784166       -2.41179598747026       -2.22927202846767
C           -0.78145127189586       -2.41887950351457       -2.09098211268985
C           -0.20443111104961       -2.01308151540289       -0.88946718737645
N            1.20662752911954       -1.97036649981983       -0.74194372385429
C            1.95635215239101       -1.03716896083667       -1.44653730330686
C            1.37555018707952       -0.12667483765045       -2.32465803808789
C            2.15020381079005        0.80408791821105       -2.99521798108371
C            3.52080113126991        0.83553985622681       -2.81317731129841
C            4.11798017397494       -0.06468376154697       -1.94527063812399
C            3.34754671265518       -0.98768949669991       -1.26014824827485
O            3.99875070565191       -1.83330813809056       -0.40451448172909
C            3.24486893795544       -2.73637687042161        0.29314402223787
C            3.91524370045323       -3.58509400061552        1.15655311121184
C            3.21527705189538       -4.53361201887175        1.88373849882437
C            1.84419316360623       -4.63718666723010        1.73262264715250
C            1.16738744660643       -3.79588878108110        0.86711085763232
C            1.85174477608502       -2.82407754927895        0.14338790075019
C           -1.01944388650491       -1.64122058690716        0.17591173260980
C           -2.38941783189365       -1.62623831114169        0.03186993690054
C           -5.21282278073535       -0.95451140786865       -0.66738326168315
C           -6.61937665967978       -0.97683660686384       -0.70375331473739
C           -7.30863434428990       -0.00025283598164       -0.00554452662432
C           -6.62048808547380        0.97679407135919        0.69286057445882
C           -5.21378138356447        0.95556351863295        0.65711093116238
C           -4.43743755208913        1.95678039551558        1.40441872052353
O           -4.97749595153966        2.70550233685151        2.22378088235570
C           -2.98093972521403        1.98494267834717        1.17613676468972
C           -2.38881949440003        1.62561543592691       -0.03704475641399
C           -1.01852840336821        1.63990292539180       -0.17793976851406
C           -0.20591858166140        2.01348972910599        0.88865710932305
N            1.20551324890609        1.96937681317436        0.74471583730991
C            1.95223975311569        1.03536466577029        1.45133429893713
C            1.36788067521662        0.12554888777119        2.32778640503146
C            2.13960469223319       -0.80612863909869        3.00044861856046
C            3.51067716606728       -0.83908911678535        2.82222595866031
C            4.11135535911688        0.06056472461322        1.95612686402956
C            3.34390583669000        0.98447563547261        1.26888466871588
O            3.99833851408586        1.82962753670600        0.41523061289552
C            3.24726227786290        2.73306776943701       -0.28498882922191
C            3.92074161524974        3.58085672775788       -1.14688897880269
C            3.22355186660102        4.52950101703346       -1.87658476284922
C            1.85208365357559        4.63409391403512       -1.72962906041448
C            1.17215107171420        3.79377135991998       -0.86562591660336
C            1.85377588006405        2.82200816479318       -0.13928420831244
C           -0.78554004293341        2.42197883993885        2.08800590108204
C           -2.15647129270760        2.41557813120152        2.22314396724947
N           -4.58419528919825        0.00071370335436       -0.00496277570886
H           -2.61550096700725       -2.72540113453350       -3.15243712276655
H           -0.14782839135694       -2.73506022353017       -2.90701604443967
H            0.31018577237300       -0.16044727610525       -2.48797935755514
H            1.67552328004008        1.50529623996645       -3.66376359559340
H            4.12529856957726        1.55409096371955       -3.34229807706423
H            5.18240100705823       -0.06249535481537       -1.77613065883440
H            4.98569962661636       -3.48786031063688        1.23886543750650
H            3.74324212136959       -5.19103356510732        2.55599379487766
H            1.29141236889246       -5.38133939936759        2.28447662069289
H            0.10121624161542       -3.89607406414535        0.74124736746248
H           -0.56411641002415       -1.36472742635714        1.11421586534452
H           -3.00422938501293       -1.34125115928569        0.87009858994964
H           -7.10634365512558       -1.75729452030630       -1.26579462681716
H           -8.38931746547783       -0.00068229701088       -0.00579038324795
H           -7.10816304538398        1.75695774382165        1.25470444701434
H           -3.00175449228317        1.33923065703108       -0.87616596387055
H           -0.56106894564273        1.36145589980352       -1.11462457379483
H            0.30209186295530        0.16067266913260        2.48806419332874
H            1.66230328902079       -1.50686637957068        3.66762298224851
H            4.11284742886498       -1.55839828491255        3.35296983260264
H            5.17625935221631        0.05720301372547        1.79007513161317
H            4.99135897658698        3.48280241344668       -1.22608069553816
H            3.75392808864436        5.18621318598413       -2.54763431675150
H            1.30147345032025        5.37828531081817       -2.28359674892787
H            0.10566194432776        3.89460202715958       -0.74296780172214
H           -0.15365127931064        2.73949158363246        2.90486414016836
H           -2.62199390603261        2.73116928528251        3.14456302844088

 projected vibrational frequencies (cm⁻¹)
eigval :       -0.00    -0.00     0.00     0.00     0.00     0.00
eigval :       -2.79    20.08    21.68    23.32    41.66    41.66
eigval :       51.89    53.60    54.58    67.82    70.31    85.89
eigval :       87.32    92.25   108.74   129.94   131.39   135.04
eigval :      145.48   151.67   163.20   165.58   174.02   202.38
eigval :      216.67   236.55   249.93   254.29   261.48   265.15
eigval :      278.24   282.15   284.76   297.56   332.02   337.21
eigval :      368.63   373.53   380.20   381.13   385.31   385.40
eigval :      395.67   405.47   413.99   418.46   431.81   436.12
eigval :      439.29   442.05   452.31   459.12   471.84   474.85
eigval :      505.27   505.53   520.10   525.94   527.15   534.11
eigval :      550.17   551.16   580.08   583.11   586.25   588.18
eigval :      599.10   608.78   610.27   616.52   643.95   653.02
eigval :      663.05   663.74   665.24   666.04   666.95   667.56
eigval :      689.82   697.49   700.87   715.84   770.05   777.84
eigval :      779.03   781.75   782.17   785.86   800.06   807.97
eigval :      809.70   814.03   847.73   855.34   856.26   856.40
eigval :      858.56   867.74   868.07   871.22   873.92   875.71
eigval :      894.25   897.82   898.74   900.49   901.51   908.43
eigval :      908.91   912.57   915.18   917.32   917.54   917.63
eigval :      919.37   919.93   924.50   926.30   927.59   960.39
eigval :      984.09  1003.94  1018.30  1028.59  1079.91  1085.69
eigval :     1086.65  1088.29  1088.48  1112.16  1112.23  1119.94
eigval :     1120.69  1130.25  1130.95  1140.70  1163.40  1167.27
eigval :     1169.90  1170.42  1174.60  1175.16  1180.98  1184.21
eigval :     1194.27  1200.11  1206.60  1206.80  1217.78  1224.96
eigval :     1228.30  1230.72  1238.75  1239.14  1249.42  1256.06
eigval :     1257.93  1258.46  1273.59  1308.38  1309.52  1315.08
eigval :     1316.50  1318.45  1319.53  1330.50  1331.03  1345.85
eigval :     1352.04  1383.02  1398.84  1401.98  1418.43  1421.41
eigval :     1422.76  1422.87  1442.16  1442.56  1456.60  1459.09
eigval :     1459.13  1459.86  1478.23  1485.55  1509.45  1529.88
eigval :     1533.73  1561.37  1561.92  1569.34  1569.43  1570.59
eigval :     1575.55  1577.41  1583.18  1591.12  1591.83  1600.74
eigval :     3069.94  3080.12  3080.21  3095.28  3095.32  3095.83
eigval :     3095.88  3098.89  3099.22  3099.29  3099.93  3104.01
eigval :     3104.08  3106.62  3106.77  3106.84  3107.10  3110.12
eigval :     3110.37  3111.55  3111.88  3112.90  3112.96  3115.87
eigval :     3116.11  3120.05  3120.90

   temp. (K)  partition function   enthalpy   heat capacity  entropy
                                   cal/mol     cal/K/mol   cal/K/mol   J/K/mol
 298.15  VIB  0.325E+18            23018.962    147.837    142.910
         ROT  0.277E+08              888.752      2.981     37.038
         INT  0.902E+25            23907.715    150.817    179.948
         TR   0.160E+29             1481.254      4.968     45.275
         TOT                       25388.9687   155.7856   225.2237   942.3360

       T/K    H(0)-H(T)+PV         H(T)/Eh          T*S/Eh         G(T)/Eh
   ------------------------------------------------------------------------
    298.15    0.404599E-01    0.607357E+00    0.107011E+00    0.500346E+00
   ------------------------------------------------------------------------

         :::::::::::::::::::::::::::::::::::::::::::::::::::::
         ::                  THERMODYNAMIC                  ::
         :::::::::::::::::::::::::::::::::::::::::::::::::::::
         :: total free energy        -130.357123814318 Eh   ::
         ::.................................................::
         :: total energy             -130.857470256662 Eh   ::
         :: zero point energy           0.566897595620 Eh   ::
         :: G(RRHO) w/o ZPVE           -0.066551153276 Eh   ::
         :: G(RRHO) contrib.            0.500346442344 Eh   ::
         :::::::::::::::::::::::::::::::::::::::::::::::::::::

           -------------------------------------------------
          | TOTAL ENERGY             -130.857470256662 Eh   |
          | TOTAL ENTHALPY           -130.250112763998 Eh   |
          | TOTAL FREE ENERGY        -130.357123814318 Eh   |
          | GRADIENT NORM               0.000084103598 Eh/α |
           -------------------------------------------------

 * finished run on 2025/09/07 at 04:33:07.515
