   * xtb version 6.7.1 (edcfbbe) compiled by 'albert@albert-system' on 2024-07-22

   ID    Z sym.   atoms
    1    8 O      1, 14, 29, 41
    2    6 C      2-6, 8-13, 15-28, 30-33, 35-40, 42-49
    3    7 N      7, 34, 50
    4    1 H      51-77

          program call               : xtb data2507/gas/26DPXZBPy/26DPXZBPy_gas_S0_finalOpt.xtbopt.xyz --gfn 2 --spinpol --tblite --uhf 2 --ohess vtight --parallel 40 --molden --ceasefiles --namespace data2507/gas/26DPXZBPy/26DPXZBPy_gas_T1_preOpt
 * total energy  :  -130.8532680 Eh     change       -0.5992496E-07 Eh
 * total energy  :  -130.8557036 Eh     change       -0.2435664E-02 Eh
 * total energy  :  -130.8565681 Eh     change       -0.8644339E-03 Eh
 * total energy  :  -130.8567755 Eh     change       -0.2074273E-03 Eh
 * total energy  :  -130.8569574 Eh     change       -0.1819288E-03 Eh
 * total energy  :  -130.8570731 Eh     change       -0.1156900E-03 Eh
 * total energy  :  -130.8571677 Eh     change       -0.9457041E-04 Eh
 * total energy  :  -130.8572418 Eh     change       -0.7411735E-04 Eh
 * total energy  :  -130.8572976 Eh     change       -0.5578270E-04 Eh
 * total energy  :  -130.8573313 Eh     change       -0.3372934E-04 Eh
 * total energy  :  -130.8574494 Eh     change       -0.1313698E-05 Eh
 * total energy  :  -130.8574505 Eh     change       -0.1144092E-05 Eh
 * total energy  :  -130.8574516 Eh     change       -0.1083138E-05 Eh
 * total energy  :  -130.8574526 Eh     change       -0.1015938E-05 Eh
 * total energy  :  -130.8574535 Eh     change       -0.8870678E-06 Eh
 * total energy  :  -130.8574544 Eh     change       -0.8879772E-06 Eh
 * total energy  :  -130.8574552 Eh     change       -0.7915499E-06 Eh
 * total energy  :  -130.8574558 Eh     change       -0.5888857E-06 Eh
 * total energy  :  -130.8574558 Eh     change       -0.4244359E-07 Eh
   *** GEOMETRY OPTIMIZATION CONVERGED AFTER 44 ITERATIONS ***

 final structure:
================
77
 xtb: 6.7.1 (edcfbbe)
O           -4.94781111187389       -2.63810998603461       -2.35207792258599
C           -4.41800927283115       -1.92138102525018       -1.49846839549901
C           -2.96335201292542       -1.95273616963946       -1.25840513625502
C           -2.12747384101580       -2.34038100467518       -2.31310577142320
C           -0.75789012236754       -2.34906795229167       -2.16478646517144
C           -0.19065679672458       -1.98524590128470       -0.94523428924691
N            1.21898863073874       -1.94764727855281       -0.78480724361431
C            1.97564676803146       -0.99514107197067       -1.45549110637205
C            1.40265582688499       -0.05532525961185       -2.30737341325110
C            2.18418561105249        0.89228617916890       -2.94559988917519
C            3.55402674494558        0.91235380638144       -2.75646457962381
C            4.14321957957525       -0.01542053318359       -1.91248890663894
C            3.36584634626678       -0.95593825110645       -1.25971333841190
O            4.00934831443560       -1.82870933047588       -0.42580214464922
C            3.24826542853598       -2.74815277560431        0.24199278884653
C            3.91042053285957       -3.62201163707581        1.08654012714524
C            3.20330107522720       -4.58913742282010        1.78156979302386
C            1.83341186584192       -4.68663044023135        1.61608457278734
C            1.16481318350161       -3.82007759785275        0.76934458739824
C            1.85606987934514       -2.82858872622873        0.07955367900319
C           -1.01470011207416       -1.65314343900706        0.12637423228197
C           -2.38359490177591       -1.63769439894035       -0.02702824886553
C           -5.20495293958641       -0.95498083851477       -0.71672454919955
C           -6.61131352131130       -0.98219156621751       -0.75903318245691
C           -7.30702902471648       -0.03760570743756       -0.02404860086398
C           -6.62600469999439        0.91386854701172        0.71553651642579
C           -5.21906582365615        0.90109991885031        0.68274548993852
C           -4.44747430645480        1.87517309073743        1.46987783680054
O           -4.99042941052739        2.58627126868074        2.32021023218625
C           -2.99174377383337        1.92164605228173        1.23961504695744
C           -2.40052209446011        1.61248667589803        0.01217040736220
C           -1.03090161988062        1.64217235337897       -0.13217460827322
C           -0.21748547616150        1.98299315074469        0.94481772344273
N            1.19352031053518        1.95998188587051        0.79376087033198
C            1.95548842672113        1.01537179484527        1.46954406321199
C            1.38652891461998        0.06956474863855        2.31749380571909
C            2.17353261645762       -0.86987804204113        2.96103949157426
C            3.54477553233062       -0.87559985551661        2.78128546815084
C            4.13000418001385        0.05833186914349        1.94135068751944
C            3.34732691329716        0.99070623631398        1.28325206451039
O            3.98733545211741        1.87020313417361        0.45373081354678
C            3.22126765281077        2.78181118745978       -0.21909390353800
C            3.87999416358462        3.66273096070292       -1.05897346518402
C            3.16755903978714        4.62259224987816       -1.75863224260258
C            1.79562339978581        4.70572196671467       -1.60249294682719
C            1.13035600055665        3.83202996050665       -0.76048231656651
C            1.82723242909219        2.84769073637114       -0.06611635696259
C           -0.79657556739012        2.34110382613842        2.16049777645620
C           -2.16693159902827        2.31822017009958        2.29974966885420
N           -4.58368872237679       -0.02375467150200       -0.01493596216203
H           -2.58299924304740       -2.62175270119454       -3.25048005671588
H           -0.11744737292933       -2.63468855694656       -2.98675613388641
H            0.33785259888838       -0.07905589151834       -2.47579151534773
H            1.71552458354147        1.61590535949299       -3.59422901146230
H            4.16403721824457        1.64402386661796       -3.26070183936901
H            5.20668092412931       -0.02210041438519       -1.73748802567303
H            4.98041030170852       -3.52943757785431        1.17954277525881
H            3.72480110929436       -5.26587254513245        2.43954855417851
H            1.27514267845248       -5.44544836083084        2.14184404236545
H            0.09967454868470       -3.91566866814051        0.63184965187324
H           -0.56758010405268       -1.40839334885865        1.07738478460916
H           -3.00504782664982       -1.38536909889321        0.81672077092606
H           -7.09305838741009       -1.74147665014752       -1.35359004739252
H           -8.38770780841411       -0.04307799960953       -0.02776003689205
H           -7.11942065730230        1.66818624818361        1.30684316105555
H           -3.01370946768129        1.35367044225593       -0.83564802849775
H           -0.57496806856631        1.40202313095050       -1.08016915695674
H            0.32041078269152        0.08220624311144        2.47863663604121
H            1.70803862402068       -1.59839884577582        3.60645417728467
H            4.15893991670330       -1.60085988915616        3.28972147989672
H            5.19451152876787        0.07614268062459        1.77364327109992
H            4.95150031734358        3.58135726547258       -1.14470828350810
H            3.68643612683538        5.30490281231938       -2.41291636684056
H            1.23305557247206        5.45878145608772       -2.13193674495020
H            0.06335881629556        3.91641181571443       -0.63024791618386
H           -0.16459155141899        2.63345624710192        2.98663618581035
H           -2.63158026341177        2.59496632194573        3.23401205662195

 projected vibrational frequencies (cm⁻¹)
eigval :       -0.00    -0.00     0.00     0.00     0.00     0.00
eigval :      -14.56    19.60    21.25    22.85    40.52    41.63
eigval :       50.82    53.61    54.99    67.42    70.45    85.92
eigval :       88.18    92.75   109.04   129.14   130.98   135.73
eigval :      145.51   151.34   163.12   165.54   174.36   202.92
eigval :      217.07   236.86   249.79   254.37   261.10   265.62
eigval :      278.44   282.33   284.82   297.70   331.46   337.16
eigval :      367.75   373.91   379.74   380.96   385.71   385.74
eigval :      395.96   405.80   414.17   418.67   431.76   436.18
eigval :      439.28   442.25   452.49   458.92   471.76   474.91
eigval :      505.21   505.58   520.01   525.88   527.15   533.35
eigval :      549.57   550.94   580.16   583.00   586.54   588.16
eigval :      599.44   608.78   610.11   617.02   644.05   652.99
eigval :      663.34   663.73   665.54   666.11   666.81   667.60
eigval :      690.06   697.43   700.82   715.94   769.95   777.57
eigval :      779.10   781.93   782.26   785.90   800.36   807.88
eigval :      810.10   814.39   847.10   855.25   856.37   856.43
eigval :      858.41   867.80   868.35   871.11   873.59   875.56
eigval :      895.35   897.21   899.01   900.53   901.48   908.48
eigval :      909.43   912.55   915.22   917.46   917.64   917.70
eigval :      919.51   919.78   924.28   926.69   927.47   960.56
eigval :      984.59  1004.39  1018.03  1028.40  1080.23  1085.83
eigval :     1086.77  1087.85  1088.21  1112.20  1112.28  1119.83
eigval :     1120.96  1130.48  1131.44  1141.44  1164.27  1167.51
eigval :     1170.00  1170.48  1174.77  1175.15  1181.19  1184.06
eigval :     1194.79  1199.78  1206.71  1207.00  1218.31  1225.18
eigval :     1228.05  1229.79  1238.76  1239.05  1251.41  1256.16
eigval :     1257.27  1258.72  1272.26  1308.16  1309.30  1314.89
eigval :     1316.37  1318.29  1319.31  1330.42  1331.01  1345.43
eigval :     1351.43  1382.62  1398.69  1401.84  1417.81  1421.40
eigval :     1422.45  1423.04  1442.14  1442.47  1456.51  1459.01
eigval :     1459.07  1459.87  1478.79  1486.67  1510.04  1529.70
eigval :     1533.80  1561.36  1561.88  1569.25  1569.44  1570.52
eigval :     1575.57  1577.40  1582.65  1591.37  1591.69  1601.06
eigval :     3069.97  3079.94  3080.03  3095.18  3095.21  3095.78
eigval :     3095.83  3098.63  3099.03  3099.18  3099.65  3104.00
eigval :     3104.06  3106.78  3106.90  3106.99  3107.32  3110.07
eigval :     3110.27  3111.59  3111.93  3112.87  3112.91  3116.03
eigval :     3116.08  3119.99  3120.89

   temp. (K)  partition function   enthalpy   heat capacity  entropy
                                   cal/mol     cal/K/mol   cal/K/mol   J/K/mol
 298.15  VIB  0.698E+17            23003.716    147.792    141.306
         ROT  0.278E+08              888.752      2.981     37.041
         INT  0.194E+25            23892.469    150.773    178.346
         TR   0.160E+29             1481.254      4.968     45.275
         TOT                       25373.7225   155.7410   223.6219   935.6339

       T/K    H(0)-H(T)+PV         H(T)/Eh          T*S/Eh         G(T)/Eh
   ------------------------------------------------------------------------
    298.15    0.404356E-01    0.607365E+00    0.106250E+00    0.501115E+00
   ------------------------------------------------------------------------

         :::::::::::::::::::::::::::::::::::::::::::::::::::::
         ::                  THERMODYNAMIC                  ::
         :::::::::::::::::::::::::::::::::::::::::::::::::::::
         :: total free energy        -130.356340543818 Eh   ::
         ::.................................................::
         :: total energy             -130.857455849097 Eh   ::
         :: zero point energy           0.566929675914 Eh   ::
         :: G(RRHO) w/o ZPVE           -0.065814370635 Eh   ::
         :: G(RRHO) contrib.            0.501115305279 Eh   ::
         :::::::::::::::::::::::::::::::::::::::::::::::::::::

           -------------------------------------------------
          | TOTAL ENERGY             -130.857455849097 Eh   |
          | TOTAL ENTHALPY           -130.250090572565 Eh   |
          | TOTAL FREE ENERGY        -130.356340543818 Eh   |
          | GRADIENT NORM               0.000122552424 Eh/α |
           -------------------------------------------------

 * finished run on 2025/09/07 at 04:26:48.131
