   * xtb version 6.7.1 (edcfbbe) compiled by 'albert@albert-system' on 2024-07-22

   ID    Z sym.   atoms
    1    8 O      1, 14, 29, 41
    2    6 C      2-6, 8-13, 15-28, 30-33, 35-40, 42-49
    3    7 N      7, 34, 50
    4    1 H      51-77

          program call               : xtb data2507/gas/26DPXZBPy/26DPXZBPy_gas_S0_crest.xyz --gfn 2 --ohess vtight --parallel 40 --molden --ceasefiles --namespace data2507/gas/26DPXZBPy/26DPXZBPy_gas_S0_finalOpt
          :  Hamiltonian                  GFN2-xTB          :
 * total energy  :  -130.9164235 Eh     change       -0.2124295E-08 Eh
 * total energy  :  -130.9164246 Eh     change       -0.1113620E-05 Eh
 * total energy  :  -130.9164256 Eh     change       -0.9675317E-06 Eh
 * total energy  :  -130.9164270 Eh     change       -0.1376769E-05 Eh
 * total energy  :  -130.9164277 Eh     change       -0.6909674E-06 Eh
 * total energy  :  -130.9164283 Eh     change       -0.6006786E-06 Eh
 * total energy  :  -130.9164292 Eh     change       -0.9273594E-06 Eh
 * total energy  :  -130.9164301 Eh     change       -0.9196657E-06 Eh
 * total energy  :  -130.9164305 Eh     change       -0.4380711E-06 Eh
 * total energy  :  -130.9164308 Eh     change       -0.2788513E-06 Eh
 * total energy  :  -130.9164312 Eh     change       -0.1907653E-06 Eh
 * total energy  :  -130.9164314 Eh     change       -0.1959770E-06 Eh
 * total energy  :  -130.9164317 Eh     change       -0.2619677E-06 Eh
 * total energy  :  -130.9164319 Eh     change       -0.2786796E-06 Eh
 * total energy  :  -130.9164322 Eh     change       -0.3090627E-06 Eh
 * total energy  :  -130.9164326 Eh     change       -0.3691683E-06 Eh
 * total energy  :  -130.9164330 Eh     change       -0.3523677E-06 Eh
 * total energy  :  -130.9164332 Eh     change       -0.1818379E-06 Eh
 * total energy  :  -130.9164332 Eh     change       -0.2699238E-08 Eh
   *** GEOMETRY OPTIMIZATION CONVERGED AFTER 22 ITERATIONS ***

 final structure:
================
77
 xtb: 6.7.1 (edcfbbe)
O           -4.93966027844447       -2.53719618517500       -2.42023183791290
C           -4.41535987379921       -1.88446978402890       -1.53895580787033
C           -2.96216564559835       -1.92432052551531       -1.27311951290347
C           -2.10434555765290       -2.15017426852644       -2.35128802220712
C           -0.73708175782557       -2.14629578054067       -2.17785711723810
C           -0.19394164998821       -1.93625153586881       -0.91015243302446
N            1.20054022562023       -1.91048967014392       -0.72947120405004
C            1.98942868126224       -0.98121108993470       -1.41685573714400
C            1.44264961884398       -0.00498297565647       -2.24072653198345
C            2.24951548825421        0.91049851676185       -2.89806123077695
C            3.62020793317364        0.86767362072847       -2.74331479708040
C            4.18177461163607       -0.08341229074049       -1.90616535953386
C            3.37898392975284       -0.99225628112771       -1.24068404598366
O            4.00938534347315       -1.88393997154132       -0.41255953888853
C            3.22455182193910       -2.77700555067891        0.26858325373675
C            3.87700636391709       -3.66830046434290        1.10017271870671
C            3.16139637784377       -4.62734238137954        1.79957192654291
C            1.79288063956033       -4.70219504121245        1.63880613284971
C            1.13467511906438       -3.81291021153792        0.80345068265116
C            1.83164334557437       -2.81966656882184        0.12716304899962
C           -1.04962173882239       -1.76004602073837        0.17604813406637
C           -2.41689723655021       -1.75042990236109       -0.00164061146367
C           -5.22189967303805       -0.93150945236024       -0.71511426516209
C           -6.61727485674386       -0.97755757897974       -0.75183840065092
C           -7.32867707649030       -0.03835134699317       -0.02343271050117
C           -6.63235603196174        0.90824136095897        0.70997607420483
C           -5.23635806788555        0.87684264798523        0.68309637462176
C           -4.44555678996009        1.83835078279482        1.51223876237901
O           -4.98240025492531        2.48492452771000        2.39048206106407
C           -2.99132833371001        1.89432997282143        1.25510408131063
C           -2.43661880114401        1.72668140902826       -0.01313291560469
C           -1.06846705330424        1.75052408297291       -0.18261641653974
C           -0.22126524839989        1.93506754965165        0.90882808251003
N            1.17451561410808        1.92257483837572        0.73694179013665
C            1.96776412661093        1.00121296329679        1.42997231663754
C            1.42509140354214        0.02044833779320        2.25117859297636
C            2.23637695786661       -0.88713197054226        2.91399782468639
C            3.60752124084807       -0.83175755114467        2.76752015692201
C            4.16532554132829        0.12411089283449        1.93330563449061
C            3.35822702462723        1.02514988751029        1.26243574558625
O            3.98546094833767        1.92240813850139        0.43794170224332
C            3.19674110123433        2.80898061420935       -0.24717963225438
C            3.84619549702844        3.70739997232529       -1.07342975068038
C            3.12615924036558        4.66050541861920       -1.77639191532219
C            1.75595169708936        4.72217562124787       -1.62464748063948
C            1.10069570033631        3.82571103280491       -0.79465291447542
C            1.80260653809056        2.83843407685653       -0.11475964316782
C           -0.77423718570922        2.13957943155016        2.17318905925123
C           -2.14247294076137        2.12915016377860        2.33842682608550
N           -4.56050215432686       -0.02381708765530       -0.01364720654547
H           -2.53269867626079       -2.31972283162831       -3.32799635789192
H           -0.07919541630146       -2.31699650298984       -3.01737823094652
H            0.37341510293928        0.03625773764331       -2.37446760892719
H            1.79532918857835        1.66010262971706       -3.52766078457774
H            4.25220554933620        1.57358685833838       -3.25741059080100
H            5.24640756228454       -0.13261844885299       -1.74515007202677
H            4.94974072704660       -3.59648182894607        1.17987718595194
H            3.67776535187904       -5.31546359576503        2.45003622145181
H            1.22252369743384       -5.45848056053844        2.15584965505112
H            0.06871594986292       -3.90472465116951        0.66830916653004
H           -0.62931532289771       -1.62121104997959        1.15972084182210
H           -3.06138384538070       -1.61671608995564        0.85153583327902
H           -7.10452782355879       -1.73784099005054       -1.34207444855991
H           -8.40890365410493       -0.04403373932787       -0.02724423827264
H           -7.13174588420840        1.66334092249426        1.29671174785874
H           -3.07455282984799        1.58656377146112       -0.87020402182288
H           -0.64088585566136        1.61631252994476       -1.16380588312498
H            0.35551380760419       -0.03063444859007        2.37858284200302
H            1.78529769478857       -1.64044930631956        3.54139296600775
H            4.24287715335627       -1.53150791000793        3.28587766425271
H            5.23041895925372        0.18314769219442        1.77878157207952
H            4.92005877563329        3.64578278687426       -1.14616388119479
H            3.64028035990419        5.35431391433596       -2.42258347093648
H            1.18190262092324        5.47360935495672       -2.14467140016814
H            0.03301837076985        3.90712271084830       -0.66654269027673
H           -0.12321279821496        2.31711157882539        3.01663143383067
H           -2.57843018674289        2.29401095991617        3.31256766105394

          :  Hamiltonian                  GFN2-xTB          :
         :: gradient norm              0.000032978865 Eh/a0 ::
         :: HOMO-LUMO gap              1.008518695997 eV    ::
         :: SCC energy              -133.105561203024 Eh    ::
         :: -> dispersion             -0.131370325388 Eh    ::
         :: repulsion energy           2.189128050226 Eh    ::

    * Orbital Energies and Occupations

         #    Occupation            Energy/Eh            Energy/eV
      -------------------------------------------------------------
         1        2.0000           -0.7301834             -19.8693
       ...           ...                  ...                  ...
       107        2.0000           -0.4218110             -11.4781
       108        2.0000           -0.4215183             -11.4701
       109        2.0000           -0.4206896             -11.4475
       110        2.0000           -0.4179815             -11.3739
       111        2.0000           -0.4166215             -11.3368
       112        2.0000           -0.4133931             -11.2490
       113        2.0000           -0.4133850             -11.2488
       114        2.0000           -0.3994100             -10.8685
       115        2.0000           -0.3931591             -10.6984
       116        2.0000           -0.3918659             -10.6632
       117        2.0000           -0.3819334             -10.3929
       118        2.0000           -0.3483068              -9.4779
       119        2.0000           -0.3448796              -9.3847 (HOMO)
       120                         -0.3078171              -8.3761 (LUMO)
       121                         -0.3049764              -8.2988
       122                         -0.2615459              -7.1170
       123                         -0.2524622              -6.8698
       124                         -0.2451839              -6.6718
       125                         -0.2440835              -6.6419
       126                         -0.2410342              -6.5589
       127                         -0.2369870              -6.4487
       128                         -0.2325400              -6.3277
       129                         -0.2312017              -6.2913
       130                         -0.2210672              -6.0155
       ...                                ...                  ...
       227                          0.6937625              18.8782
      -------------------------------------------------------------
                  HL-Gap            0.0370624 Eh            1.0085 eV

     #   Z          covCN         q      C6AA      α(0)
     1   8 O        0.858    -0.364    20.974     6.140
     2   6 C        2.829     0.223    23.321     7.913
     3   6 C        2.972    -0.008    28.221     8.714
     4   6 C        2.925    -0.018    28.468     8.750
     5   6 C        2.920    -0.041    29.013     8.833
     6   6 C        2.920     0.072    26.393     8.425
     7   7 N        2.751    -0.068    22.561     7.054
     8   6 C        2.922     0.041    27.091     8.536
     9   6 C        2.925    -0.060    29.501     8.907
    10   6 C        2.919    -0.039    28.980     8.828
    11   6 C        2.919    -0.037    28.931     8.820
    12   6 C        2.920    -0.051    29.264     8.871
    13   6 C        2.886     0.126    25.244     8.237
    14   8 O        1.709    -0.252    18.166     5.755
    15   6 C        2.886     0.126    25.237     8.236
    16   6 C        2.920    -0.055    29.367     8.887
    17   6 C        2.919    -0.039    28.974     8.827
    18   6 C        2.919    -0.039    28.960     8.825
    19   6 C        2.924    -0.059    29.472     8.903
    20   6 C        2.921     0.042    27.063     8.531
    21   6 C        2.921    -0.042    29.039     8.837
    22   6 C        2.920    -0.020    28.502     8.755
    23   6 C        2.954     0.074    26.343     8.418
    24   6 C        2.917    -0.023    28.584     8.767
    25   6 C        2.924    -0.009    28.233     8.714
    26   6 C        2.917    -0.023    28.584     8.767
    27   6 C        2.954     0.074    26.343     8.418
    28   6 C        2.829     0.223    23.321     7.913
    29   8 O        0.858    -0.364    20.974     6.140
    30   6 C        2.972    -0.008    28.221     8.714
    31   6 C        2.920    -0.020    28.502     8.755
    32   6 C        2.921    -0.042    29.038     8.837
    33   6 C        2.920     0.072    26.393     8.425
    34   7 N        2.750    -0.068    22.561     7.054
    35   6 C        2.922     0.041    27.092     8.536
    36   6 C        2.925    -0.060    29.501     8.907
    37   6 C        2.919    -0.039    28.980     8.828
    38   6 C        2.919    -0.037    28.932     8.821
    39   6 C        2.920    -0.051    29.265     8.871
    40   6 C        2.886     0.126    25.245     8.237
    41   8 O        1.709    -0.252    18.166     5.755
    42   6 C        2.886     0.126    25.237     8.236
    43   6 C        2.920    -0.055    29.367     8.887
    44   6 C        2.919    -0.039    28.974     8.827
    45   6 C        2.919    -0.039    28.960     8.825
    46   6 C        2.924    -0.059    29.472     8.903
    47   6 C        2.921     0.042    27.063     8.531
    48   6 C        2.920    -0.041    29.013     8.833
    49   6 C        2.925    -0.018    28.468     8.750
    50   7 N        1.846    -0.225    26.751     7.665
    51   1 H        0.926     0.060     2.195     2.317
    52   1 H        0.926     0.048     2.339     2.391
    53   1 H        0.926     0.033     2.540     2.492
    54   1 H        0.926     0.034     2.527     2.486
    55   1 H        0.926     0.040     2.444     2.445
    56   1 H        0.926     0.055     2.264     2.353
    57   1 H        0.926     0.052     2.292     2.368
    58   1 H        0.926     0.040     2.448     2.447
    59   1 H        0.926     0.038     2.478     2.462
    60   1 H        0.926     0.037     2.486     2.465
    61   1 H        0.926     0.047     2.360     2.402
    62   1 H        0.926     0.051     2.307     2.375
    63   1 H        0.926     0.068     2.102     2.267
    64   1 H        0.926     0.051     2.310     2.377
    65   1 H        0.926     0.068     2.102     2.267
    66   1 H        0.926     0.051     2.307     2.375
    67   1 H        0.926     0.047     2.360     2.402
    68   1 H        0.926     0.033     2.539     2.492
    69   1 H        0.926     0.034     2.527     2.486
    70   1 H        0.926     0.040     2.444     2.445
    71   1 H        0.926     0.055     2.263     2.353
    72   1 H        0.926     0.052     2.292     2.368
    73   1 H        0.926     0.040     2.448     2.447
    74   1 H        0.926     0.038     2.478     2.462
    75   1 H        0.926     0.037     2.486     2.466
    76   1 H        0.926     0.048     2.339     2.391
    77   1 H        0.926     0.060     2.195     2.317

molecular dipole:
                 x           y           z       tot (Debye)
 q only:        0.534       0.004       0.002
   full:        0.022       0.002      -0.000       0.055

 projected vibrational frequencies (cm⁻¹)
eigval :       -0.00     0.00     0.00     0.00     0.00     0.00
eigval :        8.70    18.00    24.91    26.29    37.39    38.68
eigval :       51.50    58.56    58.65    66.10    83.01    88.44
eigval :       90.96    93.33   117.85   129.45   131.57   135.32
eigval :      142.67   161.48   164.73   166.83   179.70   210.73
eigval :      216.24   231.76   250.55   255.06   266.73   267.30
eigval :      278.53   281.03   282.69   293.01   339.74   344.34
eigval :      362.90   375.25   377.88   378.97   382.61   384.09
eigval :      395.00   405.25   418.04   420.39   432.63   437.01
eigval :      441.37   443.83   450.33   452.42   476.94   480.34
eigval :      510.11   510.71   523.75   524.00   529.28   539.85
eigval :      557.86   563.26   584.35   586.93   593.27   596.14
eigval :      611.37   612.20   623.66   636.94   651.43   658.56
eigval :      660.87   661.33   662.32   665.00   681.34   694.66
eigval :      696.54   718.31   723.33   743.58   778.60   779.24
eigval :      781.74   782.63   787.20   802.93   803.15   817.95
eigval :      824.58   826.38   856.79   856.84   861.05   866.43
eigval :      870.34   870.38   876.02   878.98   891.39   898.48
eigval :      898.62   898.89   901.09   906.75   912.32   913.96
eigval :      914.71   915.11   915.97   917.69   918.36   928.19
eigval :      934.08   936.81   937.76   941.10   942.32   983.08
eigval :     1012.32  1028.09  1030.02  1090.96  1091.63  1091.95
eigval :     1092.22  1101.11  1109.35  1109.42  1121.23  1122.17
eigval :     1134.01  1134.59  1151.71  1170.42  1170.49  1174.78
eigval :     1175.75  1175.92  1182.03  1182.38  1188.52  1191.86
eigval :     1199.99  1204.36  1204.38  1222.95  1227.80  1242.44
eigval :     1242.63  1244.05  1261.87  1261.91  1262.59  1263.03
eigval :     1276.31  1308.68  1309.73  1310.03  1313.03  1315.89
eigval :     1320.20  1320.84  1336.68  1338.43  1354.99  1355.18
eigval :     1399.88  1402.18  1402.77  1419.67  1424.48  1424.63
eigval :     1442.87  1443.38  1473.05  1473.46  1483.53  1489.38
eigval :     1504.27  1504.41  1548.17  1551.17  1552.88  1557.87
eigval :     1568.92  1569.04  1579.10  1581.05  1581.09  1583.39
eigval :     1591.47  1591.95  1603.10  1603.58  1689.08  1691.26
eigval :     3078.89  3084.90  3084.92  3089.22  3089.23  3090.54
eigval :     3090.56  3096.32  3096.34  3099.55  3099.58  3103.11
eigval :     3103.56  3103.59  3103.98  3104.28  3105.14  3108.16
eigval :     3108.29  3108.75  3109.17  3114.07  3114.19  3115.19
eigval :     3115.29  3118.17  3119.20

   temp. (K)  partition function   enthalpy   heat capacity  entropy
                                   cal/mol     cal/K/mol   cal/K/mol   J/K/mol
 298.15  VIB  0.621E+17            22781.982    146.307    140.160
         ROT  0.277E+08              888.752      2.981     37.036
         INT  0.172E+25            23670.735    149.288    177.195
         TR   0.160E+29             1481.254      4.968     45.275
         TOT                       25151.9885   154.2560   222.4709   930.8184

       T/K    H(0)-H(T)+PV         H(T)/Eh          T*S/Eh         G(T)/Eh
   ------------------------------------------------------------------------
    298.15    0.400822E-01    0.611839E+00    0.105703E+00    0.506136E+00
   ------------------------------------------------------------------------

         :::::::::::::::::::::::::::::::::::::::::::::::::::::
         ::                  THERMODYNAMIC                  ::
         :::::::::::::::::::::::::::::::::::::::::::::::::::::
         :: total free energy        -130.410297456613 Eh   ::
         ::.................................................::
         :: total energy             -130.916433152797 Eh   ::
         :: zero point energy           0.571756577533 Eh   ::
         :: G(RRHO) w/o ZPVE           -0.065620881349 Eh   ::
         :: G(RRHO) contrib.            0.506135696184 Eh   ::
         :::::::::::::::::::::::::::::::::::::::::::::::::::::

           -------------------------------------------------
          | TOTAL ENERGY             -130.916433152797 Eh   |
          | TOTAL ENTHALPY           -130.304594330244 Eh   |
          | TOTAL FREE ENERGY        -130.410297456613 Eh   |
          | GRADIENT NORM               0.000032988880 Eh/α |
          | HOMO-LUMO GAP               1.008520581982 eV   |
           -------------------------------------------------

 * finished run on 2025/09/07 at 04:26:33.633
