   * xtb version 6.7.1 (edcfbbe) compiled by 'albert@albert-system' on 2024-07-22

   ID    Z sym.   atoms
    1    6 C      1-15, 17-20, 24-27, 29-71
    2    7 N      16, 28
    3   16 S      21
    4    8 O      22, 23
    5    1 H      72-123

          program call               : xtb data2507/toluene/PDA-DP/PDA-DP_toluene_S0_crest.xyz --gfn 2 --gbsa toluene --ohess vtight --parallel 40 --molden --ceasefiles --namespace data2507/toluene/PDA-DP/PDA-DP_toluene_S0_finalOpt
      * Solvation model:               GBSA
        Solvent                        toluene
        Solvent mass                       9.2140E+01 g/mol
          :  Hamiltonian                  GFN2-xTB          :
 * total energy  :  -185.1898945 Eh     change       -0.1017980E-08 Eh
 * total energy  :  -185.1900709 Eh     change       -0.1763875E-03 Eh
 * total energy  :  -185.1902016 Eh     change       -0.1306794E-03 Eh
 * total energy  :  -185.1902440 Eh     change       -0.4244332E-04 Eh
 * total energy  :  -185.1903019 Eh     change       -0.5782960E-04 Eh
 * total energy  :  -185.1903449 Eh     change       -0.4300683E-04 Eh
 * total energy  :  -185.1903840 Eh     change       -0.3916730E-04 Eh
 * total energy  :  -185.1904147 Eh     change       -0.3060565E-04 Eh
 * total energy  :  -185.1904436 Eh     change       -0.2899374E-04 Eh
 * total energy  :  -185.1904672 Eh     change       -0.2351421E-04 Eh
 * total energy  :  -185.1915372 Eh     change       -0.1776447E-05 Eh
 * total energy  :  -185.1915387 Eh     change       -0.1539951E-05 Eh
 * total energy  :  -185.1915400 Eh     change       -0.1289524E-05 Eh
 * total energy  :  -185.1915412 Eh     change       -0.1173482E-05 Eh
 * total energy  :  -185.1915424 Eh     change       -0.1139359E-05 Eh
 * total energy  :  -185.1915437 Eh     change       -0.1344562E-05 Eh
 * total energy  :  -185.1915452 Eh     change       -0.1477927E-05 Eh
 * total energy  :  -185.1915466 Eh     change       -0.1432128E-05 Eh
 * total energy  :  -185.1915467 Eh     change       -0.5628146E-07 Eh
   *** GEOMETRY OPTIMIZATION CONVERGED AFTER 94 ITERATIONS ***

 final structure:
================
123
 xtb: 6.7.1 (edcfbbe)
C            5.38429429683496        2.10239098457341       -2.70782190750991
C            5.25879459446920        1.73943534438372       -1.21636191487268
C            5.96960849004285        2.79515479670689       -0.34886085038903
C            5.92395774199311        0.39543339775596       -0.98402212807704
C            7.27010128264897        0.24471337528740       -1.27784911578090
C            7.96292774799272       -0.94103117645337       -1.05535618116158
C            9.38944958733312       -1.05189401905188       -1.39008047620632
C           10.27093819524501       -1.72492030156683       -0.54563959119490
C           11.61368637580991       -1.82369380449798       -0.86025508302427
C           12.10110447387030       -1.25477536294525       -2.02550302354906
C           11.23458478160556       -0.58646285378403       -2.87487190091118
C            9.89217714956171       -0.48485142416598       -2.56017019712345
C            7.26459800726153       -2.00717001077740       -0.49561139669369
C            5.92386045582434       -1.88753062713607       -0.20530794737592
C            5.22986708474602       -0.70146531409074       -0.46282476812995
N            3.87649301987423       -0.61610284833609       -0.16600945233574
C            3.18748609267232       -1.76353692985223        0.29441999517202
C            2.71887678898935       -1.81255056266236        1.60701636260792
C            1.95414699275999       -2.88501375250696        2.02609905773304
C            1.67910822571189       -3.90997449417519        1.13854109521920
S            0.42141577376648       -5.10428934408765        1.59589236625317
O            0.54904307026651       -5.46541834329740        2.98993801262407
O            0.40050631506342       -6.18095588928817        0.63105819413581
C           -1.00966722227053       -4.04350038366189        1.37793796415075
C           -1.63792332503877       -3.48668196178244        2.47550575553197
C           -2.58378403378488       -2.49433879031759        2.28479475895637
C           -2.87550806757952       -2.05023759611734        0.99624798850757
N           -3.76192106818475       -0.96604138829094        0.79399458915018
C           -3.34641707449308        0.31800961263686        1.13179325513922
C           -2.12081696469817        0.51536637171202        1.77494777458094
C           -1.68907071799967        1.77534122664698        2.12466930847438
C           -2.46070453696364        2.89658962473234        1.83151710399134
C           -2.01544791156518        4.24525564908326        2.20498122712546
C           -2.93122717820589        5.21741871556880        2.60570030282283
C           -2.50869575808896        6.48456276728297        2.96140717004127
C           -1.16204428297881        6.80615152362285        2.92692689883837
C           -0.24208786793397        5.84868607434615        2.53406338611174
C           -0.66307493395118        4.58224704567535        2.17656362957711
C           -3.66529040920440        2.69133886012434        1.16551871056319
C           -4.12697523392942        1.43352177370565        0.80835150129383
C           -5.44038130120222        1.31552100282206        0.05639598384801
C           -6.56012693173936        1.94206178545894        0.90806896314930
C           -5.30785878783090        2.06379074925154       -1.28328374409412
C           -5.80060855595764       -0.13106109864318       -0.22565285722494
C           -6.99394932960510       -0.42205954692899       -0.86845856384558
C           -7.40190793514701       -1.72216972325344       -1.14800114031473
C           -8.67059218870511       -1.98341879529497       -1.84170079141931
C           -8.75687057579967       -2.97982338015085       -2.81275980391981
C           -9.94982015219968       -3.22802298401505       -3.46601499783426
C          -11.08015216905989       -2.48820221288777       -3.15927855401557
C          -11.00779445267056       -1.49669460591173       -2.19461438941469
C           -9.81461801606314       -1.24534503791000       -1.54289315655800
C           -6.57671408948516       -2.76607871627290       -0.73842497497108
C           -5.38917097794065       -2.50433947973341       -0.09305642744872
C           -4.97122675405677       -1.19229217459359        0.14988248137726
C           -2.26263244229309       -2.65082603043337       -0.10315056851741
C           -1.32605887865674       -3.64765464344242        0.09019116198253
C            2.17940723560694       -3.89925496028206       -0.15007786013646
C            2.94126960807857       -2.82529129601787       -0.57390492918851
C            3.15965038313719        0.55955697326402       -0.36097052528605
C            1.78499274992047        0.59448134875561       -0.10603852647924
C            1.05347364424980        1.74849234507370       -0.27625123806893
C            1.66867968149518        2.91789761339385       -0.71521861055094
C            0.90532706407643        4.16276255632892       -0.87810045058562
C            1.47673732228000        5.39739313865918       -0.57373677636532
C            0.75278068357196        6.56648352857640       -0.71305567074531
C           -0.55655173991999        6.52650104240869       -1.16136045560062
C           -1.13537986035682        5.30701317553696       -1.46960122791284
C           -0.41361688959177        4.13706547297322       -1.32930166079075
C            3.02971021356495        2.86323626718299       -1.00040358108580
C            3.78780761826942        1.71285577962583       -0.84363285021796
H            4.90816145855473        1.33645192581902       -3.31769681781297
H            4.90469207681700        3.05408974919556       -2.91861261120044
H            6.42751077520969        2.17696051535893       -3.00125427230647
H            5.85677405897936        2.54654098687734        0.70512108251205
H            7.03061947982895        2.83643613683900       -0.57861452220939
H            5.54735730072958        3.78186499004814       -0.51708526143960
H            7.81983112724243        1.08422316059299       -1.67473350412076
H            9.90250514005883       -2.15622792110718        0.37411746962291
H           12.28484911143859       -2.34440166148333       -0.19176921121606
H           13.15040441234584       -1.33263942343295       -2.27084015237922
H           11.60729153490429       -0.14514990751039       -3.78852340662334
H            9.21995562907734        0.02116197174665       -3.23816782582539
H            7.76711420877057       -2.94351499967971       -0.30369219985299
H            5.40435285401018       -2.72605830939836        0.23268556065414
H            2.93385601047990       -0.99476603365488        2.27798057666349
H            1.56226971037862       -2.94045101121911        3.02934110436060
H           -1.37200697028256       -3.83400903683227        3.46163429734838
H           -3.08154869573335       -2.04178326367068        3.12908967536843
H           -1.49131000640669       -0.32983674405162        2.00367610251124
H           -0.74964391356288        1.88389699130478        2.64514344939885
H           -3.98210363200581        4.97269405206387        2.66199331080699
H           -3.23299882471561        7.22430484681688        3.27264317212046
H           -0.83216542784901        7.79640986226144        3.20608733943983
H            0.81030789351198        6.09066318874740        2.50282716892254
H            0.06358381866110        3.85358862547498        1.85054187858102
H           -4.24884664838262        3.55789343558455        0.89673420458146
H           -6.66217076637404        1.39796938922012        1.84560621093893
H           -6.33995892496841        2.98099397686078        1.13582811793521
H           -7.51137245259768        1.90683674530310        0.38498700444100
H           -6.22729386783111        1.99321003493062       -1.85807552669740
H           -5.08800890055632        3.11495870422378       -1.11887480214331
H           -4.50099838811778        1.63178245049911       -1.87295779452756
H           -7.63055981720442        0.38795596270353       -1.18942837148624
H           -7.87585446529885       -3.55073228498162       -3.06900516416820
H           -9.99851444200007       -4.00128026343596       -4.21977714294782
H          -12.01266447798264       -2.68397244689772       -3.66856365350075
H          -11.88738552289308       -0.91941012241246       -1.94666865463624
H           -9.77280895455950       -0.48409199705265       -0.77718232573872
H           -6.87829820369597       -3.79016295718332       -0.90105596320388
H           -4.77642355314878       -3.32942230196961        0.23704967117484
H           -2.51036133579447       -2.31538726490119       -1.09888856559550
H           -0.82400536719468       -4.11490397624781       -0.74175354103763
H            1.95094816314602       -4.72485714144071       -0.80570004066662
H            3.32695083526636       -2.78930343734262       -1.58156142408404
H            1.27734251958869       -0.29695899181208        0.22718932416529
H           -0.00065219101462        1.74378750252818       -0.04247598193656
H            2.48989822373065        5.43948710737143       -0.20041245405517
H            1.20968208066467        7.51453132031803       -0.46627422969667
H           -1.12301542139857        7.44030672750311       -1.26713456359461
H           -2.15536459933951        5.26863596716117       -1.82450243867251
H           -0.87144920953188        3.19326636304276       -1.58729035127041
H            3.50399712705728        3.75416796348582       -1.38172600894234

          :  Hamiltonian                  GFN2-xTB          :
         :: gradient norm              0.000164491692 Eh/a0 ::
         :: HOMO-LUMO gap              1.904712401535 eV    ::
         :: SCC energy              -188.511563721645 Eh    ::
         :: -> dispersion             -0.185663623073 Eh    ::
         :: -> Gsolv                  -0.076047951458 Eh    ::
         :: repulsion energy           3.320017059839 Eh    ::

    * Orbital Energies and Occupations

         #    Occupation            Energy/Eh            Energy/eV
      -------------------------------------------------------------
         1        2.0000           -0.7812922             -21.2600
       ...           ...                  ...                  ...
       160        2.0000           -0.4016649             -10.9299
       161        2.0000           -0.4008929             -10.9089
       162        2.0000           -0.4005121             -10.8985
       163        2.0000           -0.4001894             -10.8897
       164        2.0000           -0.3991037             -10.8602
       165        2.0000           -0.3982833             -10.8378
       166        2.0000           -0.3980295             -10.8309
       167        2.0000           -0.3930493             -10.6954
       168        2.0000           -0.3926251             -10.6839
       169        2.0000           -0.3843094             -10.4576
       170        2.0000           -0.3836694             -10.4402
       171        2.0000           -0.3478722              -9.4661
       172        2.0000           -0.3474574              -9.4548 (HOMO)
       173                         -0.2774604              -7.5501 (LUMO)
       174                         -0.2586509              -7.0383
       175                         -0.2545103              -6.9256
       176                         -0.2539466              -6.9102
       177                         -0.2465154              -6.7080
       178                         -0.2463696              -6.7041
       179                         -0.2321579              -6.3173
       180                         -0.2318110              -6.3079
       181                         -0.2213112              -6.0222
       182                         -0.2208858              -6.0106
       183                         -0.2204320              -5.9983
       ...                                ...                  ...
       341                          1.1736244              31.9359
      -------------------------------------------------------------
                  HL-Gap            0.0699970 Eh            1.9047 eV

     #   Z          covCN         q      C6AA      α(0)
     1   6 C        3.761    -0.104    22.534     6.767
     2   6 C        3.909     0.022    20.149     6.380
     3   6 C        3.761    -0.104    22.529     6.766
     4   6 C        2.977    -0.012    28.304     8.727
     5   6 C        2.934    -0.041    29.031     8.836
     6   6 C        2.974    -0.004    28.128     8.700
     7   6 C        2.976     0.010    27.798     8.648
     8   6 C        2.925    -0.036    28.902     8.816
     9   6 C        2.918    -0.032    28.788     8.798
    10   6 C        2.920    -0.034    28.847     8.808
    11   6 C        2.918    -0.032    28.792     8.799
    12   6 C        2.925    -0.037    28.909     8.817
    13   6 C        2.924    -0.038    28.940     8.822
    14   6 C        2.922    -0.060    29.499     8.907
    15   6 C        2.927     0.054    26.778     8.486
    16   7 N        2.753    -0.061    22.419     7.032
    17   6 C        2.927     0.077    26.273     8.406
    18   6 C        2.923    -0.032    28.806     8.802
    19   6 C        2.963    -0.027    28.681     8.784
    20   6 C        2.971    -0.079    29.965     8.979
    21  16 S        3.827     0.949   108.134    17.502
    22   8 O        0.860    -0.570    25.384     6.755
    23   8 O        0.860    -0.571    25.412     6.759
    24   6 C        2.971    -0.079    29.967     8.979
    25   6 C        2.951    -0.024    28.601     8.772
    26   6 C        2.923    -0.033    28.819     8.804
    27   6 C        2.927     0.077    26.277     8.406
    28   7 N        2.753    -0.061    22.428     7.034
    29   6 C        2.926     0.054    26.791     8.488
    30   6 C        2.921    -0.061    29.520     8.910
    31   6 C        2.925    -0.037    28.911     8.818
    32   6 C        2.973    -0.003    28.101     8.695
    33   6 C        2.975     0.009    27.804     8.649
    34   6 C        2.925    -0.037    28.919     8.819
    35   6 C        2.918    -0.032    28.807     8.801
    36   6 C        2.920    -0.034    28.842     8.807
    37   6 C        2.919    -0.030    28.758     8.794
    38   6 C        2.926    -0.035    28.864     8.811
    39   6 C        2.934    -0.041    29.013     8.834
    40   6 C        2.977    -0.011    28.295     8.725
    41   6 C        3.909     0.022    20.146     6.380
    42   6 C        3.761    -0.104    22.527     6.766
    43   6 C        3.761    -0.103    22.513     6.764
    44   6 C        2.977    -0.012    28.299     8.726
    45   6 C        2.933    -0.041    29.030     8.836
    46   6 C        2.974    -0.004    28.121     8.698
    47   6 C        2.976     0.010    27.798     8.648
    48   6 C        2.925    -0.036    28.902     8.816
    49   6 C        2.918    -0.032    28.787     8.798
    50   6 C        2.920    -0.034    28.845     8.807
    51   6 C        2.918    -0.032    28.791     8.799
    52   6 C        2.925    -0.036    28.905     8.817
    53   6 C        2.924    -0.038    28.939     8.822
    54   6 C        2.922    -0.060    29.483     8.904
    55   6 C        2.928     0.054    26.783     8.487
    56   6 C        2.923    -0.032    28.809     8.802
    57   6 C        2.965    -0.028    28.690     8.786
    58   6 C        2.954    -0.024    28.606     8.773
    59   6 C        2.923    -0.032    28.809     8.802
    60   6 C        2.927     0.054    26.790     8.488
    61   6 C        2.921    -0.061    29.509     8.908
    62   6 C        2.924    -0.038    28.944     8.823
    63   6 C        2.973    -0.004    28.108     8.696
    64   6 C        2.975     0.011    27.776     8.645
    65   6 C        2.925    -0.035    28.875     8.812
    66   6 C        2.918    -0.031    28.764     8.795
    67   6 C        2.920    -0.033    28.828     8.805
    68   6 C        2.919    -0.030    28.757     8.794
    69   6 C        2.925    -0.034    28.856     8.809
    70   6 C        2.933    -0.042    29.034     8.837
    71   6 C        2.977    -0.012    28.298     8.726
    72   1 H        0.925     0.031     2.566     2.505
    73   1 H        0.925     0.043     2.411     2.428
    74   1 H        0.925     0.042     2.416     2.431
    75   1 H        0.925     0.031     2.567     2.505
    76   1 H        0.925     0.042     2.420     2.433
    77   1 H        0.925     0.043     2.411     2.428
    78   1 H        0.926     0.038     2.471     2.458
    79   1 H        0.926     0.030     2.592     2.518
    80   1 H        0.926     0.028     2.619     2.531
    81   1 H        0.926     0.028     2.622     2.532
    82   1 H        0.926     0.029     2.606     2.524
    83   1 H        0.926     0.032     2.563     2.504
    84   1 H        0.926     0.031     2.578     2.511
    85   1 H        0.926     0.026     2.644     2.543
    86   1 H        0.926     0.070     2.089     2.260
    87   1 H        0.926     0.062     2.177     2.308
    88   1 H        0.926     0.066     2.135     2.285
    89   1 H        0.926     0.070     2.081     2.256
    90   1 H        0.926     0.027     2.633     2.537
    91   1 H        0.926     0.033     2.540     2.492
    92   1 H        0.926     0.031     2.573     2.509
    93   1 H        0.926     0.028     2.618     2.530
    94   1 H        0.926     0.027     2.630     2.536
    95   1 H        0.926     0.027     2.630     2.536
    96   1 H        0.926     0.031     2.577     2.510
    97   1 H        0.926     0.038     2.470     2.458
    98   1 H        0.925     0.031     2.566     2.505
    99   1 H        0.925     0.042     2.418     2.432
   100   1 H        0.925     0.042     2.421     2.433
   101   1 H        0.925     0.042     2.418     2.431
   102   1 H        0.925     0.043     2.411     2.428
   103   1 H        0.925     0.031     2.572     2.508
   104   1 H        0.926     0.039     2.468     2.457
   105   1 H        0.926     0.030     2.588     2.515
   106   1 H        0.926     0.028     2.616     2.529
   107   1 H        0.926     0.028     2.620     2.531
   108   1 H        0.926     0.029     2.605     2.524
   109   1 H        0.926     0.031     2.566     2.505
   110   1 H        0.926     0.031     2.578     2.511
   111   1 H        0.926     0.026     2.646     2.544
   112   1 H        0.926     0.068     2.107     2.270
   113   1 H        0.926     0.061     2.187     2.313
   114   1 H        0.926     0.065     2.136     2.285
   115   1 H        0.926     0.069     2.097     2.265
   116   1 H        0.926     0.024     2.674     2.557
   117   1 H        0.926     0.034     2.532     2.488
   118   1 H        0.926     0.031     2.573     2.509
   119   1 H        0.926     0.027     2.623     2.533
   120   1 H        0.926     0.026     2.646     2.544
   121   1 H        0.926     0.027     2.628     2.535
   122   1 H        0.926     0.030     2.593     2.518
   123   1 H        0.926     0.039     2.466     2.456

molecular dipole:
                 x           y           z       tot (Debye)
 q only:       -0.247       2.926      -0.874
   full:       -0.221       2.592      -0.799       6.917

 projected vibrational frequencies (cm⁻¹)
eigval :       -0.00    -0.00    -0.00     0.00     0.00     0.00
eigval :        5.29    10.44    16.05    19.40    21.20    22.11
eigval :       26.00    28.08    33.78    41.58    42.63    46.11
eigval :       46.97    49.28    52.86    56.67    60.91    64.43
eigval :       71.40    75.36    78.99    81.01    85.42   108.39
eigval :      111.42   116.33   118.89   122.55   124.59   129.26
eigval :      139.00   139.90   144.52   147.60   177.15   185.55
eigval :      188.07   189.65   192.34   194.93   198.67   201.37
eigval :      202.53   209.39   219.25   243.36   245.61   251.70
eigval :      284.51   291.31   292.37   294.02   311.24   315.22
eigval :      316.78   322.87   325.19   336.36   341.02   346.63
eigval :      350.98   358.55   365.10   370.09   371.24   372.89
eigval :      374.07   374.42   377.53   379.40   382.17   394.08
eigval :      398.74   409.89   417.93   420.95   436.53   441.93
eigval :      451.50   454.30   455.18   463.79   466.87   489.06
eigval :      491.07   495.99   496.11   501.78   507.08   510.54
eigval :      511.82   523.71   537.98   577.02   578.11   580.60
eigval :      583.40   584.06   586.06   587.04   589.90   594.92
eigval :      595.21   600.56   601.05   602.74   604.31   615.89
eigval :      616.62   622.26   625.99   666.83   669.06   669.82
eigval :      670.76   679.70   680.44   683.68   686.05   687.28
eigval :      690.47   694.29   695.54   709.35   714.00   715.44
eigval :      726.71   753.66   757.58   757.69   758.28   809.36
eigval :      815.20   822.44   824.55   826.05   827.82   828.09
eigval :      828.64   871.52   872.54   873.66   874.07   874.98
eigval :      876.05   876.77   877.37   885.69   890.85   892.42
eigval :      892.95   899.40   902.67   902.98   903.85   912.71
eigval :      913.79   914.38   914.44   915.86   916.82   917.73
eigval :      918.22   920.06   921.54   926.06   928.29   928.67
eigval :      930.03   930.39   930.77   930.94   931.47   931.74
eigval :      932.33   940.16   940.23   957.81   958.14   979.70
eigval :      980.29   981.05   981.45  1001.14  1004.94  1013.10
eigval :     1013.67  1066.94  1074.33  1074.70  1080.18  1081.52
eigval :     1085.34  1085.80  1088.36  1088.73  1099.97  1100.18
eigval :     1106.90  1107.55  1107.76  1109.25  1112.83  1120.11
eigval :     1120.63  1121.46  1123.60  1123.97  1158.82  1158.98
eigval :     1162.81  1166.52  1166.84  1168.51  1178.20  1179.26
eigval :     1181.79  1182.20  1182.94  1183.37  1198.18  1199.10
eigval :     1199.28  1201.78  1202.55  1209.36  1210.63  1230.97
eigval :     1231.24  1238.98  1242.78  1249.23  1251.14  1256.40
eigval :     1256.47  1266.57  1268.33  1281.72  1282.16  1284.19
eigval :     1285.37  1293.41  1293.69  1295.99  1296.78  1312.00
eigval :     1313.07  1316.16  1316.30  1318.68  1318.85  1321.18
eigval :     1321.72  1326.39  1326.70  1334.43  1334.80  1351.40
eigval :     1352.29  1391.07  1392.59  1399.68  1400.43  1405.23
eigval :     1405.41  1411.16  1411.28  1418.53  1419.04  1434.40
eigval :     1434.48  1435.44  1435.97  1453.75  1453.95  1464.96
eigval :     1465.37  1471.34  1471.71  1487.34  1487.38  1487.63
eigval :     1488.17  1495.37  1495.88  1497.22  1497.89  1502.17
eigval :     1502.88  1505.10  1505.56  1555.46  1555.59  1566.49
eigval :     1566.77  1571.62  1571.69  1572.71  1574.13  1580.49
eigval :     1580.51  1581.97  1582.35  1586.46  1586.70  1592.62
eigval :     1592.77  1601.88  1601.91  1604.50  1604.71  3021.21
eigval :     3022.20  3023.73  3024.63  3039.22  3039.91  3042.15
eigval :     3042.88  3048.28  3048.95  3053.33  3054.50  3063.43
eigval :     3063.53  3063.55  3064.43  3065.09  3065.86  3067.71
eigval :     3070.44  3074.45  3075.39  3075.70  3077.19  3077.73
eigval :     3077.96  3078.98  3080.27  3080.43  3082.87  3085.78
eigval :     3086.32  3086.58  3087.13  3088.22  3091.06  3091.23
eigval :     3093.37  3093.69  3093.82  3094.05  3094.25  3095.08
eigval :     3095.40  3095.50  3096.09  3103.29  3104.37  3105.13
eigval :     3105.75  3107.04  3108.99

   temp. (K)  partition function   enthalpy   heat capacity  entropy
                                   cal/mol     cal/K/mol   cal/K/mol   J/K/mol
 298.15  VIB  0.168E+30            36648.536    225.578    230.469
         ROT  0.295E+09              888.752      2.981     41.737
         INT  0.496E+38            37537.288    228.559    272.206
         TR   0.278E+29             1481.254      4.968     46.367
         TOT                       39018.5421   233.5275   318.5728  1332.9087

       T/K    H(0)-H(T)+PV         H(T)/Eh          T*S/Eh         G(T)/Eh
   ------------------------------------------------------------------------
    298.15    0.621800E-01    0.102862E+01    0.151364E+00    0.877254E+00
   ------------------------------------------------------------------------

         :::::::::::::::::::::::::::::::::::::::::::::::::::::
         ::                  THERMODYNAMIC                  ::
         :::::::::::::::::::::::::::::::::::::::::::::::::::::
         :: total free energy        -184.314292326509 Eh   ::
         ::.................................................::
         :: total energy             -185.191546659866 Eh   ::
         :: zero point energy           0.966438556578 Eh   ::
         :: G(RRHO) w/o ZPVE           -0.089184223221 Eh   ::
         :: G(RRHO) contrib.            0.877254333357 Eh   ::
         :::::::::::::::::::::::::::::::::::::::::::::::::::::

           -------------------------------------------------
          | TOTAL ENERGY             -185.191546659866 Eh   |
          | TOTAL ENTHALPY           -184.162928098592 Eh   |
          | TOTAL FREE ENERGY        -184.314292326509 Eh   |
          | GRADIENT NORM               0.000164309442 Eh/α |
          | HOMO-LUMO GAP               1.904714727385 eV   |
           -------------------------------------------------

 * finished run on 2025/07/17 at 07:54:17.211
