   * xtb version 6.7.1 (edcfbbe) compiled by 'albert@albert-system' on 2024-07-22

   ID    Z sym.   atoms
    1    6 C      1-15, 17-20, 24-27, 29-71
    2    7 N      16, 28
    3   16 S      21
    4    8 O      22, 23
    5    1 H      72-123

          program call               : xtb data2507/toluene/PDA-DP/PDA-DP_toluene_T1_crest.xyz --gfn 2 --uhf 2 --gbsa toluene --ohess vtight --parallel 40 --molden --ceasefiles --namespace data2507/toluene/PDA-DP/PDA-DP_toluene_T1_finalOpt
      * Solvation model:               GBSA
        Solvent                        toluene
        Solvent mass                       9.2140E+01 g/mol
          :  Hamiltonian                  GFN2-xTB          :
 * total energy  :  -185.1065753 Eh     change       -0.1531325E-07 Eh
 * total energy  :  -185.1070125 Eh     change       -0.4371798E-03 Eh
 * total energy  :  -185.1073701 Eh     change       -0.3575992E-03 Eh
 * total energy  :  -185.1074394 Eh     change       -0.6936830E-04 Eh
 * total energy  :  -185.1075485 Eh     change       -0.1091179E-03 Eh
 * total energy  :  -185.1076451 Eh     change       -0.9654506E-04 Eh
 * total energy  :  -185.1077574 Eh     change       -0.1122733E-03 Eh
 * total energy  :  -185.1078567 Eh     change       -0.9933160E-04 Eh
 * total energy  :  -185.1079323 Eh     change       -0.7561982E-04 Eh
 * total energy  :  -185.1080035 Eh     change       -0.7117846E-04 Eh
 * total energy  :  -185.1082804 Eh     change       -0.1523585E-05 Eh
 * total energy  :  -185.1082818 Eh     change       -0.1433692E-05 Eh
 * total energy  :  -185.1082830 Eh     change       -0.1226944E-05 Eh
 * total energy  :  -185.1082841 Eh     change       -0.1101153E-05 Eh
 * total energy  :  -185.1082853 Eh     change       -0.1144802E-05 Eh
 * total energy  :  -185.1082863 Eh     change       -0.1017141E-05 Eh
 * total energy  :  -185.1082871 Eh     change       -0.8352214E-06 Eh
 * total energy  :  -185.1082878 Eh     change       -0.6345288E-06 Eh
 * total energy  :  -185.1082878 Eh     change       -0.3924671E-07 Eh
   *** GEOMETRY OPTIMIZATION CONVERGED AFTER 44 ITERATIONS ***

 final structure:
================
123
 xtb: 6.7.1 (edcfbbe)
C            5.01086945142546        2.37019965262647       -2.35054639306605
C            4.55455375365414        1.77045993530624       -1.00624184752628
C            4.84801439116181        2.75607199686305        0.14132037868791
C            5.32754148165934        0.49132351924970       -0.75986762669331
C            6.70920475525027        0.52766060685182       -0.69775660208385
C            7.48518430177179       -0.60931894056754       -0.47632565634027
C            8.94592288058479       -0.52163018188759       -0.40913235453257
C            9.66490681710542       -1.30276953424101        0.49752503029963
C           11.04233441700343       -1.21740487864121        0.56549801205639
C           11.73128661664694       -0.35710297718487       -0.27498331427275
C           11.03004329681205        0.41997844617419       -1.18344346793853
C            9.65210953275152        0.34145918042176       -1.24910182248392
C            6.82620974661562       -1.83379534118775       -0.32763696422532
C            5.45692162812591       -1.90110754258914       -0.39180513126117
C            4.68307451494418       -0.74694606531200       -0.59338696616547
N            3.31133921705629       -0.84819814475064       -0.63841169240993
C            2.69646225244002       -2.11352720648116       -0.41391697622246
C            2.55000016881174       -2.59718249151316        0.89515371333676
C            1.88487446264014       -3.77661457770264        1.11965672903893
C            1.36518855138935       -4.50606225270467        0.04209472697189
S            0.09422211209504       -5.69214938646769        0.34781805129658
O            0.33774474341524       -6.38924591958498        1.60228607995478
O           -0.09634286972078       -6.52303068907965       -0.83230735385370
C           -1.25304410128385       -4.56970716305689        0.53694332857149
C           -1.51785789994556       -4.03279074641030        1.80468348387700
C           -2.23995844659879       -2.87170094990129        1.92488163067665
C           -2.68946748841560       -2.20458969929240        0.77529701612244
N           -3.32957128606752       -0.93831782229593        0.86733078650154
C           -2.57573286860460        0.17367070267881        1.18038075962693
C           -1.23716467291254        0.02791625902154        1.57996962386038
C           -0.46848264860533        1.11627431632649        1.90524120292057
C           -0.99300616391431        2.41079963241065        1.82870656174719
C           -0.19012614417985        3.57504278439614        2.20068689082062
C            1.18975176863709        3.59314046056104        1.98270498014211
C            1.94899179161942        4.68731954797405        2.34949215850199
C            1.35136067595076        5.78714079652496        2.94528713450392
C           -0.01589478140740        5.78108836279731        3.17209907437461
C           -0.77813193749759        4.68912874555216        2.80486912507957
C           -2.31356283944544        2.54826235253472        1.39885121791273
C           -3.11899675318130        1.46860412314736        1.08399280652119
C           -4.54179575280000        1.70855156407776        0.62279732606557
C           -5.27770699765545        2.53430671576008        1.69569678570201
C           -4.50496507604712        2.48193031851460       -0.70936804259305
C           -5.29153375338010        0.41125301152823        0.40391609854990
C           -6.62457973943299        0.44075156358792        0.03791719918286
C           -7.37346636315946       -0.71568763374061       -0.18457647422928
C           -8.77845525657150       -0.63793506114954       -0.58480030920039
C           -9.30891267460250       -1.55038244064361       -1.50027456294573
C          -10.63408634665257       -1.47696111841717       -1.88317863452213
C          -11.46095168764516       -0.49697859867099       -1.35584285618175
C          -10.94888910066948        0.41194002930942       -0.44285281630038
C           -9.62229007944976        0.34590998373063       -0.06364140402495
C           -6.73924587951650       -1.95118103211766       -0.00554255438709
C           -5.41704173143427       -2.01076693575588        0.35289687795937
C           -4.66244201490727       -0.83975928133026        0.54057330140557
C           -2.46555161960977       -2.76783468962856       -0.49160723470663
C           -1.75412954338073       -3.93396659824969       -0.60856826181050
C            1.54098972922100       -4.03804769266367       -1.26786405740533
C            2.20616392246000       -2.85892729051165       -1.49467480778985
C            2.50875936036423        0.24531332297136       -0.88143359350617
C            1.11430197006505        0.09019088402767       -0.93405665689074
C            0.28931239441269        1.15963676709342       -1.17717826854595
C            0.81735974421842        2.44115141275998       -1.35672670203296
C           -0.05551871468026        3.59077705879478       -1.59989232612209
C            0.24447151136121        4.84771575536968       -1.07156158405683
C           -0.58816231743508        5.92656388488686       -1.29805586184150
C           -1.73109850939838        5.77822948524059       -2.06776122451713
C           -2.03647048280474        4.53779886399811       -2.60576950653563
C           -1.21178286757160        3.45465105800608       -2.37041967692645
C            2.20281574035061        2.58850664873721       -1.28895106421048
C            3.06059584293521        1.52610898130934       -1.06381281388591
H            4.81522118459916        1.66619404778951       -3.15731816440164
H            4.47814128396446        3.29231382606520       -2.56286231057430
H            6.07448198225201        2.58784394076569       -2.33418936478039
H            4.32299583143483        3.69327654076697       -0.01698100978940
H            4.52330654112312        2.33020270627205        1.08894612744057
H            5.91161681198287        2.96582213949666        0.20710209843452
H            7.21680330198547        1.47370939209909       -0.80054507923578
H            9.13536099843990       -1.96215372175233        1.16972639986836
H           11.58296683862223       -1.82360309818605        1.27837214277287
H           12.80834329069254       -0.29369469221158       -0.22268101046333
H           11.56231467209282        1.08717097682486       -1.84635644283870
H            9.11779926993157        0.93312109294047       -1.97780918330580
H            7.39613763665079       -2.73992440657556       -0.18952466013129
H            4.96104085197920       -2.85440420099180       -0.29443421496946
H            2.95177935139700       -2.02540807500650        1.71881919677260
H            1.73843625911813       -4.16475750624187        2.11566054863318
H           -1.13759553903362       -4.55733840532125        2.66749964174332
H           -2.45767417031653       -2.45620309421187        2.89806480461866
H           -0.80651557122852       -0.95805064846607        1.63576761667223
H            0.54460433388539        0.96106287519931        2.24150440521587
H            1.66097702981490        2.75459163917489        1.49286799335948
H            3.01465324167841        4.68607368002634        2.17083749552759
H            1.94705408256987        6.64112645954488        3.23298638108490
H           -0.48809628087945        6.63091678240842        3.64415597271530
H           -1.83725166962052        4.68712793949499        3.01486819382606
H           -2.70906564210081        3.54526585036566        1.28970604907211
H           -4.79748167970293        3.49738467526668        1.83774070830825
H           -6.30890329562550        2.71229835470129        1.40721508874126
H           -5.27213730286564        2.00025084837865        2.64409383007119
H           -5.51044988796890        2.73461759909837       -1.03346333684206
H           -3.93130917902197        3.39855439713834       -0.60766688564551
H           -4.03926760371791        1.87129122242290       -1.48013641843559
H           -7.10905336965067        1.39261347358724       -0.11163227134069
H           -8.66763956602676       -2.30520580799389       -1.93175149750815
H          -11.02649683079667       -2.18612919663224       -2.59817971675918
H          -12.49782287762475       -0.44316356853214       -1.65372691176247
H          -11.59039073531273        1.17357742668282       -0.02285136071679
H           -9.24052449155843        1.04373458483630        0.66696252762580
H           -7.29961998929539       -2.86606697619716       -0.12334299619250
H           -4.94373366761512       -2.96842047786738        0.50534613117323
H           -2.84405852120608       -2.26307747252163       -1.36858341889243
H           -1.55122438072603       -4.37995049605845       -1.56956314401772
H            1.14303542440991       -4.63080464668438       -2.07659469369022
H            2.34794818412319       -2.48989878670278       -2.49997551657774
H            0.68703570052852       -0.88641046113867       -0.77302275187521
H           -0.77837034793629        1.00978725482825       -1.19580741585028
H            1.11789624125005        4.97244779937666       -0.45043336899601
H           -0.34572842394060        6.88869442897485       -0.86995575316261
H           -2.37917636615104        6.62333310991236       -2.24876938488163
H           -2.92178867708792        4.41651702867192       -3.21333981241846
H           -1.44857236599009        2.49723643752351       -2.81040308395721
H            2.61453981321243        3.57370399077583       -1.43968645708650

          :  Hamiltonian                  GFN2-xTB          :
         :: gradient norm              0.000104721950 Eh/a0 ::
         :: HOMO-LUMO gap              0.094801278777 eV    ::
         :: SCC energy              -188.408860975855 Eh    ::
         :: -> dispersion             -0.192883039041 Eh    ::
         :: -> Gsolv                  -0.084559944401 Eh    ::
         :: repulsion energy           3.300573196948 Eh    ::

    * Orbital Energies and Occupations

         #    Occupation            Energy/Eh            Energy/eV
      -------------------------------------------------------------
         1        2.0000           -0.7505469             -20.4234
       ...           ...                  ...                  ...
       161        2.0000           -0.4053128             -11.0291
       162        2.0000           -0.4051901             -11.0258
       163        2.0000           -0.4039519             -10.9921
       164        2.0000           -0.4034629             -10.9788
       165        2.0000           -0.4007790             -10.9058
       166        2.0000           -0.4001450             -10.8885
       167        2.0000           -0.3975986             -10.8192
       168        2.0000           -0.3903542             -10.6221
       169        2.0000           -0.3895720             -10.6008
       170        2.0000           -0.3888299             -10.5806
       171        1.6032           -0.3559806              -9.6867
       172        1.3968           -0.3551851              -9.6651
       173        0.8488           -0.2608432              -7.0979 (HOMO)
       174        0.1256           -0.2573601              -7.0031 (LUMO)
       175        0.0256           -0.2557471              -6.9592
       176                         -0.2411147              -6.5611
       177                         -0.2397400              -6.5237
       178                         -0.2325837              -6.3289
       179                         -0.2312205              -6.2918
       180                         -0.2307207              -6.2782
       181                         -0.2296072              -6.2479
       182                         -0.2287685              -6.2251
       183                         -0.2274267              -6.1886
       184                         -0.2247555              -6.1159
       ...                                ...                  ...
       341                          1.1576768              31.5020
      -------------------------------------------------------------
                  HL-Gap            0.0034831 Eh            0.0948 eV

     #   Z          covCN         q      C6AA      α(0)
     1   6 C        3.761    -0.107    22.590     6.775
     2   6 C        3.909     0.024    20.111     6.374
     3   6 C        3.761    -0.105    22.555     6.770
     4   6 C        2.976    -0.004    28.115     8.698
     5   6 C        2.930    -0.040    28.992     8.830
     6   6 C        2.974     0.008    27.843     8.655
     7   6 C        2.976     0.011    27.773     8.645
     8   6 C        2.924    -0.034    28.849     8.808
     9   6 C        2.918    -0.030    28.747     8.792
    10   6 C        2.919    -0.031    28.778     8.797
    11   6 C        2.917    -0.030    28.755     8.793
    12   6 C        2.924    -0.035    28.864     8.810
    13   6 C        2.922    -0.033    28.834     8.806
    14   6 C        2.920    -0.049    29.226     8.865
    15   6 C        2.930     0.057    26.714     8.476
    16   7 N        2.753    -0.016    21.570     6.898
    17   6 C        2.928     0.033    27.260     8.562
    18   6 C        2.916    -0.042    29.034     8.836
    19   6 C        2.959    -0.040    28.985     8.831
    20   6 C        2.965    -0.101    30.539     9.064
    21  16 S        3.853     0.869   110.491    17.692
    22   8 O        0.860    -0.594    25.981     6.834
    23   8 O        0.860    -0.596    26.011     6.838
    24   6 C        2.965    -0.102    30.570     9.069
    25   6 C        2.959    -0.040    28.998     8.833
    26   6 C        2.915    -0.041    29.027     8.835
    27   6 C        2.929     0.032    27.297     8.568
    28   7 N        2.753    -0.012    21.488     6.885
    29   6 C        2.930     0.056    26.747     8.482
    30   6 C        2.919    -0.049    29.219     8.864
    31   6 C        2.923    -0.032    28.801     8.801
    32   6 C        2.973     0.009    27.821     8.652
    33   6 C        2.975     0.011    27.777     8.645
    34   6 C        2.924    -0.033    28.815     8.803
    35   6 C        2.918    -0.030    28.758     8.794
    36   6 C        2.919    -0.031    28.785     8.798
    37   6 C        2.917    -0.030    28.746     8.792
    38   6 C        2.925    -0.034    28.842     8.807
    39   6 C        2.930    -0.039    28.970     8.827
    40   6 C        2.976    -0.003    28.092     8.694
    41   6 C        3.909     0.024    20.113     6.374
    42   6 C        3.761    -0.107    22.591     6.776
    43   6 C        3.761    -0.105    22.545     6.769
    44   6 C        2.976    -0.003    28.100     8.695
    45   6 C        2.930    -0.040    29.002     8.832
    46   6 C        2.973     0.008    27.847     8.656
    47   6 C        2.975     0.010    27.790     8.647
    48   6 C        2.924    -0.035    28.859     8.810
    49   6 C        2.917    -0.030    28.753     8.793
    50   6 C        2.919    -0.032    28.796     8.800
    51   6 C        2.917    -0.030    28.760     8.794
    52   6 C        2.924    -0.035    28.873     8.812
    53   6 C        2.921    -0.034    28.845     8.807
    54   6 C        2.919    -0.049    29.205     8.862
    55   6 C        2.932     0.055    26.762     8.484
    56   6 C        2.917    -0.041    29.026     8.835
    57   6 C        2.963    -0.041    29.007     8.834
    58   6 C        2.962    -0.040    28.993     8.832
    59   6 C        2.916    -0.041    29.007     8.832
    60   6 C        2.931     0.057    26.730     8.479
    61   6 C        2.919    -0.049    29.220     8.864
    62   6 C        2.923    -0.031    28.785     8.798
    63   6 C        2.973     0.009    27.812     8.651
    64   6 C        2.975     0.011    27.761     8.643
    65   6 C        2.925    -0.033    28.834     8.806
    66   6 C        2.918    -0.030    28.743     8.792
    67   6 C        2.919    -0.031    28.786     8.798
    68   6 C        2.918    -0.030    28.754     8.793
    69   6 C        2.925    -0.033    28.826     8.805
    70   6 C        2.930    -0.039    28.964     8.826
    71   6 C        2.976    -0.004    28.115     8.698
    72   1 H        0.925     0.035     2.513     2.479
    73   1 H        0.925     0.051     2.308     2.376
    74   1 H        0.925     0.050     2.325     2.384
    75   1 H        0.925     0.051     2.302     2.373
    76   1 H        0.925     0.036     2.506     2.476
    77   1 H        0.925     0.049     2.332     2.388
    78   1 H        0.926     0.051     2.309     2.376
    79   1 H        0.926     0.033     2.541     2.493
    80   1 H        0.926     0.031     2.573     2.509
    81   1 H        0.926     0.031     2.569     2.507
    82   1 H        0.926     0.033     2.546     2.495
    83   1 H        0.926     0.037     2.489     2.467
    84   1 H        0.926     0.040     2.452     2.449
    85   1 H        0.926     0.038     2.476     2.461
    86   1 H        0.926     0.044     2.390     2.417
    87   1 H        0.926     0.034     2.534     2.489
    88   1 H        0.926     0.034     2.527     2.486
    89   1 H        0.926     0.046     2.373     2.409
    90   1 H        0.926     0.039     2.457     2.451
    91   1 H        0.926     0.039     2.460     2.453
    92   1 H        0.926     0.034     2.525     2.485
    93   1 H        0.926     0.034     2.528     2.486
    94   1 H        0.926     0.031     2.569     2.506
    95   1 H        0.926     0.031     2.568     2.506
    96   1 H        0.926     0.035     2.519     2.482
    97   1 H        0.926     0.050     2.322     2.383
    98   1 H        0.925     0.050     2.315     2.379
    99   1 H        0.925     0.050     2.324     2.384
   100   1 H        0.925     0.036     2.498     2.472
   101   1 H        0.925     0.050     2.317     2.380
   102   1 H        0.925     0.051     2.310     2.377
   103   1 H        0.925     0.035     2.520     2.483
   104   1 H        0.926     0.051     2.312     2.378
   105   1 H        0.926     0.033     2.551     2.498
   106   1 H        0.926     0.030     2.584     2.514
   107   1 H        0.926     0.030     2.580     2.512
   108   1 H        0.926     0.032     2.555     2.500
   109   1 H        0.926     0.036     2.498     2.472
   110   1 H        0.926     0.040     2.453     2.449
   111   1 H        0.926     0.038     2.471     2.458
   112   1 H        0.926     0.043     2.405     2.425
   113   1 H        0.926     0.033     2.543     2.494
   114   1 H        0.926     0.034     2.525     2.485
   115   1 H        0.926     0.044     2.390     2.417
   116   1 H        0.926     0.036     2.509     2.477
   117   1 H        0.926     0.037     2.483     2.464
   118   1 H        0.926     0.036     2.502     2.474
   119   1 H        0.926     0.031     2.571     2.507
   120   1 H        0.926     0.032     2.561     2.502
   121   1 H        0.926     0.034     2.530     2.487
   122   1 H        0.926     0.032     2.551     2.498
   123   1 H        0.926     0.052     2.301     2.372

molecular dipole:
                 x           y           z       tot (Debye)
 q only:       -0.008       8.305      -0.494
   full:       -0.008       7.685      -0.456      19.567

 projected vibrational frequencies (cm⁻¹)
eigval :       -0.00    -0.00    -0.00     0.00     0.00     0.00
eigval :        7.57    11.65    15.64    18.98    21.25    23.48
eigval :       28.57    29.60    32.26    40.95    44.05    45.28
eigval :       48.21    50.95    51.39    58.69    64.22    66.29
eigval :       72.54    78.90    82.36    87.10    90.59   103.24
eigval :      105.91   111.13   113.52   125.90   128.09   135.70
eigval :      137.57   139.58   143.68   146.66   169.19   185.62
eigval :      187.04   189.12   192.42   193.19   194.00   197.58
eigval :      201.50   211.62   216.42   242.05   247.11   251.94
eigval :      275.73   285.26   292.76   299.83   303.88   312.43
eigval :      314.93   320.94   323.66   333.33   335.00   340.07
eigval :      341.77   348.50   360.28   365.83   368.42   370.15
eigval :      371.41   373.76   373.89   374.70   377.93   382.69
eigval :      399.25   407.81   412.96   415.41   427.06   436.74
eigval :      446.85   449.85   451.24   461.38   467.15   472.16
eigval :      475.28   490.02   492.42   504.84   507.84   510.49
eigval :      515.11   516.61   518.38   569.01   570.87   577.30
eigval :      579.60   582.07   584.25   585.24   586.43   591.12
eigval :      593.25   596.42   598.66   601.23   602.98   612.62
eigval :      615.37   619.15   621.63   640.75   647.72   664.48
eigval :      665.33   666.31   668.33   671.87   677.38   686.80
eigval :      689.50   697.25   698.72   702.76   711.01   711.45
eigval :      716.80   753.85   754.27   755.23   756.19   780.68
eigval :      783.13   816.53   820.19   823.19   825.18   826.15
eigval :      829.76   842.77   848.34   867.17   868.68   869.20
eigval :      870.56   872.65   873.66   884.37   885.69   887.68
eigval :      888.21   890.62   895.33   898.19   899.37   900.55
eigval :      900.93   901.43   903.59   907.48   908.85   910.11
eigval :      912.00   913.41   916.30   917.39   920.31   927.84
eigval :      928.08   928.69   929.07   929.76   930.34   930.76
eigval :      931.75   937.43   938.78   959.19   959.39   967.00
eigval :      975.77   977.44   978.60   983.48   987.48  1011.20
eigval :     1012.98  1039.10  1048.88  1069.26  1071.15  1074.31
eigval :     1077.24  1080.29  1080.86  1082.28  1084.68  1085.13
eigval :     1085.39  1092.55  1097.77  1100.26  1112.10  1116.45
eigval :     1116.98  1121.08  1121.73  1122.33  1123.25  1150.14
eigval :     1150.37  1160.86  1161.25  1161.56  1167.80  1170.26
eigval :     1175.53  1177.62  1180.77  1181.54  1182.42  1187.36
eigval :     1197.50  1198.61  1199.36  1205.10  1206.94  1219.38
eigval :     1223.98  1226.66  1231.39  1236.92  1239.78  1242.01
eigval :     1253.21  1253.41  1256.13  1268.34  1280.68  1281.36
eigval :     1281.55  1282.97  1287.63  1289.10  1293.72  1300.64
eigval :     1314.19  1315.43  1318.91  1319.03  1319.79  1320.39
eigval :     1321.14  1326.96  1329.65  1335.93  1336.34  1337.56
eigval :     1342.31  1384.12  1397.35  1397.74  1398.39  1405.19
eigval :     1405.94  1408.11  1408.90  1414.89  1416.39  1418.51
eigval :     1421.77  1423.33  1428.34  1428.99  1430.90  1431.46
eigval :     1432.51  1433.37  1446.45  1447.07  1462.69  1472.96
eigval :     1473.78  1479.29  1481.64  1482.15  1482.19  1483.87
eigval :     1484.44  1492.73  1493.02  1493.63  1495.37  1497.50
eigval :     1504.65  1516.19  1518.50  1527.98  1531.32  1535.67
eigval :     1541.41  1548.79  1564.13  1565.63  1568.52  1569.74
eigval :     1590.12  1590.76  1592.47  1592.70  1595.56  3025.80
eigval :     3027.70  3028.89  3030.79  3046.15  3046.32  3048.39
eigval :     3050.94  3052.66  3053.60  3057.83  3061.50  3067.04
eigval :     3067.87  3068.20  3068.48  3068.62  3069.97  3071.49
eigval :     3071.93  3075.37  3077.45  3077.51  3078.39  3079.11
eigval :     3079.30  3080.61  3081.69  3081.72  3082.64  3087.44
eigval :     3088.00  3088.35  3088.87  3089.29  3089.96  3093.27
eigval :     3094.17  3096.11  3096.45  3096.83  3097.22  3099.00
eigval :     3099.21  3099.65  3099.75  3101.55  3101.97  3103.39
eigval :     3104.35  3112.69  3119.37

   temp. (K)  partition function   enthalpy   heat capacity  entropy
                                   cal/mol     cal/K/mol   cal/K/mol   J/K/mol
 298.15  VIB  0.105E+30            36910.207    227.858    231.327
         ROT  0.247E+09              888.752      2.981     41.381
         INT  0.258E+38            37798.959    230.839    272.708
         TR   0.278E+29             1481.254      4.968     46.367
         TOT                       39280.2129   235.8072   319.0747  1335.0086

       T/K    H(0)-H(T)+PV         H(T)/Eh          T*S/Eh         G(T)/Eh
   ------------------------------------------------------------------------
    298.15    0.625970E-01    0.102378E+01    0.151603E+00    0.872182E+00
   ------------------------------------------------------------------------

         :::::::::::::::::::::::::::::::::::::::::::::::::::::
         ::                  THERMODYNAMIC                  ::
         :::::::::::::::::::::::::::::::::::::::::::::::::::::
         :: total free energy        -184.236105685736 Eh   ::
         ::.................................................::
         :: total energy             -185.108287787254 Eh   ::
         :: zero point energy           0.961187791527 Eh   ::
         :: G(RRHO) w/o ZPVE           -0.089005690009 Eh   ::
         :: G(RRHO) contrib.            0.872182101518 Eh   ::
         :::::::::::::::::::::::::::::::::::::::::::::::::::::

           -------------------------------------------------
          | TOTAL ENERGY             -185.108287787254 Eh   |
          | TOTAL ENTHALPY           -184.084502992068 Eh   |
          | TOTAL FREE ENERGY        -184.236105685736 Eh   |
          | GRADIENT NORM               0.000100715656 Eh/α |
          | HOMO-LUMO GAP               0.094778831905 eV   |
           -------------------------------------------------

 * finished run on 2025/07/17 at 08:14:28.032
