   * xtb version 6.7.1 (edcfbbe) compiled by 'albert@albert-system' on 2024-07-22

   ID    Z sym.   atoms
    1    6 C      1-15, 17-20, 24-27, 29-71
    2    7 N      16, 28
    3   16 S      21
    4    8 O      22, 23
    5    1 H      72-123

          program call               : xtb data2507/toluene/PDA-DP/PDA-DP.xyz --gfn 2 --gbsa toluene --ohess vtight --parallel 40 --molden --ceasefiles --namespace data2507/toluene/PDA-DP/PDA-DP_toluene_S0_preOpt
      * Solvation model:               GBSA
        Solvent                        toluene
        Solvent mass                       9.2140E+01 g/mol
          :  Hamiltonian                  GFN2-xTB          :
 * total energy  :  -185.1530095 Eh     change       -0.1896723E-08 Eh
 * total energy  :  -185.1729038 Eh     change       -0.1989430E-01 Eh
 * total energy  :  -185.1807820 Eh     change       -0.7878204E-02 Eh
 * total energy  :  -185.1837984 Eh     change       -0.3016375E-02 Eh
 * total energy  :  -185.1854239 Eh     change       -0.1625562E-02 Eh
 * total energy  :  -185.1859400 Eh     change       -0.5160313E-03 Eh
 * total energy  :  -185.1861976 Eh     change       -0.2576319E-03 Eh
 * total energy  :  -185.1864808 Eh     change       -0.2831772E-03 Eh
 * total energy  :  -185.1867426 Eh     change       -0.2618761E-03 Eh
 * total energy  :  -185.1870203 Eh     change       -0.2776535E-03 Eh
 * total energy  :  -185.1886103 Eh     change       -0.1308919E-05 Eh
 * total energy  :  -185.1886103 Eh     change       -0.2661170E-07 Eh
 * total energy  :  -185.1886119 Eh     change       -0.1635785E-05 Eh
 * total energy  :  -185.1886133 Eh     change       -0.1395539E-05 Eh
 * total energy  :  -185.1886137 Eh     change       -0.4173749E-06 Eh
 * total energy  :  -185.1886139 Eh     change       -0.1454073E-06 Eh
 * total energy  :  -185.1886140 Eh     change       -0.1265833E-06 Eh
 * total energy  :  -185.1886142 Eh     change       -0.1451752E-06 Eh
 * total energy  :  -185.1886142 Eh     change       -0.2599165E-08 Eh
   *** GEOMETRY OPTIMIZATION CONVERGED AFTER 47 ITERATIONS ***

 final structure:
================
123
 xtb: 6.7.1 (edcfbbe)
C            7.98156544114508       -0.76979379074485        2.06890160343286
C            6.91454388356910       -0.86998713349851        0.96273355414393
C            7.22894911881487       -2.04881433729028        0.02285980131347
C            6.93182754221619        0.41777508735822        0.16014233497151
C            8.09821871260486        0.79659756714988       -0.48620389315381
C            8.20502395986376        1.97164312588491       -1.22282043938211
C            9.45773601021678        2.32505966022132       -1.90489894018274
C           10.69191454788613        2.10963459997853       -1.29410952558833
C           11.86776166034758        2.44321805797889       -1.94050634435939
C           11.83327351135862        2.99510115505272       -3.21055674255173
C           10.61281309689852        3.21452125736204       -3.82815942941486
C            9.43620842717085        2.88458398959309       -3.18144723896384
C            7.09070523296778        2.80337343589356       -1.28459346621509
C            5.92278397534547        2.45542137293218       -0.64337084013330
C            5.81495987278427        1.25486723003025        0.06546744618798
N            4.61992935080195        0.92468464545703        0.69171439016328
C            3.51658424932152        1.80611293822328        0.58011285901388
C            2.82259752799663        1.90403953169927       -0.62510047354586
C            1.75057674453603        2.77072732429301       -0.73524924646126
C            1.38005073170710        3.53110264026082        0.35900687741472
S           -0.02338935294027        4.63869916907892        0.19705041840397
O            0.15286962518655        5.44334292826403       -0.99243406377877
O           -0.20309761681826        5.34538892046833        1.44662251292413
C           -1.41963418604403        3.53923630061244       -0.05364961002678
C           -2.06458171177117        3.50932494524723       -1.27540770465976
C           -3.13148483308369        2.64777305293743       -1.45783601700622
C           -3.53932955128061        1.81719774192397       -0.41608162236432
N           -4.63215212845775        0.93605817518306       -0.60326514472237
C           -4.47368100206435       -0.17093940808147       -1.42716128921996
C           -3.22271425680639       -0.45030533149261       -1.98592565097473
C           -3.03676822848951       -1.53487046681769       -2.81408384495236
C           -4.09856126636972       -2.38248055484071       -3.11570606729142
C           -3.92632307675236       -3.53577072648760       -4.01000500705535
C           -2.78120071268975       -4.32738227422774       -3.93979264783022
C           -2.62289356112464       -5.41587678280267       -4.77757292396316
C           -3.60308499058762       -5.73164592971488       -5.70417575448087
C           -4.74379484371250       -4.95005598022045       -5.78650883129559
C           -4.90508672202591       -3.86353769466259       -4.94676873600445
C           -5.33159114775609       -2.11304035681700       -2.53081992297979
C           -5.54220695503701       -1.03657183475872       -1.68334271051504
C           -6.90847369092524       -0.84662524632921       -1.05154341939144
C           -7.95149185717530       -0.66779569276501       -2.17055318078092
C           -7.23754510392692       -2.09301466822069       -0.20882462029594
C           -6.94900932506285        0.37588681162376       -0.15343864909856
C           -8.12637330282175        0.69138025379145        0.50657727374003
C           -8.26110554990096        1.81729205536258        1.31225178952130
C           -9.52865502341499        2.10742401295778        1.99684198405148
C          -10.02082547984991        3.40977992354693        2.06313057098262
C          -11.21296463520816        3.68216105991210        2.70832643516285
C          -11.93444634421693        2.65947471829444        3.30220161493592
C          -11.45461263214199        1.36127206923286        3.24519059767935
C          -10.26453614339265        1.08697441036307        2.59701493106323
C           -7.16205881234979        2.66195415429810        1.43739475399178
C           -5.97677430145477        2.36502341458682        0.80217951953087
C           -5.84299305120677        1.21549942343082        0.01747014203336
C           -2.87482435548957        1.85524210807459        0.80901276200541
C           -1.81117352758765        2.72034889445525        0.98988744325024
C            2.05404034933896        3.44091641532328        1.56191919957025
C            3.12939560081643        2.57759399067516        1.67372712403972
C            4.48744854041041       -0.23423794582438        1.44550591239412
C            3.25545432236699       -0.55110242608513        2.02612715808086
C            3.09686094278151       -1.68633680153567        2.78950768582539
C            4.16151479537862       -2.56199378040079        2.98102098698627
C            4.01482126999186       -3.77621909900133        3.79588605294693
C            4.58469025267220       -4.98202782776124        3.39101963122354
C            4.44985380046143       -6.12140584566843        4.16263214431032
C            3.74705960677415       -6.07651000388577        5.35553833854163
C            3.17490600588884       -4.88422498310907        5.76818001042472
C            3.30528435807026       -3.74518066869324        4.99527329929225
C            5.37294921737936       -2.25614903314469        2.36975500685248
C            5.56272188501758       -1.11430275085661        1.60699197527743
H            7.77018805005819        0.08261087562887        2.71244504128940
H            7.99133555720189       -1.66705387454534        2.68138717013178
H            8.97174944944473       -0.64012895785676        1.64141459096568
H            6.45614160009030       -2.13206001141270       -0.73942716647252
H            8.18501399134401       -1.90599617537161       -0.47286551590584
H            7.26986159017393       -2.98351670736189        0.57481317121809
H            8.96073982096160        0.14998966092427       -0.43735179354623
H           10.72832533438805        1.69775837416449       -0.29583108356305
H           12.81647568772354        2.27493037908727       -1.45057669008863
H           12.75247873045586        3.25391845529890       -3.71590524150615
H           10.57849456262622        3.64256425020418       -4.82016748975933
H            8.48860503135103        3.04392216698088       -3.67588667335925
H            7.14450763668046        3.74272171452580       -1.81474903979319
H            5.08188412438545        3.13031580394221       -0.68637937148584
H            3.13289741368186        1.30327495820243       -1.46653029349828
H            1.20483740674970        2.87218262987761       -1.65981181769200
H           -1.72905011678423        4.17204956608643       -2.05778354853920
H           -3.65309131667500        2.61173457563070       -2.40223955567255
H           -2.38329457200686        0.19058191696384       -1.76485668021565
H           -2.06283274632097       -1.71224928810958       -3.24532364265136
H           -2.01990452880985       -4.09829301035936       -3.20795245555073
H           -1.73177323602997       -6.02352637296463       -4.70594628696473
H           -3.47863177386141       -6.58217028561936       -6.35876101230125
H           -5.51002343022109       -5.18730340959929       -6.51109629792048
H           -5.78985600384863       -3.24880071589645       -5.03013965157496
H           -6.14620046371345       -2.79106582797442       -2.73370117161047
H           -7.70714648961967        0.20804017628830       -2.76946645881833
H           -7.97139193736075       -1.53611215338398       -2.82308318520254
H           -8.94655417524822       -0.53163608493790       -1.75633216126966
H           -8.22360756941491       -2.00801646002406        0.23888274041585
H           -7.21899265377102       -2.99136987836298       -0.81941481193151
H           -6.50527800687342       -2.20560631378677        0.58893267678511
H           -8.98912435832922        0.05616579695051        0.37740567927215
H           -9.47217215179045        4.21086773550432        1.58870088855199
H          -11.58316325607473        4.69706685903222        2.74628753818201
H          -12.86518654582708        2.87339274737947        3.80741846849660
H          -12.01007080547697        0.55929437307781        3.71079413341790
H           -9.88826642330671        0.07427128813052        2.57353591606163
H           -7.22626184261368        3.54777081265281        2.05182583662158
H           -5.14162897800952        3.03931996554703        0.91281399147513
H           -3.20068688856936        1.20935721822088        1.61021265812403
H           -1.28764202255411        2.77639227086192        1.93104523503854
H            1.73301762843667        4.05924776005097        2.38556355635051
H            3.67384689105497        2.49577492912900        2.60224457260676
H            2.40840300488843        0.09903746181730        1.87079496882801
H            2.13051244492546       -1.90803006179285        3.21753321551649
H            5.11934394803074       -5.03043772358085        2.45324542404229
H            4.89337643462008       -7.04996426650808        3.83165191391493
H            3.64449931019833       -6.96640212925532        5.95964417110782
H            2.62695168983823       -4.84200685541844        6.69901704575079
H            2.87012973307142       -2.81499400557865        5.33173829296363
H            6.19975533058053       -2.93332534573624        2.51896605671895

          :  Hamiltonian                  GFN2-xTB          :
         :: gradient norm              0.000177346073 Eh/a0 ::
         :: HOMO-LUMO gap              1.989301138659 eV    ::
         :: SCC energy              -188.507624860692 Eh    ::
         :: -> dispersion             -0.172372253722 Eh    ::
         :: -> Gsolv                  -0.081815442845 Eh    ::
         :: repulsion energy           3.319010691533 Eh    ::

    * Orbital Energies and Occupations

         #    Occupation            Energy/Eh            Energy/eV
      -------------------------------------------------------------
         1        2.0000           -0.7807038             -21.2440
       ...           ...                  ...                  ...
       160        2.0000           -0.4016025             -10.9282
       161        2.0000           -0.4015922             -10.9279
       162        2.0000           -0.4015237             -10.9260
       163        2.0000           -0.4003877             -10.8951
       164        2.0000           -0.4003025             -10.8928
       165        2.0000           -0.3994818             -10.8705
       166        2.0000           -0.3983324             -10.8392
       167        2.0000           -0.3930545             -10.6956
       168        2.0000           -0.3927166             -10.6864
       169        2.0000           -0.3850917             -10.4789
       170        2.0000           -0.3850465             -10.4776
       171        2.0000           -0.3475569              -9.4575
       172        2.0000           -0.3474860              -9.4556 (HOMO)
       173                         -0.2743805              -7.4663 (LUMO)
       174                         -0.2615523              -7.1172
       175                         -0.2555876              -6.9549
       176                         -0.2552865              -6.9467
       177                         -0.2458617              -6.6902
       178                         -0.2457745              -6.6879
       179                         -0.2317964              -6.3075
       180                         -0.2315694              -6.3013
       181                         -0.2209803              -6.0132
       182                         -0.2209475              -6.0123
       183                         -0.2201428              -5.9904
       ...                                ...                  ...
       341                          1.1684792              31.7959
      -------------------------------------------------------------
                  HL-Gap            0.0731055 Eh            1.9893 eV

     #   Z          covCN         q      C6AA      α(0)
     1   6 C        3.761    -0.104    22.531     6.767
     2   6 C        3.909     0.022    20.150     6.380
     3   6 C        3.761    -0.104    22.535     6.767
     4   6 C        2.978    -0.012    28.304     8.727
     5   6 C        2.933    -0.041    29.030     8.836
     6   6 C        2.974    -0.004    28.129     8.700
     7   6 C        2.976     0.010    27.797     8.648
     8   6 C        2.925    -0.036    28.906     8.817
     9   6 C        2.918    -0.032    28.792     8.799
    10   6 C        2.920    -0.034    28.847     8.808
    11   6 C        2.918    -0.032    28.787     8.798
    12   6 C        2.925    -0.036    28.902     8.816
    13   6 C        2.924    -0.038    28.939     8.822
    14   6 C        2.921    -0.061    29.507     8.908
    15   6 C        2.927     0.054    26.778     8.486
    16   7 N        2.753    -0.062    22.436     7.035
    17   6 C        2.927     0.078    26.255     8.403
    18   6 C        2.923    -0.032    28.792     8.799
    19   6 C        2.959    -0.026    28.642     8.778
    20   6 C        2.971    -0.075    29.862     8.964
    21  16 S        3.818     0.945   108.254    17.511
    22   8 O        0.860    -0.575    25.512     6.772
    23   8 O        0.860    -0.575    25.505     6.771
    24   6 C        2.971    -0.075    29.865     8.964
    25   6 C        2.952    -0.022    28.565     8.766
    26   6 C        2.923    -0.032    28.795     8.800
    27   6 C        2.927     0.078    26.256     8.403
    28   7 N        2.753    -0.062    22.431     7.034
    29   6 C        2.927     0.054    26.784     8.487
    30   6 C        2.922    -0.061    29.511     8.909
    31   6 C        2.924    -0.038    28.943     8.822
    32   6 C        2.974    -0.004    28.124     8.699
    33   6 C        2.976     0.010    27.796     8.648
    34   6 C        2.925    -0.036    28.904     8.817
    35   6 C        2.918    -0.032    28.787     8.798
    36   6 C        2.920    -0.034    28.847     8.808
    37   6 C        2.918    -0.032    28.792     8.799
    38   6 C        2.925    -0.036    28.907     8.817
    39   6 C        2.934    -0.041    29.027     8.836
    40   6 C        2.978    -0.012    28.300     8.726
    41   6 C        3.909     0.022    20.149     6.380
    42   6 C        3.761    -0.104    22.531     6.767
    43   6 C        3.761    -0.104    22.536     6.767
    44   6 C        2.978    -0.012    28.303     8.727
    45   6 C        2.933    -0.041    29.030     8.836
    46   6 C        2.974    -0.004    28.128     8.700
    47   6 C        2.976     0.010    27.797     8.648
    48   6 C        2.925    -0.036    28.901     8.816
    49   6 C        2.918    -0.032    28.787     8.798
    50   6 C        2.920    -0.034    28.847     8.808
    51   6 C        2.918    -0.032    28.792     8.799
    52   6 C        2.925    -0.036    28.907     8.817
    53   6 C        2.924    -0.038    28.939     8.822
    54   6 C        2.921    -0.061    29.507     8.908
    55   6 C        2.927     0.054    26.778     8.486
    56   6 C        2.923    -0.032    28.794     8.800
    57   6 C        2.959    -0.026    28.639     8.778
    58   6 C        2.952    -0.022    28.560     8.765
    59   6 C        2.923    -0.032    28.792     8.799
    60   6 C        2.927     0.054    26.783     8.487
    61   6 C        2.922    -0.061    29.513     8.909
    62   6 C        2.924    -0.038    28.942     8.822
    63   6 C        2.974    -0.004    28.126     8.699
    64   6 C        2.976     0.010    27.795     8.648
    65   6 C        2.925    -0.036    28.906     8.817
    66   6 C        2.918    -0.032    28.791     8.799
    67   6 C        2.920    -0.034    28.846     8.808
    68   6 C        2.918    -0.032    28.787     8.798
    69   6 C        2.925    -0.036    28.903     8.817
    70   6 C        2.933    -0.041    29.027     8.836
    71   6 C        2.978    -0.012    28.302     8.726
    72   1 H        0.925     0.031     2.571     2.507
    73   1 H        0.925     0.043     2.410     2.428
    74   1 H        0.925     0.042     2.418     2.432
    75   1 H        0.925     0.032     2.561     2.503
    76   1 H        0.925     0.043     2.415     2.430
    77   1 H        0.925     0.043     2.413     2.429
    78   1 H        0.926     0.039     2.467     2.456
    79   1 H        0.926     0.031     2.568     2.506
    80   1 H        0.926     0.029     2.605     2.524
    81   1 H        0.926     0.028     2.620     2.531
    82   1 H        0.926     0.028     2.616     2.529
    83   1 H        0.926     0.030     2.589     2.516
    84   1 H        0.926     0.030     2.585     2.514
    85   1 H        0.926     0.025     2.658     2.550
    86   1 H        0.926     0.070     2.083     2.257
    87   1 H        0.926     0.061     2.188     2.313
    88   1 H        0.926     0.067     2.119     2.276
    89   1 H        0.926     0.069     2.096     2.264
    90   1 H        0.926     0.027     2.632     2.537
    91   1 H        0.926     0.032     2.552     2.498
    92   1 H        0.926     0.031     2.578     2.511
    93   1 H        0.926     0.028     2.612     2.528
    94   1 H        0.926     0.027     2.623     2.533
    95   1 H        0.926     0.028     2.611     2.527
    96   1 H        0.926     0.031     2.572     2.508
    97   1 H        0.926     0.038     2.474     2.460
    98   1 H        0.925     0.031     2.570     2.507
    99   1 H        0.925     0.043     2.411     2.428
   100   1 H        0.925     0.042     2.417     2.431
   101   1 H        0.925     0.043     2.415     2.430
   102   1 H        0.925     0.043     2.411     2.428
   103   1 H        0.925     0.032     2.562     2.503
   104   1 H        0.926     0.038     2.469     2.457
   105   1 H        0.926     0.029     2.597     2.520
   106   1 H        0.926     0.028     2.619     2.531
   107   1 H        0.926     0.028     2.619     2.531
   108   1 H        0.926     0.029     2.603     2.523
   109   1 H        0.926     0.032     2.563     2.503
   110   1 H        0.926     0.030     2.582     2.513
   111   1 H        0.926     0.025     2.655     2.548
   112   1 H        0.926     0.070     2.083     2.257
   113   1 H        0.926     0.061     2.185     2.312
   114   1 H        0.926     0.067     2.119     2.276
   115   1 H        0.926     0.069     2.095     2.263
   116   1 H        0.926     0.027     2.633     2.538
   117   1 H        0.926     0.032     2.557     2.500
   118   1 H        0.926     0.031     2.570     2.507
   119   1 H        0.926     0.028     2.610     2.526
   120   1 H        0.926     0.027     2.623     2.533
   121   1 H        0.926     0.028     2.615     2.529
   122   1 H        0.926     0.030     2.582     2.513
   123   1 H        0.926     0.038     2.473     2.459

molecular dipole:
                 x           y           z       tot (Debye)
 q only:        0.005      -2.818      -0.110
   full:        0.002      -2.504      -0.098       6.369

 projected vibrational frequencies (cm⁻¹)
eigval :       -0.00    -0.00    -0.00     0.00     0.00     0.00
eigval :       -2.95     3.08     3.89    15.26    15.85    20.47
eigval :       20.83    21.15    26.24    30.80    32.45    40.78
eigval :       43.50    46.79    48.43    51.02    52.24    55.32
eigval :       57.06    72.16    72.49    79.58    81.80   103.60
eigval :      108.60   114.31   115.66   116.43   123.27   125.01
eigval :      130.72   133.36   136.79   141.82   175.07   185.53
eigval :      187.39   187.91   190.88   192.59   193.77   194.57
eigval :      195.77   209.42   214.55   238.69   240.00   247.12
eigval :      279.03   291.21   293.62   296.71   308.51   315.38
eigval :      318.80   322.41   327.39   335.35   336.57   345.83
eigval :      347.86   361.27   369.39   370.63   371.83   371.91
eigval :      372.89   373.61   375.21   379.72   381.06   383.97
eigval :      401.39   411.94   415.40   416.49   425.49   447.52
eigval :      449.71   453.47   454.71   463.23   467.87   488.37
eigval :      494.24   495.82   496.24   501.02   504.10   512.10
eigval :      514.00   525.52   535.65   576.60   578.35   580.49
eigval :      582.54   583.22   585.66   586.28   589.00   594.76
eigval :      595.32   600.42   601.00   603.11   604.05   615.41
eigval :      616.36   621.83   627.46   667.41   667.80   670.99
eigval :      671.01   679.62   680.47   686.25   686.35   686.45
eigval :      689.77   694.17   694.73   708.40   714.49   715.02
eigval :      727.13   754.51   756.24   757.41   757.73   809.98
eigval :      812.52   823.26   824.92   825.23   826.58   827.11
eigval :      827.90   872.76   873.30   874.43   875.02   875.30
eigval :      875.61   876.32   876.60   887.27   887.79   889.87
eigval :      890.21   898.91   900.69   901.91   902.79   911.98
eigval :      912.70   913.56   914.05   915.16   915.82   916.58
eigval :      918.49   919.39   920.92   927.67   927.74   929.12
eigval :      929.53   929.61   930.08   930.44   930.90   931.99
eigval :      932.01   939.73   939.87   957.39   957.39   979.96
eigval :      980.13   981.07   981.26  1001.64  1005.77  1013.68
eigval :     1014.41  1067.26  1074.40  1074.58  1080.32  1080.80
eigval :     1084.25  1084.82  1086.57  1086.99  1099.66  1099.89
eigval :     1106.94  1107.20  1110.01  1111.62  1114.64  1117.35
eigval :     1119.75  1119.87  1120.85  1121.31  1158.81  1158.92
eigval :     1164.15  1165.11  1166.01  1167.71  1176.92  1177.17
eigval :     1179.55  1180.61  1181.86  1182.64  1193.75  1197.61
eigval :     1198.57  1199.26  1199.96  1206.00  1207.05  1229.89
eigval :     1230.05  1240.76  1243.56  1248.15  1248.53  1255.78
eigval :     1255.87  1265.26  1265.39  1281.00  1281.03  1281.21
eigval :     1281.85  1292.28  1292.76  1296.43  1296.80  1311.22
eigval :     1311.69  1315.72  1315.88  1316.88  1316.91  1322.19
eigval :     1322.74  1325.46  1325.55  1334.14  1334.21  1352.80
eigval :     1353.02  1391.55  1392.08  1400.15  1400.54  1405.82
eigval :     1406.01  1411.49  1411.61  1418.75  1419.49  1433.86
eigval :     1434.08  1434.82  1434.87  1454.82  1455.52  1464.86
eigval :     1464.88  1471.18  1471.50  1486.02  1486.40  1486.62
eigval :     1487.78  1494.99  1495.21  1496.59  1497.25  1501.39
eigval :     1501.75  1504.92  1505.18  1555.93  1555.97  1567.27
eigval :     1567.49  1572.02  1572.07  1575.03  1575.28  1580.24
eigval :     1580.28  1581.52  1581.59  1587.08  1587.17  1592.97
eigval :     1593.01  1601.06  1601.10  1603.83  1603.89  3021.33
eigval :     3021.48  3023.96  3023.99  3039.96  3039.96  3041.66
eigval :     3042.06  3048.99  3049.04  3052.92  3053.50  3062.97
eigval :     3063.43  3064.00  3064.11  3064.51  3065.15  3065.46
eigval :     3065.64  3074.25  3074.75  3074.77  3074.81  3077.48
eigval :     3077.65  3077.70  3078.01  3080.10  3080.44  3080.58
eigval :     3081.42  3086.11  3086.39  3086.67  3087.01  3090.47
eigval :     3091.04  3091.48  3091.68  3094.12  3094.63  3095.10
eigval :     3095.30  3097.71  3097.76  3098.74  3098.77  3104.70
eigval :     3105.86  3106.46  3106.92

   temp. (K)  partition function   enthalpy   heat capacity  entropy
                                   cal/mol     cal/K/mol   cal/K/mol   J/K/mol
 298.15  VIB  0.106E+33            36966.637    224.211    236.702
         ROT  0.409E+09              888.752      2.981     42.385
         INT  0.435E+41            37855.389    227.192    279.087
         TR   0.278E+29             1481.254      4.968     46.367
         TOT                       39336.6429   232.1599   325.4540  1361.6996

       T/K    H(0)-H(T)+PV         H(T)/Eh          T*S/Eh         G(T)/Eh
   ------------------------------------------------------------------------
    298.15    0.626869E-01    0.102818E+01    0.154634E+00    0.873543E+00
   ------------------------------------------------------------------------

         :::::::::::::::::::::::::::::::::::::::::::::::::::::
         ::                  THERMODYNAMIC                  ::
         :::::::::::::::::::::::::::::::::::::::::::::::::::::
         :: total free energy        -184.315070884484 Eh   ::
         ::.................................................::
         :: total energy             -185.188614171386 Eh   ::
         :: zero point energy           0.965490057268 Eh   ::
         :: G(RRHO) w/o ZPVE           -0.091946770366 Eh   ::
         :: G(RRHO) contrib.            0.873543286902 Eh   ::
         :::::::::::::::::::::::::::::::::::::::::::::::::::::

           -------------------------------------------------
          | TOTAL ENERGY             -185.188614171386 Eh   |
          | TOTAL ENTHALPY           -184.160437183525 Eh   |
          | TOTAL FREE ENERGY        -184.315070884484 Eh   |
          | GRADIENT NORM               0.000177381997 Eh/α |
          | HOMO-LUMO GAP               1.989301793830 eV   |
           -------------------------------------------------

 * finished run on 2025/07/17 at 07:42:52.039
