   * xtb version 6.7.1 (edcfbbe) compiled by 'albert@albert-system' on 2024-07-22

   ID    Z sym.   atoms
    1    6 C      1-15, 17-20, 24-27, 29-71
    2    7 N      16, 28
    3   16 S      21
    4    8 O      22, 23
    5    1 H      72-123

          program call               : xtb data2507/toluene/PDA-DP/PDA-DP_toluene_S0_finalOpt.xtbopt.xyz --gfn 2 --uhf 2 --gbsa toluene --ohess vtight --parallel 40 --molden --ceasefiles --namespace data2507/toluene/PDA-DP/PDA-DP_toluene_T1_preOpt
      * Solvation model:               GBSA
        Solvent                        toluene
        Solvent mass                       9.2140E+01 g/mol
          :  Hamiltonian                  GFN2-xTB          :
 * total energy  :  -185.1036195 Eh     change       -0.1399769E-09 Eh
 * total energy  :  -185.1064467 Eh     change       -0.2827196E-02 Eh
 * total energy  :  -185.1073258 Eh     change       -0.8791747E-03 Eh
 * total energy  :  -185.1074717 Eh     change       -0.1458570E-03 Eh
 * total energy  :  -185.1075830 Eh     change       -0.1113464E-03 Eh
 * total energy  :  -185.1076525 Eh     change       -0.6945620E-04 Eh
 * total energy  :  -185.1077414 Eh     change       -0.8893680E-04 Eh
 * total energy  :  -185.1078152 Eh     change       -0.7377635E-04 Eh
 * total energy  :  -185.1078686 Eh     change       -0.5338375E-04 Eh
 * total energy  :  -185.1079111 Eh     change       -0.4250733E-04 Eh
 * total energy  :  -185.1082419 Eh     change       -0.9836075E-06 Eh
 * total energy  :  -185.1082427 Eh     change       -0.7532374E-06 Eh
 * total energy  :  -185.1082433 Eh     change       -0.6793207E-06 Eh
 * total energy  :  -185.1082440 Eh     change       -0.6647626E-06 Eh
 * total energy  :  -185.1082448 Eh     change       -0.7886293E-06 Eh
 * total energy  :  -185.1082458 Eh     change       -0.1030421E-05 Eh
 * total energy  :  -185.1082469 Eh     change       -0.1053128E-05 Eh
 * total energy  :  -185.1082478 Eh     change       -0.9567452E-06 Eh
 * total energy  :  -185.1082478 Eh     change       -0.6004001E-08 Eh
   *** GEOMETRY OPTIMIZATION CONVERGED AFTER 94 ITERATIONS ***

 final structure:
================
123
 xtb: 6.7.1 (edcfbbe)
C            5.45476701588772        2.17234869645139       -2.67320291649098
C            5.26206852570611        1.77817114068534       -1.19582813629531
C            5.92865737188531        2.82082289545040       -0.27714466868241
C            5.92105892234196        0.43423204482993       -0.96112417556123
C            7.27563134106934        0.28386668614088       -1.19942262843686
C            7.95142073184104       -0.91602981009723       -0.98190147137883
C            9.38737211348979       -1.02767818026225       -1.25243293386282
C           10.21842431867666       -1.76349657809058       -0.40619268575214
C           11.57308623263029       -1.86364741755404       -0.66042987576864
C           12.12408236647573       -1.23902485763888       -1.76826896757695
C           11.30878552333847       -0.51024233632014       -2.61966664903416
C            9.95518406446916       -0.40217206825521       -2.36367178403812
C            7.21912334340081       -2.00348478355629       -0.49668376267393
C            5.87066858279170       -1.88826442028972       -0.26657887932685
C            5.19709861526214       -0.67904863917294       -0.50014026676527
N            3.84222004715043       -0.60179690452661       -0.27251519876614
C            3.13347610225819       -1.77375417795786        0.12296962678760
C            2.83865190685925       -1.99951170836218        1.47579772145029
C            2.10535244020126       -3.10168040003073        1.84150055944340
C            1.66876743017448       -4.00618247444809        0.86689818041420
S            0.40722792584954       -5.17389699876983        1.26613857763772
O            0.55585034107902       -5.62568343871717        2.64190436018702
O            0.36982845519630       -6.20762218293596        0.24126901063450
C           -1.01821978401372       -4.14318163561418        1.13723163287947
C           -1.53532365789348       -3.52415947263857        2.28190619586705
C           -2.44173990867031       -2.49984999782498        2.16082674390244
C           -2.82466229492207       -2.04948558008318        0.88810831938452
N           -3.71232354396171       -0.94994475322987        0.74048711928922
C           -3.27917683144128        0.31794652323597        1.06377135467533
C           -2.01066026907694        0.50540507508678        1.63965480157112
C           -1.56667940101262        1.75358601424545        1.99519750353649
C           -2.35736007592415        2.88767141290492        1.77049289372945
C           -1.89706852153693        4.22165755611324        2.15011118283247
C           -2.80244714834763        5.20881318303708        2.55136154969889
C           -2.36444749476639        6.46688881717998        2.91439518473836
C           -1.01261077757239        6.77229819601352        2.88557195525592
C           -0.10311554847743        5.80322959520899        2.49238639102941
C           -0.53714130824091        4.54388504131750        2.13086525970404
C           -3.59910461774658        2.69441465028267        1.16064983092903
C           -4.08052882630022        1.44731213728954        0.80757271470371
C           -5.42641601550932        1.33591829369606        0.12173917059465
C           -6.50114582893502        1.98060798652033        1.01858737399609
C           -5.34786195421707        2.07534498246840       -1.22848392762355
C           -5.81425976020894       -0.10550821413916       -0.13115607676380
C           -7.03685692081311       -0.39509113808659       -0.70725591988246
C           -7.46820308754682       -1.69995010771758       -0.95438072016721
C           -8.76123746355806       -1.96049778719806       -1.58447529988726
C           -8.91485851830056       -3.02096522669200       -2.48219881603139
C          -10.13263762813420       -3.26499285683961       -3.08606246004333
C          -11.22749443441113       -2.46278847671840       -2.80231651539334
C          -11.09140977005810       -1.41112335926669       -1.90909252501461
C           -9.87313226204830       -1.15957930487005       -1.30930219937802
C           -6.62478109059752       -2.74977569770973       -0.56783063876279
C           -5.40605491882191       -2.49224643405656        0.00425141579441
C           -4.96139343843435       -1.17332551445818        0.20649318614480
C           -2.31508358369416       -2.68096103810521       -0.25857882985162
C           -1.42324453751704       -3.71507410143045       -0.13433579473558
C            1.97986581426302       -3.79021154669845       -0.48180444489829
C            2.71002744992680       -2.68741006833602       -0.85040454261029
C            3.13724700527485        0.56531174619016       -0.46304106836621
C            1.75262888219972        0.58723443425888       -0.23207546709268
C            1.02318861966950        1.73720663110784       -0.40246724300876
C            1.64528828432358        2.92331861342497       -0.80572492045957
C            0.87789851812195        4.16072141249276       -0.96648987498832
C            1.44294556179056        5.40091478310932       -0.66249278894492
C            0.71119128205981        6.56451252139071       -0.79789587908279
C           -0.59887639035543        6.51728950423863       -1.24572079948794
C           -1.17097131245948        5.29409679147362       -1.55555404846805
C           -0.44402034139349        4.12831710415844       -1.41539849627667
C            3.01893564786999        2.88722058629484       -1.04627314777479
C            3.77829747804679        1.74077261390014       -0.89189163411539
H            5.01640856951737        1.41513110702085       -3.32070629556944
H            4.97533952305959        3.12350102042363       -2.88493788552356
H            6.50995651952882        2.26237367222718       -2.91296785047078
H            5.76585977200605        2.55536144314445        0.76578264019915
H            6.99879254162914        2.86478188982396       -0.45647361324178
H            5.51323383691914        3.80884658977283       -0.45136945513933
H            7.84819607310004        1.13028036265580       -1.54470467019725
H            9.80079810069983       -2.23839710155360        0.46971189521128
H           12.20417149478628       -2.43079982937723        0.00895288819004
H           13.18257575318145       -1.32088905890751       -1.96748183851712
H           11.73144818401133       -0.02720294809526       -3.48910436199867
H            9.32442470571524        0.14877831496842       -3.04581553723135
H            7.70807815033225       -2.95042802531544       -0.32561488670741
H            5.31302914064003       -2.73755686046106        0.09685246922842
H            3.18609495751882       -1.29624322669555        2.21814583116215
H            1.85307824580946       -3.29988595110633        2.87167235365190
H           -1.20985995882527       -3.88487492031685        3.24523674690636
H           -2.86449784646351       -2.03259539712799        3.03828972842077
H           -1.37509665380938       -0.34857292208611        1.80923939633354
H           -0.60286064560895        1.85147651553320        2.46984826672023
H           -3.85591368220775        4.97877940428962        2.60960142162018
H           -3.07956006052119        7.21420233321147        3.22805396484781
H           -0.67127117604560        7.75688214216378        3.16969717631262
H            0.95198271593607        6.03285838095044        2.46624901070593
H            0.18263666855547        3.80948852513803        1.80375587520908
H           -4.19165376701157        3.56612730461946        0.93446512117603
H           -6.55949651536649        1.45053684828140        1.96747155371632
H           -6.26577953616789        3.02132030077729        1.21848531790670
H           -7.47563553964170        1.94119336778259        0.54181111797865
H           -6.29675416059709        2.01784968712210       -1.75385790501393
H           -5.10045565214514        3.12213598606661       -1.07829910806511
H           -4.58015478093195        1.62506423830724       -1.85507847900875
H           -7.68299932347387        0.41495488678070       -1.00619729917509
H           -8.06335523218963       -3.63937367647151       -2.72624298248509
H          -10.23081300587502       -4.08383266348998       -3.78463902873807
H          -12.18001073004390       -2.65681926826818       -3.27321270185860
H          -11.94293568180107       -0.78709129962873       -1.67779069345637
H           -9.78675922396249       -0.35318536415100       -0.59606703497632
H           -6.94630885569659       -3.77245379070920       -0.69297688103596
H           -4.77785446052980       -3.31184405262732        0.31650908325884
H           -2.62918143543395       -2.33829923719963       -1.23357737853451
H           -1.01561447639830       -4.21642873033416       -0.99769654774610
H            1.63902104187405       -4.51412491207260       -1.20511308094327
H            2.95861505235707       -2.51089128920442       -1.88662043557910
H            1.25763640645879       -0.31740957862555        0.08423132437834
H           -0.03510217701001        1.72597726898375       -0.19330017098222
H            2.45446264960596        5.45036368559438       -0.28727955620728
H            1.16177738349760        7.51471040739406       -0.54917919305636
H           -1.17050273358473        7.42767667415683       -1.35036428006553
H           -2.19000453788322        5.25076034468186       -1.91183621271564
H           -0.89592643288045        3.18336325056278       -1.67811830650580
H            3.49782431354936        3.78990816227819       -1.39084366383339

          :  Hamiltonian                  GFN2-xTB          :
         :: gradient norm              0.000046666441 Eh/a0 ::
         :: HOMO-LUMO gap              0.086903502998 eV    ::
         :: SCC energy              -188.408765994062 Eh    ::
         :: -> dispersion             -0.185862807793 Eh    ::
         :: -> Gsolv                  -0.087414658351 Eh    ::
         :: repulsion energy           3.300518144243 Eh    ::

    * Orbital Energies and Occupations

         #    Occupation            Energy/Eh            Energy/eV
      -------------------------------------------------------------
         1        2.0000           -0.7513320             -20.4448
       ...           ...                  ...                  ...
       161        2.0000           -0.4051959             -11.0259
       162        2.0000           -0.4046436             -11.0109
       163        2.0000           -0.4042848             -11.0011
       164        2.0000           -0.4026535             -10.9568
       165        2.0000           -0.4016042             -10.9282
       166        2.0000           -0.3993966             -10.8681
       167        2.0000           -0.3985941             -10.8463
       168        2.0000           -0.3904998             -10.6260
       169        2.0000           -0.3898828             -10.6093
       170        2.0000           -0.3879772             -10.5574
       171        1.5443           -0.3553092              -9.6685
       172        1.4557           -0.3549717              -9.6593
       173        0.8123           -0.2600874              -7.0773 (HOMO)
       174        0.1305           -0.2568937              -6.9904 (LUMO)
       175        0.0572           -0.2560331              -6.9670
       176                         -0.2413120              -6.5664
       177                         -0.2392674              -6.5108
       178                         -0.2337130              -6.3597
       179                         -0.2318926              -6.3101
       180                         -0.2301205              -6.2619
       181                         -0.2294198              -6.2428
       182                         -0.2287324              -6.2241
       183                         -0.2275278              -6.1913
       184                         -0.2260394              -6.1508
       ...                                ...                  ...
       341                          1.1545361              31.4165
      -------------------------------------------------------------
                  HL-Gap            0.0031938 Eh            0.0869 eV

     #   Z          covCN         q      C6AA      α(0)
     1   6 C        3.761    -0.107    22.584     6.775
     2   6 C        3.909     0.024    20.116     6.375
     3   6 C        3.761    -0.107    22.583     6.774
     4   6 C        2.976    -0.004    28.119     8.698
     5   6 C        2.930    -0.040    28.991     8.830
     6   6 C        2.974     0.007    27.852     8.657
     7   6 C        2.976     0.011    27.773     8.644
     8   6 C        2.924    -0.034    28.850     8.808
     9   6 C        2.918    -0.030    28.748     8.792
    10   6 C        2.919    -0.031    28.780     8.797
    11   6 C        2.918    -0.030    28.755     8.793
    12   6 C        2.924    -0.035    28.865     8.811
    13   6 C        2.922    -0.034    28.836     8.806
    14   6 C        2.920    -0.050    29.234     8.866
    15   6 C        2.931     0.057    26.713     8.476
    16   7 N        2.754    -0.018    21.605     6.903
    17   6 C        2.929     0.035    27.214     8.555
    18   6 C        2.916    -0.041    29.029     8.835
    19   6 C        2.957    -0.038    28.952     8.826
    20   6 C        2.966    -0.098    30.460     9.053
    21  16 S        3.845     0.868   110.536    17.695
    22   8 O        0.860    -0.594    25.970     6.833
    23   8 O        0.860    -0.597    26.039     6.842
    24   6 C        2.965    -0.099    30.485     9.057
    25   6 C        2.955    -0.039    28.963     8.827
    26   6 C        2.916    -0.041    29.021     8.834
    27   6 C        2.928     0.033    27.267     8.563
    28   7 N        2.752    -0.010    21.452     6.879
    29   6 C        2.929     0.054    26.784     8.487
    30   6 C        2.918    -0.050    29.248     8.868
    31   6 C        2.922    -0.033    28.834     8.806
    32   6 C        2.972     0.008    27.835     8.654
    33   6 C        2.974     0.010    27.800     8.649
    34   6 C        2.925    -0.035    28.883     8.813
    35   6 C        2.917    -0.031    28.773     8.796
    36   6 C        2.919    -0.032    28.793     8.799
    37   6 C        2.918    -0.029    28.736     8.791
    38   6 C        2.925    -0.034    28.835     8.806
    39   6 C        2.930    -0.040    29.000     8.831
    40   6 C        2.976    -0.003    28.095     8.694
    41   6 C        3.909     0.024    20.115     6.375
    42   6 C        3.761    -0.107    22.583     6.774
    43   6 C        3.761    -0.105    22.562     6.771
    44   6 C        2.976    -0.003    28.102     8.695
    45   6 C        2.930    -0.041    29.015     8.834
    46   6 C        2.973     0.007    27.863     8.659
    47   6 C        2.975     0.009    27.806     8.650
    48   6 C        2.924    -0.035    28.869     8.811
    49   6 C        2.917    -0.030    28.759     8.794
    50   6 C        2.919    -0.033    28.811     8.802
    51   6 C        2.917    -0.031    28.767     8.795
    52   6 C        2.924    -0.035    28.883     8.813
    53   6 C        2.921    -0.034    28.855     8.809
    54   6 C        2.919    -0.049    29.214     8.863
    55   6 C        2.932     0.054    26.792     8.489
    56   6 C        2.917    -0.041    29.016     8.833
    57   6 C        2.962    -0.040    28.982     8.830
    58   6 C        2.962    -0.039    28.961     8.827
    59   6 C        2.917    -0.040    28.994     8.830
    60   6 C        2.931     0.057    26.718     8.477
    61   6 C        2.919    -0.050    29.238     8.867
    62   6 C        2.922    -0.035    28.864     8.810
    63   6 C        2.973     0.008    27.838     8.655
    64   6 C        2.975     0.012    27.750     8.641
    65   6 C        2.925    -0.033    28.829     8.805
    66   6 C        2.918    -0.029    28.730     8.790
    67   6 C        2.920    -0.031    28.762     8.795
    68   6 C        2.918    -0.029    28.731     8.790
    69   6 C        2.925    -0.033    28.822     8.804
    70   6 C        2.930    -0.040    28.997     8.831
    71   6 C        2.976    -0.004    28.118     8.698
    72   1 H        0.925     0.035     2.512     2.479
    73   1 H        0.925     0.050     2.316     2.380
    74   1 H        0.925     0.050     2.325     2.385
    75   1 H        0.925     0.036     2.504     2.474
    76   1 H        0.925     0.049     2.328     2.386
    77   1 H        0.925     0.051     2.313     2.379
    78   1 H        0.926     0.050     2.317     2.380
    79   1 H        0.926     0.033     2.543     2.494
    80   1 H        0.926     0.031     2.572     2.508
    81   1 H        0.926     0.031     2.569     2.506
    82   1 H        0.926     0.033     2.546     2.495
    83   1 H        0.926     0.037     2.492     2.469
    84   1 H        0.926     0.040     2.455     2.450
    85   1 H        0.926     0.037     2.486     2.466
    86   1 H        0.926     0.046     2.364     2.405
    87   1 H        0.926     0.036     2.505     2.475
    88   1 H        0.926     0.037     2.493     2.469
    89   1 H        0.926     0.047     2.359     2.402
    90   1 H        0.926     0.040     2.453     2.449
    91   1 H        0.926     0.043     2.415     2.430
    92   1 H        0.926     0.036     2.508     2.477
    93   1 H        0.926     0.031     2.570     2.507
    94   1 H        0.926     0.030     2.582     2.513
    95   1 H        0.926     0.031     2.576     2.510
    96   1 H        0.926     0.034     2.533     2.489
    97   1 H        0.926     0.050     2.315     2.379
    98   1 H        0.925     0.036     2.503     2.474
    99   1 H        0.925     0.050     2.318     2.381
   100   1 H        0.925     0.049     2.328     2.386
   101   1 H        0.925     0.050     2.324     2.384
   102   1 H        0.925     0.051     2.309     2.376
   103   1 H        0.925     0.036     2.509     2.477
   104   1 H        0.926     0.050     2.322     2.383
   105   1 H        0.926     0.032     2.559     2.502
   106   1 H        0.926     0.030     2.592     2.518
   107   1 H        0.926     0.030     2.589     2.516
   108   1 H        0.926     0.032     2.563     2.504
   109   1 H        0.926     0.036     2.507     2.476
   110   1 H        0.926     0.039     2.464     2.455
   111   1 H        0.926     0.038     2.479     2.462
   112   1 H        0.926     0.045     2.379     2.412
   113   1 H        0.926     0.034     2.526     2.485
   114   1 H        0.926     0.036     2.499     2.472
   115   1 H        0.926     0.045     2.385     2.415
   116   1 H        0.926     0.036     2.505     2.475
   117   1 H        0.926     0.043     2.405     2.425
   118   1 H        0.926     0.036     2.496     2.471
   119   1 H        0.926     0.032     2.560     2.502
   120   1 H        0.926     0.030     2.581     2.512
   121   1 H        0.926     0.032     2.561     2.502
   122   1 H        0.926     0.033     2.539     2.492
   123   1 H        0.926     0.051     2.313     2.378

molecular dipole:
                 x           y           z       tot (Debye)
 q only:       -0.312       7.453      -1.825
   full:       -0.275       6.895      -1.707      18.067

 projected vibrational frequencies (cm⁻¹)
eigval :       -0.00    -0.00     0.00     0.00     0.00     0.00
eigval :        4.82    10.11    16.16    18.88    22.25    24.12
eigval :       27.75    29.04    35.47    38.72    45.77    48.02
eigval :       49.24    50.36    51.58    57.55    60.93    68.31
eigval :       75.25    79.81    83.17    85.71    87.61   107.35
eigval :      107.67   114.92   117.20   124.36   127.46   136.31
eigval :      136.91   139.99   144.85   150.77   168.79   186.85
eigval :      188.14   190.07   191.97   193.43   198.32   203.95
eigval :      208.84   213.91   219.74   243.69   248.26   251.46
eigval :      276.54   286.68   293.83   299.60   306.63   312.05
eigval :      314.62   320.77   323.59   331.36   335.88   341.15
eigval :      342.96   349.33   361.66   366.19   368.61   370.65
eigval :      373.24   374.43   375.28   375.94   378.36   382.87
eigval :      398.21   407.11   413.24   414.83   427.85   438.25
eigval :      448.51   451.33   453.09   461.78   466.92   471.13
eigval :      476.22   489.95   491.07   503.95   507.52   509.28
eigval :      515.41   515.77   515.99   570.40   570.98   576.76
eigval :      579.44   582.26   583.49   585.34   586.55   590.98
eigval :      593.12   596.58   599.09   601.64   603.45   612.96
eigval :      616.24   619.53   622.07   641.49   647.18   663.63
eigval :      665.53   665.99   667.76   670.27   677.32   686.58
eigval :      689.63   695.96   698.52   702.96   710.66   711.19
eigval :      718.13   752.37   755.31   755.77   757.56   782.62
eigval :      784.98   815.69   823.35   825.28   826.78   829.01
eigval :      837.61   845.74   850.73   866.02   868.42   870.32
eigval :      871.62   872.55   874.34   883.88   884.76   886.64
eigval :      888.40   891.63   896.08   898.24   899.19   901.08
eigval :      901.62   903.52   905.93   908.54   909.30   910.03
eigval :      912.27   916.35   919.61   920.45   923.52   928.78
eigval :      929.43   930.09   930.37   930.53   930.74   931.83
eigval :      935.02   936.16   939.01   957.61   959.59   960.50
eigval :      974.48   977.24   978.23   984.60   988.09  1010.89
eigval :     1011.48  1038.46  1046.13  1067.90  1069.23  1070.91
eigval :     1076.92  1077.52  1080.22  1081.86  1082.80  1084.76
eigval :     1086.46  1092.28  1097.08  1099.59  1105.63  1113.11
eigval :     1117.14  1119.61  1122.04  1124.46  1124.99  1148.61
eigval :     1150.55  1160.28  1160.75  1163.58  1169.34  1169.78
eigval :     1176.87  1179.01  1179.80  1181.11  1182.54  1185.75
eigval :     1197.99  1199.27  1201.63  1204.52  1209.55  1217.30
eigval :     1224.12  1226.23  1229.84  1237.02  1239.82  1240.27
eigval :     1252.97  1253.64  1256.70  1267.73  1279.35  1281.54
eigval :     1283.73  1284.80  1287.67  1289.78  1294.42  1301.11
eigval :     1312.86  1315.19  1318.61  1320.69  1320.92  1321.69
eigval :     1323.17  1326.48  1327.94  1336.55  1336.91  1337.59
eigval :     1342.54  1385.95  1394.88  1396.10  1398.13  1405.33
eigval :     1406.12  1407.38  1409.22  1413.00  1415.24  1418.19
eigval :     1419.79  1423.02  1426.49  1427.96  1429.07  1430.29
eigval :     1432.60  1433.53  1446.58  1447.59  1462.49  1468.21
eigval :     1471.50  1480.08  1482.13  1482.93  1483.22  1483.87
eigval :     1484.94  1492.40  1493.03  1494.48  1494.62  1497.61
eigval :     1497.67  1511.74  1518.31  1523.88  1529.94  1532.11
eigval :     1541.29  1553.77  1560.23  1562.21  1570.39  1570.68
eigval :     1588.89  1590.98  1591.91  1593.25  1596.09  3025.43
eigval :     3027.57  3027.57  3029.83  3046.23  3046.70  3048.66
eigval :     3050.54  3053.17  3054.40  3058.22  3060.82  3066.92
eigval :     3067.32  3067.87  3068.76  3068.81  3069.68  3072.04
eigval :     3074.14  3077.85  3078.88  3079.37  3079.54  3080.04
eigval :     3081.10  3081.26  3081.89  3082.42  3082.60  3084.35
eigval :     3087.35  3088.31  3088.87  3089.73  3090.10  3091.43
eigval :     3094.85  3095.51  3096.26  3097.57  3097.83  3098.68
eigval :     3098.79  3100.01  3101.18  3102.14  3102.49  3104.16
eigval :     3104.66  3107.79  3113.82

   temp. (K)  partition function   enthalpy   heat capacity  entropy
                                   cal/mol     cal/K/mol   cal/K/mol   J/K/mol
 298.15  VIB  0.130E+30            36846.953    227.834    231.242
         ROT  0.292E+09              888.752      2.981     41.715
         INT  0.379E+38            37735.706    230.815    272.957
         TR   0.278E+29             1481.254      4.968     46.367
         TOT                       39216.9595   235.7827   319.3240  1336.0515

       T/K    H(0)-H(T)+PV         H(T)/Eh          T*S/Eh         G(T)/Eh
   ------------------------------------------------------------------------
    298.15    0.624962E-01    0.102381E+01    0.151721E+00    0.872087E+00
   ------------------------------------------------------------------------

         :::::::::::::::::::::::::::::::::::::::::::::::::::::
         ::                  THERMODYNAMIC                  ::
         :::::::::::::::::::::::::::::::::::::::::::::::::::::
         :: total free energy        -184.236161226663 Eh   ::
         ::.................................................::
         :: total energy             -185.108247849678 Eh   ::
         :: zero point energy           0.961311539657 Eh   ::
         :: G(RRHO) w/o ZPVE           -0.089224916642 Eh   ::
         :: G(RRHO) contrib.            0.872086623015 Eh   ::
         :::::::::::::::::::::::::::::::::::::::::::::::::::::

           -------------------------------------------------
          | TOTAL ENERGY             -185.108247849678 Eh   |
          | TOTAL ENTHALPY           -184.084440106979 Eh   |
          | TOTAL FREE ENERGY        -184.236161226663 Eh   |
          | GRADIENT NORM               0.000047187756 Eh/α |
          | HOMO-LUMO GAP               0.086906728341 eV   |
           -------------------------------------------------

 * finished run on 2025/07/17 at 07:54:47.875
