   * xtb version 6.7.1 (edcfbbe) compiled by 'albert@albert-system' on 2024-07-22

   ID    Z sym.   atoms
    1    8 O      1
    2    6 C      2-9, 11-17, 19-37, 39-54, 56
    3    7 N      10, 18, 38, 55
    4    1 H      57-90

          program call               : xtb data2507/toluene/IQ-oTPA/IQ-oTPA_toluene_S0_crest.xyz --gfn 2 --gbsa toluene --ohess vtight --parallel 40 --molden --ceasefiles --namespace data2507/toluene/IQ-oTPA/IQ-oTPA_toluene_S0_finalOpt
      * Solvation model:               GBSA
        Solvent                        toluene
        Solvent mass                       9.2140E+01 g/mol
          :  Hamiltonian                  GFN2-xTB          :
 * total energy  :  -142.3731953 Eh     change       -0.3182436E-08 Eh
 * total energy  :  -142.3732864 Eh     change       -0.9109990E-04 Eh
 * total energy  :  -142.3733307 Eh     change       -0.4425406E-04 Eh
 * total energy  :  -142.3733586 Eh     change       -0.2786854E-04 Eh
 * total energy  :  -142.3733877 Eh     change       -0.2911886E-04 Eh
 * total energy  :  -142.3734300 Eh     change       -0.4229537E-04 Eh
 * total energy  :  -142.3734583 Eh     change       -0.2836817E-04 Eh
 * total energy  :  -142.3734776 Eh     change       -0.1922904E-04 Eh
 * total energy  :  -142.3735027 Eh     change       -0.2518162E-04 Eh
 * total energy  :  -142.3735227 Eh     change       -0.1996390E-04 Eh
 * total energy  :  -142.3748187 Eh     change       -0.3103569E-06 Eh
 * total energy  :  -142.3748191 Eh     change       -0.3666100E-06 Eh
 * total energy  :  -142.3748193 Eh     change       -0.2340110E-06 Eh
 * total energy  :  -142.3748193 Eh     change        0.3069459E-08 Eh
 * total energy  :  -142.3748194 Eh     change       -0.1644303E-06 Eh
 * total energy  :  -142.3748196 Eh     change       -0.1445402E-06 Eh
 * total energy  :  -142.3748198 Eh     change       -0.2102322E-06 Eh
 * total energy  :  -142.3748199 Eh     change       -0.1098597E-06 Eh
 * total energy  :  -142.3748200 Eh     change       -0.9812680E-07 Eh
   *** GEOMETRY OPTIMIZATION CONVERGED AFTER 79 ITERATIONS ***

 final structure:
================
90
 xtb: 6.7.1 (edcfbbe)
O            8.15643748790784        2.94100784522344        0.36578515717888
C            7.83589113036793        1.77584488920145        0.25312850926098
C            8.73169175047975        0.59939467792712        0.14656648991887
C           10.11350771243464        0.55545334935629        0.15429091701188
C           10.73485673412527       -0.68389815220274        0.04697840825369
C            9.98735663956548       -1.84698659119732       -0.06465059580858
C            8.59631721924671       -1.81197930081684       -0.07486053129881
C            7.97463122814944       -0.58352362035645        0.03051450273430
C            6.56221033968279       -0.22350662201745        0.05238971805804
N            5.52091626910319       -1.00389733169174       -0.03573704006214
C            4.31775392194277       -0.37359780530716        0.01669365056437
C            3.14184000676554       -1.13057576609009       -0.05831161469259
C            1.89992376861977       -0.53415501062417        0.00068206305258
C            0.69393505035826       -1.37040930117369       -0.01106527839107
C            0.54626078753677       -2.39801429702451       -0.94219479431637
C           -0.59332667038695       -3.17276626639256       -0.97067153286371
C           -1.61861615809421       -2.96081575170476       -0.04526432714294
N           -2.78237367181388       -3.72415331833625       -0.07860894838766
C           -4.01203963890319       -3.14678335072157        0.27127481037501
C           -4.30657351520960       -1.83328380955925       -0.09437304695018
C           -5.51792792012103       -1.26831274833512        0.25511583519517
C           -6.45648756917334       -2.00266257914570        0.96234869427851
C           -6.17204192723195       -3.31057635173114        1.32073859578382
C           -4.95919596842962       -3.88124053178763        0.98384614633451
C           -2.73722320079186       -5.06942288234204       -0.47331329952408
C           -1.68226995399389       -5.88860582816459       -0.07219606573002
C           -1.64253647422778       -7.21311406464584       -0.46404248103158
C           -2.65265835048549       -7.74260777256888       -1.25109712467369
C           -3.70597816732642       -6.93396996774451       -1.64703326578666
C           -3.75045213186633       -5.60623933393103       -1.26675916385438
C           -1.45251870339547       -1.96043810128066        0.91699735524357
C           -0.32226865591649       -1.17485468707701        0.92541539090816
C            1.80331219191532        0.88301175183539        0.11019485280821
C            0.49430857404371        1.55518089162045        0.07895683847966
C           -0.41830702135836        1.28909587891865       -0.94077494850346
C           -1.64075642404967        1.92426106935027       -0.97920549869525
C           -1.99632141117755        2.83787688754222        0.01520075520232
N           -3.24575129211180        3.46049476000736        0.00023494808806
C           -3.82727828371726        3.85559916524869       -1.21045073568546
C           -5.20761668838733        3.77083949640313       -1.39361820257236
C           -5.77800365493744        4.16961261983728       -2.58725064147260
C           -4.98644709384376        4.65035391968911       -3.61790397954557
C           -3.61440595861420        4.73391801844845       -3.44251122846706
C           -3.03564515293195        4.34588212058321       -2.24946054674469
C           -3.91597613252543        3.69465594430927        1.21002552367712
C           -3.89178281670958        2.73586729632682        2.22263185689343
C           -4.54949359187468        2.96744983035853        3.41547026599769
C           -5.24412522618219        4.14974051499503        3.61543380191402
C           -5.27512437523090        5.10307587000097        2.61026029257491
C           -4.61486792804210        4.88332370457918        1.41626112562752
C           -1.07826999246884        3.11623665893241        1.02963121987211
C            0.15121603930154        2.49199014263775        1.05144483369152
C            2.94889301827662        1.63929982046691        0.20350803812422
C            4.21993408207099        1.04461447932654        0.16343051250660
N            5.32192813561056        1.82905661106067        0.24852927680588
C            6.46301923042032        1.19884607990942        0.19085937037184
H           10.68466402814122        1.46733605623717        0.24300970497017
H           11.81284826627869       -0.73956494486950        0.05132339990123
H           10.49321171198138       -2.79747651820655       -0.14574495198479
H            8.01097645984074       -2.71379228899662       -0.16196260632841
H            3.23554711856954       -2.20339678866860       -0.13327481859241
H            1.31918855029466       -2.56172616001984       -1.67886879547770
H           -0.70337201928643       -3.94265336745411       -1.72000048715031
H           -3.58130275341953       -1.26324750624306       -0.65593738914695
H           -5.73368340108041       -0.25080899472716       -0.03637765075239
H           -7.40319070592278       -1.55896730464645        1.23163338172965
H           -6.89650604034109       -3.88968677933778        1.87465068543651
H           -4.73687665313115       -4.89841098635455        1.27192321423181
H           -0.89916214976261       -5.48025507463911        0.55002827939158
H           -0.82136177711613       -7.83829457639310       -0.14485392559566
H           -2.61976350699074       -8.77868570690444       -1.55292302286337
H           -4.49567549686507       -7.33753101766441       -2.26396662302188
H           -4.56832054806278       -4.97518131745203       -1.58286571596969
H           -2.22027787274824       -1.80826084406786        1.66082779325357
H           -0.20764869865072       -0.41760605264306        1.68594188833058
H           -0.15996528034423        0.58242566783349       -1.71536730502328
H           -2.33615281985147        1.71025138871636       -1.77740050493109
H           -5.82772291103849        3.39193638393427       -0.59428523667053
H           -6.84835435277821        4.09742993367397       -2.71571762972137
H           -5.43518792818311        4.95891274091213       -4.55016769952046
H           -2.98939862603091        5.11459925991890       -4.23740216761884
H           -1.96679796101251        4.42404901126271       -2.11244239155257
H           -3.35695229146973        1.81059437253424        2.06468246056416
H           -4.52572080434744        2.21566835886092        4.19099119226230
H           -5.75840465914509        4.32689225985851        4.54811684885806
H           -5.81001508132860        6.02978344689760        2.75952273211802
H           -4.63322148883335        5.63140389349026        0.63707240922162
H           -1.33609667923876        3.83004395597184        1.79819970050775
H            0.85120070608724        2.71733826178268        1.84310430270441
H            2.89830448562820        2.71486560226833        0.28210690983445

          :  Hamiltonian                  GFN2-xTB          :
         :: gradient norm              0.000049400678 Eh/a0 ::
         :: HOMO-LUMO gap              0.724725983951 eV    ::
         :: SCC energy              -144.973817533511 Eh    ::
         :: -> dispersion             -0.128561530720 Eh    ::
         :: -> Gsolv                  -0.065007733377 Eh    ::
         :: repulsion energy           2.598997521561 Eh    ::

    * Orbital Energies and Occupations

         #    Occupation            Energy/Eh            Energy/eV
      -------------------------------------------------------------
         1        2.0000           -0.7246798             -19.7195
       ...           ...                  ...                  ...
       120        2.0000           -0.4110604             -11.1855
       121        2.0000           -0.4107915             -11.1782
       122        2.0000           -0.4096496             -11.1471
       123        2.0000           -0.4084527             -11.1146
       124        2.0000           -0.4071506             -11.0791
       125        2.0000           -0.4069119             -11.0726
       126        2.0000           -0.4059760             -11.0472
       127        2.0000           -0.4053608             -11.0304
       128        2.0000           -0.4030604             -10.9678
       129        2.0000           -0.3962498             -10.7825
       130        2.0000           -0.3633455              -9.8871
       131        2.0000           -0.3533744              -9.6158
       132        2.0000           -0.3510695              -9.5531 (HOMO)
       133        0.0000           -0.3244364              -8.8284 (LUMO)
       134                         -0.3062026              -8.3322
       135                         -0.2607582              -7.0956
       136                         -0.2466798              -6.7125
       137                         -0.2389763              -6.5029
       138                         -0.2326271              -6.3301
       139                         -0.2319804              -6.3125
       140                         -0.2312658              -6.2931
       141                         -0.2288960              -6.2286
       142                         -0.2255323              -6.1370
       143                         -0.2237483              -6.0885
       ...                                ...                  ...
       258                          0.7178861              19.5347
      -------------------------------------------------------------
                  HL-Gap            0.0266331 Eh            0.7247 eV

     #   Z          covCN         q      C6AA      α(0)
     1   8 O        0.856    -0.379    21.264     6.182
     2   6 C        2.858     0.219    23.384     7.926
     3   6 C        3.047    -0.029    28.681     8.783
     4   6 C        2.912    -0.012    28.303     8.724
     5   6 C        2.920    -0.021    28.541     8.761
     6   6 C        2.922    -0.016    28.406     8.740
     7   6 C        2.912    -0.020    28.508     8.755
     8   6 C        3.031    -0.002    28.055     8.688
     9   6 C        3.031     0.086    26.058     8.373
    10   7 N        1.839    -0.250    27.371     7.753
    11   6 C        2.986     0.080    26.208     8.398
    12   6 C        2.923    -0.051    29.255     8.870
    13   6 C        2.975     0.017    27.624     8.621
    14   6 C        2.977     0.004    27.932     8.669
    15   6 C        2.923    -0.032    28.807     8.802
    16   6 C        2.920    -0.048    29.202     8.862
    17   6 C        2.923     0.067    26.491     8.440
    18   7 N        2.752    -0.071    22.617     7.063
    19   6 C        2.924     0.064    26.561     8.452
    20   6 C        2.922    -0.047    29.157     8.855
    21   6 C        2.919    -0.029    28.717     8.788
    22   6 C        2.919    -0.037    28.932     8.821
    23   6 C        2.919    -0.029    28.735     8.790
    24   6 C        2.922    -0.047    29.158     8.855
    25   6 C        2.924     0.064    26.560     8.452
    26   6 C        2.922    -0.047    29.164     8.856
    27   6 C        2.919    -0.029    28.736     8.791
    28   6 C        2.919    -0.038    28.934     8.821
    29   6 C        2.919    -0.029    28.734     8.790
    30   6 C        2.922    -0.046    29.152     8.854
    31   6 C        2.921    -0.048    29.191     8.860
    32   6 C        2.923    -0.029    28.734     8.791
    33   6 C        2.975     0.014    27.690     8.632
    34   6 C        2.978     0.005    27.917     8.667
    35   6 C        2.923    -0.030    28.752     8.793
    36   6 C        2.921    -0.047    29.176     8.858
    37   6 C        2.924     0.067    26.502     8.442
    38   7 N        2.752    -0.075    22.700     7.076
    39   6 C        2.922     0.065    26.549     8.450
    40   6 C        2.922    -0.048    29.190     8.860
    41   6 C        2.919    -0.030    28.748     8.792
    42   6 C        2.919    -0.039    28.971     8.827
    43   6 C        2.919    -0.030    28.746     8.792
    44   6 C        2.922    -0.048    29.202     8.862
    45   6 C        2.924     0.065    26.549     8.450
    46   6 C        2.922    -0.047    29.162     8.856
    47   6 C        2.919    -0.030    28.737     8.791
    48   6 C        2.919    -0.038    28.946     8.823
    49   6 C        2.919    -0.030    28.742     8.792
    50   6 C        2.922    -0.047    29.161     8.856
    51   6 C        2.921    -0.047    29.177     8.858
    52   6 C        2.923    -0.033    28.817     8.803
    53   6 C        2.923    -0.047    29.175     8.858
    54   6 C        2.988     0.078    26.251     8.405
    55   7 N        1.839    -0.239    27.088     7.713
    56   6 C        3.032     0.058    26.664     8.470
    57   1 H        0.926     0.058     2.223     2.332
    58   1 H        0.926     0.062     2.175     2.306
    59   1 H        0.926     0.064     2.148     2.292
    60   1 H        0.926     0.065     2.140     2.288
    61   1 H        0.926     0.061     2.190     2.314
    62   1 H        0.926     0.040     2.453     2.449
    63   1 H        0.926     0.039     2.459     2.452
    64   1 H        0.926     0.033     2.541     2.493
    65   1 H        0.926     0.035     2.522     2.484
    66   1 H        0.926     0.034     2.536     2.490
    67   1 H        0.926     0.035     2.516     2.480
    68   1 H        0.926     0.033     2.538     2.491
    69   1 H        0.926     0.034     2.528     2.486
    70   1 H        0.926     0.035     2.511     2.478
    71   1 H        0.926     0.034     2.534     2.489
    72   1 H        0.926     0.035     2.515     2.480
    73   1 H        0.926     0.034     2.535     2.490
    74   1 H        0.926     0.038     2.481     2.463
    75   1 H        0.926     0.036     2.500     2.472
    76   1 H        0.926     0.035     2.511     2.478
    77   1 H        0.926     0.037     2.483     2.464
    78   1 H        0.926     0.032     2.555     2.500
    79   1 H        0.926     0.034     2.532     2.488
    80   1 H        0.926     0.032     2.561     2.502
    81   1 H        0.926     0.033     2.545     2.495
    82   1 H        0.926     0.031     2.568     2.506
    83   1 H        0.926     0.033     2.545     2.495
    84   1 H        0.926     0.035     2.523     2.484
    85   1 H        0.926     0.033     2.545     2.495
    86   1 H        0.926     0.034     2.527     2.486
    87   1 H        0.926     0.033     2.548     2.496
    88   1 H        0.926     0.037     2.483     2.464
    89   1 H        0.926     0.037     2.489     2.467
    90   1 H        0.926     0.057     2.230     2.335

molecular dipole:
                 x           y           z       tot (Debye)
 q only:       -2.022      -2.263      -0.173
   full:       -1.884      -2.230      -0.173       7.432

 projected vibrational frequencies (cm⁻¹)
eigval :       -0.00    -0.00    -0.00     0.00     0.00     0.00
eigval :       11.75    13.12    16.38    18.98    24.17    31.74
eigval :       38.37    43.42    51.52    53.31    54.71    56.25
eigval :       65.21    67.12    76.13    76.73    81.05    92.42
eigval :      104.30   113.48   120.43   128.91   140.08   152.90
eigval :      157.22   166.25   184.78   207.86   215.55   232.49
eigval :      232.85   236.54   257.79   266.02   290.63   303.75
eigval :      305.68   312.87   325.63   331.16   340.15   352.06
eigval :      356.78   361.73   378.24   378.87   380.51   382.18
eigval :      388.21   389.07   391.97   397.17   409.39   439.90
eigval :      443.59   452.37   462.47   480.67   486.79   492.08
eigval :      494.52   504.64   512.03   520.38   543.32   560.88
eigval :      574.11   582.60   583.84   587.43   588.53   591.21
eigval :      592.72   594.21   597.83   607.41   613.11   624.98
eigval :      637.20   656.54   661.12   661.30   667.23   667.67
eigval :      675.33   689.27   690.85   708.86   716.65   731.35
eigval :      733.29   744.08   746.20   753.92   757.03   758.70
eigval :      761.56   764.19   792.48   814.99   818.71   838.57
eigval :      861.83   869.49   870.15   872.68   874.55   875.47
eigval :      878.77   880.36   882.85   884.66   892.67   893.91
eigval :      894.08   896.71   904.66   909.24   909.60   916.08
eigval :      917.82   917.97   920.98   925.61   926.91   927.10
eigval :      928.06   928.34   929.24   929.91   930.45   931.65
eigval :      933.90   934.43   956.39   982.11   989.43  1004.11
eigval :     1004.16  1011.17  1029.42  1035.95  1062.03  1072.93
eigval :     1080.79  1081.88  1082.57  1082.91  1090.39  1119.48
eigval :     1120.24  1122.43  1122.46  1137.99  1143.04  1151.20
eigval :     1164.24  1177.82  1177.97  1178.44  1180.00  1182.70
eigval :     1183.68  1184.24  1191.10  1193.10  1193.97  1194.11
eigval :     1196.23  1211.14  1214.13  1218.09  1231.62  1257.11
eigval :     1261.95  1263.53  1267.95  1272.41  1276.20  1277.05
eigval :     1279.98  1281.08  1290.44  1306.57  1308.24  1314.11
eigval :     1314.97  1319.27  1321.74  1323.36  1324.24  1325.31
eigval :     1326.03  1348.64  1379.89  1404.58  1407.43  1412.13
eigval :     1423.58  1430.60  1433.92  1434.47  1440.45  1440.88
eigval :     1449.02  1466.93  1468.50  1469.60  1471.88  1472.43
eigval :     1487.03  1494.57  1516.79  1549.47  1553.36  1563.88
eigval :     1575.78  1575.93  1578.02  1579.64  1579.83  1586.45
eigval :     1588.43  1590.58  1590.72  1591.29  1596.98  1598.86
eigval :     1602.78  1708.92  3071.13  3072.09  3072.53  3073.08
eigval :     3073.51  3073.63  3074.26  3074.78  3076.49  3078.15
eigval :     3080.27  3081.97  3083.04  3083.10  3083.97  3084.69
eigval :     3084.91  3084.94  3085.92  3086.90  3087.63  3088.47
eigval :     3090.94  3091.33  3092.29  3093.46  3093.98  3094.76
eigval :     3094.90  3094.97  3095.67  3097.44  3099.49  3106.13

   temp. (K)  partition function   enthalpy   heat capacity  entropy
                                   cal/mol     cal/K/mol   cal/K/mol   J/K/mol
 298.15  VIB  0.550E+21            26277.535    164.825    164.779
         ROT  0.165E+09              888.752      2.981     40.586
         INT  0.910E+29            27166.287    167.806    205.366
         TR   0.186E+29             1481.254      4.968     45.577
         TOT                       28647.5410   172.7742   250.9424  1049.9430

       T/K    H(0)-H(T)+PV         H(T)/Eh          T*S/Eh         G(T)/Eh
   ------------------------------------------------------------------------
    298.15    0.456528E-01    0.731215E+00    0.119231E+00    0.611984E+00
   ------------------------------------------------------------------------

         :::::::::::::::::::::::::::::::::::::::::::::::::::::
         ::                  THERMODYNAMIC                  ::
         :::::::::::::::::::::::::::::::::::::::::::::::::::::
         :: total free energy        -141.762836051725 Eh   ::
         ::.................................................::
         :: total energy             -142.374820012274 Eh   ::
         :: zero point energy           0.685562030129 Eh   ::
         :: G(RRHO) w/o ZPVE           -0.073578069580 Eh   ::
         :: G(RRHO) contrib.            0.611983960549 Eh   ::
         :::::::::::::::::::::::::::::::::::::::::::::::::::::

           -------------------------------------------------
          | TOTAL ENERGY             -142.374820012274 Eh   |
          | TOTAL ENTHALPY           -141.643605219686 Eh   |
          | TOTAL FREE ENERGY        -141.762836051725 Eh   |
          | GRADIENT NORM               0.000049429851 Eh/α |
          | HOMO-LUMO GAP               0.724723688925 eV   |
           -------------------------------------------------

 * finished run on 2025/08/24 at 14:03:08.000
