   * xtb version 6.7.1 (edcfbbe) compiled by 'albert@albert-system' on 2024-07-22

   ID    Z sym.   atoms
    1    8 O      1
    2    6 C      2-9, 11-17, 19-37, 39-54, 56
    3    7 N      10, 18, 38, 55
    4    1 H      57-90

          program call               : xtb data2507/toluene/IQ-oTPA/IQ-oTPA_toluene_T1_crest.xyz --gfn 2 --uhf 2 --gbsa toluene --ohess vtight --parallel 40 --molden --ceasefiles --namespace data2507/toluene/IQ-oTPA/IQ-oTPA_toluene_T1_finalOpt
      * Solvation model:               GBSA
        Solvent                        toluene
        Solvent mass                       9.2140E+01 g/mol
          :  Hamiltonian                  GFN2-xTB          :
 * total energy  :  -142.3318914 Eh     change       -0.1627541E-07 Eh
 * total energy  :  -142.3321692 Eh     change       -0.2778481E-03 Eh
 * total energy  :  -142.3322980 Eh     change       -0.1288122E-03 Eh
 * total energy  :  -142.3323257 Eh     change       -0.2762581E-04 Eh
 * total energy  :  -142.3323597 Eh     change       -0.3407842E-04 Eh
 * total energy  :  -142.3323875 Eh     change       -0.2779700E-04 Eh
 * total energy  :  -142.3324210 Eh     change       -0.3352073E-04 Eh
 * total energy  :  -142.3324609 Eh     change       -0.3986201E-04 Eh
 * total energy  :  -142.3324969 Eh     change       -0.3598715E-04 Eh
 * total energy  :  -142.3325251 Eh     change       -0.2817877E-04 Eh
 * total energy  :  -142.3340511 Eh     change       -0.3404361E-06 Eh
 * total energy  :  -142.3340512 Eh     change       -0.1826901E-06 Eh
 * total energy  :  -142.3340514 Eh     change       -0.1951070E-06 Eh
 * total energy  :  -142.3340516 Eh     change       -0.2111647E-06 Eh
 * total energy  :  -142.3340519 Eh     change       -0.2664655E-06 Eh
 * total energy  :  -142.3340523 Eh     change       -0.3785157E-06 Eh
 * total energy  :  -142.3340526 Eh     change       -0.3140358E-06 Eh
 * total energy  :  -142.3340528 Eh     change       -0.1595621E-06 Eh
 * total energy  :  -142.3340528 Eh     change       -0.3638490E-08 Eh
   *** GEOMETRY OPTIMIZATION CONVERGED AFTER 94 ITERATIONS ***

 final structure:
================
90
 xtb: 6.7.1 (edcfbbe)
O            8.16450452281586        2.91640035802119        0.58272271778792
C            7.83677113011630        1.73179747469695        0.38100956327210
C            8.73115453506735        0.57835548829904        0.19418006549602
C           10.11642728488735        0.52408625892752        0.19396709918145
C           10.73054750906546       -0.70289658091247       -0.01207153575668
C            9.98391986168687       -1.85750252613470       -0.21433159952812
C            8.59500715816874       -1.81794645756690       -0.21478460511598
C            7.97699351378842       -0.59923011341595       -0.00988981834121
C            6.57822627468134       -0.23937954515509        0.04292469722229
N            5.51865409757583       -0.95961380191346       -0.07907013600796
C            4.30245250705785       -0.37032796387645        0.01185129047826
C            3.13369471072793       -1.11696342710206       -0.09713939765366
C            1.88287941398602       -0.52922850449186       -0.00596467121802
C            0.68042044742922       -1.36893333277897       -0.04309411225961
C            0.53795886298534       -2.37729493751243       -0.99716230970954
C           -0.59845832082763       -3.15599569114484       -1.04468843494219
C           -1.62788292405754       -2.96249460218260       -0.12011335652312
N           -2.79173052702133       -3.72956463950987       -0.17492176701719
C           -4.02525873479604       -3.14897840887839        0.14303737580935
C           -4.29578082114106       -1.82676111923967       -0.21424711505649
C           -5.51185195607760       -1.25508876018431        0.10500746269586
C           -6.47799269317543       -1.98906515293277        0.77546472683558
C           -6.21672812101567       -3.30410503738910        1.12727782104440
C           -5.00075696927082       -3.88333555857915        0.81900032785840
C           -2.72867106761860       -5.07568723897945       -0.55473886244690
C           -1.66373642084378       -5.87664897482002       -0.13976387785462
C           -1.60390260640829       -7.20351588054462       -0.51947960791699
C           -2.60110893114367       -7.75279457234291       -1.31025459304125
C           -3.66253963566092       -6.96200866852204       -1.72200453690124
C           -3.72938524881865       -5.63271759727086       -1.35215399357826
C           -1.47142673373782       -1.98132286875988        0.86281802414246
C           -0.34026053925987       -1.19750900704163        0.89472300528688
C            1.79097097749445        0.87639299670427        0.17024032611610
C            0.48355985166998        1.55277834994011        0.15206177620717
C           -0.41537685561421        1.32762307246008       -0.89042690596796
C           -1.63579342259919        1.96630157895951       -0.92249307978119
C           -2.00222795833227        2.84316030110290        0.10144261459737
N           -3.24894492811308        3.47022134324042        0.09115681490761
C           -3.81597702224010        3.90254064178867       -1.11211541042935
C           -5.19623151999588        3.83054104445808       -1.30807275219999
C           -5.75322112009910        4.26141914698765       -2.49650379054238
C           -4.94901012077209        4.76454027162989       -3.50713068015866
C           -3.57775915786429        4.83799190777224       -3.31786011098702
C           -3.01105914580950        4.41515156316879       -2.13111127496360
C           -3.93271364482035        3.66795940605722        1.29849344040389
C           -3.91886226756180        2.67827172893331        2.28211918581607
C           -4.59155680698539        2.87418450996222        3.47272231959429
C           -5.28808960233969        4.05103285434825        3.69919045068980
C           -5.30783455013137        5.03499731526889        2.72302509669859
C           -4.63545492006962        4.85057497038034        1.53015375551211
C           -1.09845269291762        3.08159249226476        1.13970799493421
C            0.12926152029874        2.45406661444571        1.15436239231371
C            2.93507052043402        1.63109066183842        0.30378878697535
C            4.21401714250580        1.05151942963447        0.24004860252196
N            5.31957714569529        1.77702934085076        0.36659211487149
C            6.50108957574563        1.19493295492591        0.28024519400979
H           10.69215310745222        1.42413343695031        0.35083044635745
H           11.80915427174567       -0.76064173152843       -0.01581131107584
H           10.48954335186121       -2.79805670361924       -0.37303542966802
H            8.00713706527067       -2.70954750436093       -0.37059357752655
H            3.22804008711761       -2.18460894759181       -0.22738136641632
H            1.31425769911513       -2.52437101432873       -1.73348678637609
H           -0.70484054223519       -3.91034920833332       -1.81020461674544
H           -3.54975093450470       -1.25926082038205       -0.74995933046208
H           -5.71017763776536       -0.23289688362327       -0.18137593191384
H           -7.42814635500467       -1.53976916306969        1.02155830436253
H           -6.96213161007820       -3.88170218239326        1.65387394101187
H           -4.79537799336954       -4.90410501885601        1.10597079636825
H           -0.89246474554125       -5.45308305038434        0.48670441286134
H           -0.77752114632725       -7.81521509212173       -0.18857255348062
H           -2.55139520694714       -8.79049833036238       -1.60345083207483
H           -4.44018779867265       -7.38140854260027       -2.34324573969523
H           -4.55050197592579       -5.01443849888068       -1.68389067328601
H           -2.24312435313786       -1.84811822822003        1.60623733569836
H           -0.22810928619637       -0.45779450481753        1.67247724057182
H           -0.14601155346815        0.64994790638259       -1.68644509017339
H           -2.32161010166277        1.78205298207455       -1.73595306544897
H           -5.82454818371936        3.43152767088809       -0.52550268369264
H           -6.82217702660266        4.19724702730619       -2.63754635436804
H           -5.38755024828476        5.09852564359681       -4.43524792537751
H           -2.94455356281280        5.23699031858773       -4.09670185740361
H           -1.94373693808420        4.48725676787686       -1.98140576341270
H           -3.38417440929461        1.75745514129855        2.10127432336612
H           -4.57795429048306        2.09986929673123        4.22554297203966
H           -5.81263723772684        4.20065858537655        4.63075897980062
H           -5.84346410253184        5.95701123845324        2.89481489805765
H           -4.64199458991172        5.62234334131931        0.77449164570618
H           -1.36335486356950        3.77014708639083        1.92844905575323
H            0.82055932402236        2.64828999071776        1.96147184637179
H            2.87715309677136        2.70174229261913        0.42986315547907

          :  Hamiltonian                  GFN2-xTB          :
         :: gradient norm              0.000058660375 Eh/a0 ::
         :: HOMO-LUMO gap              0.315719305325 eV    ::
         :: SCC energy              -144.933847798980 Eh    ::
         :: -> dispersion             -0.128292163828 Eh    ::
         :: -> Gsolv                  -0.074912733461 Eh    ::
         :: repulsion energy           2.599795024570 Eh    ::

    * Orbital Energies and Occupations

         #    Occupation            Energy/Eh            Energy/eV
      -------------------------------------------------------------
         1        2.0000           -0.6850210             -18.6404
       ...           ...                  ...                  ...
       121        2.0000           -0.4146641             -11.2836
       122        2.0000           -0.4124476             -11.2233
       123        2.0000           -0.4122857             -11.2189
       124        2.0000           -0.4115747             -11.1995
       125        2.0000           -0.4112630             -11.1910
       126        2.0000           -0.4088631             -11.1257
       127        2.0000           -0.4014573             -10.9242
       128        2.0000           -0.3935838             -10.7100
       129        2.0000           -0.3858959             -10.5008
       130        1.9618           -0.3597246              -9.7886
       131        1.6981           -0.3574552              -9.7269
       132        1.3401           -0.3560291              -9.6880
       133        0.9978           -0.3099379              -8.4338 (HOMO)
       134        0.0022           -0.2983355              -8.1181 (LUMO)
       135                         -0.2564007              -6.9770
       136                         -0.2429719              -6.6116
       137                         -0.2381900              -6.4815
       138                         -0.2379377              -6.4746
       139                         -0.2366137              -6.4386
       140                         -0.2356679              -6.4129
       141                         -0.2337933              -6.3618
       142                         -0.2304784              -6.2716
       143                         -0.2286260              -6.2212
       144                         -0.2284132              -6.2154
       ...                                ...                  ...
       258                          0.7192384              19.5715
      -------------------------------------------------------------
                  HL-Gap            0.0116024 Eh            0.3157 eV

     #   Z          covCN         q      C6AA      α(0)
     1   8 O        0.856    -0.484    23.444     6.492
     2   6 C        2.867     0.178    24.174     8.059
     3   6 C        3.066    -0.028    28.638     8.775
     4   6 C        2.912    -0.024    28.601     8.770
     5   6 C        2.920    -0.025    28.627     8.774
     6   6 C        2.921    -0.032    28.793     8.799
     7   6 C        2.911    -0.023    28.591     8.768
     8   6 C        3.035    -0.016    28.366     8.736
     9   6 C        3.021     0.098    25.813     8.334
    10   7 N        1.840    -0.209    26.387     7.613
    11   6 C        2.964     0.070    26.422     8.431
    12   6 C        2.922    -0.051    29.257     8.870
    13   6 C        2.975     0.001    27.994     8.679
    14   6 C        2.976     0.010    27.782     8.646
    15   6 C        2.923    -0.033    28.821     8.804
    16   6 C        2.919    -0.045    29.113     8.848
    17   6 C        2.924     0.064    26.573     8.454
    18   7 N        2.752    -0.053    22.272     7.009
    19   6 C        2.924     0.064    26.568     8.453
    20   6 C        2.922    -0.045    29.107     8.847
    21   6 C        2.919    -0.027    28.681     8.782
    22   6 C        2.919    -0.034    28.848     8.808
    23   6 C        2.919    -0.028    28.690     8.784
    24   6 C        2.921    -0.044    29.099     8.846
    25   6 C        2.924     0.064    26.565     8.452
    26   6 C        2.922    -0.044    29.100     8.846
    27   6 C        2.919    -0.028    28.690     8.784
    28   6 C        2.919    -0.034    28.846     8.807
    29   6 C        2.919    -0.028    28.691     8.784
    30   6 C        2.922    -0.044    29.095     8.846
    31   6 C        2.920    -0.045    29.126     8.850
    32   6 C        2.923    -0.031    28.765     8.795
    33   6 C        2.975     0.012    27.741     8.640
    34   6 C        2.978     0.011    27.767     8.644
    35   6 C        2.923    -0.029    28.727     8.789
    36   6 C        2.920    -0.045    29.119     8.849
    37   6 C        2.924     0.065    26.542     8.449
    38   7 N        2.752    -0.055    22.297     7.013
    39   6 C        2.923     0.064    26.563     8.452
    40   6 C        2.922    -0.045    29.116     8.849
    41   6 C        2.919    -0.028    28.695     8.784
    42   6 C        2.919    -0.035    28.860     8.809
    43   6 C        2.919    -0.028    28.690     8.784
    44   6 C        2.921    -0.045    29.119     8.849
    45   6 C        2.925     0.064    26.568     8.453
    46   6 C        2.922    -0.044    29.091     8.845
    47   6 C        2.919    -0.027    28.686     8.783
    48   6 C        2.919    -0.034    28.841     8.807
    49   6 C        2.919    -0.028    28.689     8.783
    50   6 C        2.921    -0.044    29.085     8.844
    51   6 C        2.920    -0.044    29.096     8.846
    52   6 C        2.923    -0.031    28.781     8.798
    53   6 C        2.922    -0.057    29.421     8.895
    54   6 C        2.954     0.087    26.070     8.375
    55   7 N        1.841    -0.222    26.694     7.657
    56   6 C        3.016     0.042    27.038     8.530
    57   1 H        0.926     0.040     2.444     2.445
    58   1 H        0.926     0.048     2.342     2.393
    59   1 H        0.926     0.051     2.313     2.378
    60   1 H        0.926     0.052     2.296     2.370
    61   1 H        0.926     0.058     2.218     2.329
    62   1 H        0.926     0.042     2.428     2.437
    63   1 H        0.926     0.042     2.419     2.432
    64   1 H        0.926     0.038     2.472     2.459
    65   1 H        0.926     0.040     2.455     2.450
    66   1 H        0.926     0.038     2.473     2.459
    67   1 H        0.926     0.039     2.461     2.453
    68   1 H        0.926     0.038     2.477     2.461
    69   1 H        0.926     0.038     2.473     2.459
    70   1 H        0.926     0.039     2.463     2.454
    71   1 H        0.926     0.038     2.481     2.463
    72   1 H        0.926     0.039     2.456     2.451
    73   1 H        0.926     0.039     2.462     2.454
    74   1 H        0.926     0.041     2.430     2.438
    75   1 H        0.926     0.039     2.461     2.453
    76   1 H        0.926     0.040     2.447     2.446
    77   1 H        0.926     0.043     2.406     2.425
    78   1 H        0.926     0.039     2.466     2.455
    79   1 H        0.926     0.039     2.456     2.451
    80   1 H        0.926     0.037     2.489     2.467
    81   1 H        0.926     0.038     2.481     2.463
    82   1 H        0.926     0.036     2.496     2.471
    83   1 H        0.926     0.039     2.462     2.454
    84   1 H        0.926     0.040     2.451     2.448
    85   1 H        0.926     0.038     2.478     2.461
    86   1 H        0.926     0.039     2.461     2.453
    87   1 H        0.926     0.038     2.474     2.460
    88   1 H        0.926     0.042     2.418     2.432
    89   1 H        0.926     0.040     2.444     2.445
    90   1 H        0.926     0.051     2.304     2.374

molecular dipole:
                 x           y           z       tot (Debye)
 q only:       -7.414      -2.728      -0.501
   full:       -7.207      -2.704      -0.500      19.607

 projected vibrational frequencies (cm⁻¹)
eigval :       -0.00    -0.00    -0.00     0.00     0.00     0.00
eigval :       13.83    14.16    16.30    18.70    23.20    24.85
eigval :       39.29    41.49    51.17    54.01    54.91    60.80
eigval :       66.31    68.04    76.22    78.89    82.35    96.06
eigval :      106.83   114.05   127.05   129.99   140.94   154.09
eigval :      158.16   171.19   186.96   211.45   216.01   231.60
eigval :      233.08   237.09   257.60   267.29   291.03   303.67
eigval :      306.95   312.88   324.66   332.18   339.96   355.78
eigval :      357.28   361.39   377.55   377.88   379.49   380.61
eigval :      387.90   388.87   394.71   398.34   411.17   429.49
eigval :      440.04   444.64   459.24   478.25   485.06   495.00
eigval :      499.28   503.43   513.36   515.31   535.52   552.43
eigval :      570.62   571.21   576.19   582.83   585.66   586.56
eigval :      588.71   592.92   593.38   604.31   606.88   618.15
eigval :      633.96   640.99   655.38   660.15   660.63   665.68
eigval :      666.24   674.87   688.59   694.32   695.97   705.91
eigval :      708.78   720.08   736.78   740.00   755.51   758.38
eigval :      759.81   762.01   771.00   815.41   817.69   832.89
eigval :      842.67   851.50   865.87   871.39   872.17   873.23
eigval :      874.01   874.55   875.35   877.33   892.35   895.19
eigval :      896.00   896.94   901.51   902.05   909.07   909.24
eigval :      916.11   917.51   919.09   920.43   925.54   927.34
eigval :      927.48   928.64   929.05   929.22   929.94   930.14
eigval :      932.10   934.75   951.78   979.86   984.20   989.74
eigval :     1002.90  1003.19  1010.89  1027.74  1052.04  1063.37
eigval :     1072.13  1079.93  1080.84  1081.26  1081.89  1084.52
eigval :     1119.58  1120.29  1122.16  1122.32  1138.27  1138.95
eigval :     1142.38  1170.26  1177.01  1177.58  1177.75  1178.53
eigval :     1178.86  1181.18  1187.02  1190.23  1191.16  1192.15
eigval :     1192.64  1207.92  1210.48  1213.01  1226.46  1244.23
eigval :     1249.44  1260.77  1266.07  1268.77  1274.40  1275.09
eigval :     1277.08  1279.38  1288.02  1295.82  1302.35  1302.56
eigval :     1310.04  1312.99  1313.86  1316.38  1322.62  1323.69
eigval :     1324.08  1324.17  1340.35  1396.05  1403.49  1405.61
eigval :     1410.04  1424.45  1432.19  1432.60  1438.90  1439.11
eigval :     1442.66  1461.82  1462.66  1462.72  1463.59  1463.81
eigval :     1470.58  1482.47  1486.57  1530.86  1544.81  1549.07
eigval :     1557.61  1569.71  1570.89  1571.27  1574.37  1574.83
eigval :     1580.88  1584.26  1584.65  1584.75  1587.04  1592.77
eigval :     1594.02  1611.14  3075.83  3076.47  3076.82  3076.92
eigval :     3077.21  3077.24  3077.65  3078.17  3078.64  3080.35
eigval :     3080.55  3084.42  3084.83  3084.96  3086.13  3086.28
eigval :     3087.26  3087.83  3088.83  3088.92  3089.24  3089.69
eigval :     3090.29  3090.78  3091.33  3091.76  3092.26  3095.98
eigval :     3096.68  3097.02  3097.29  3097.54  3098.23  3098.75

   temp. (K)  partition function   enthalpy   heat capacity  entropy
                                   cal/mol     cal/K/mol   cal/K/mol   J/K/mol
 298.15  VIB  0.483E+21            26371.156    165.990    164.788
         ROT  0.166E+09              888.752      2.981     40.590
         INT  0.801E+29            27259.909    168.971    205.377
         TR   0.186E+29             1481.254      4.968     45.577
         TOT                       28741.1627   173.9388   250.9541  1049.9920

       T/K    H(0)-H(T)+PV         H(T)/Eh          T*S/Eh         G(T)/Eh
   ------------------------------------------------------------------------
    298.15    0.458020E-01    0.728734E+00    0.119236E+00    0.609498E+00
   ------------------------------------------------------------------------

         :::::::::::::::::::::::::::::::::::::::::::::::::::::
         ::                  THERMODYNAMIC                  ::
         :::::::::::::::::::::::::::::::::::::::::::::::::::::
         :: total free energy        -141.724555001160 Eh   ::
         ::.................................................::
         :: total energy             -142.334052778339 Eh   ::
         :: zero point energy           0.682932219123 Eh   ::
         :: G(RRHO) w/o ZPVE           -0.073434441944 Eh   ::
         :: G(RRHO) contrib.            0.609497777180 Eh   ::
         :::::::::::::::::::::::::::::::::::::::::::::::::::::

           -------------------------------------------------
          | TOTAL ENERGY             -142.334052778339 Eh   |
          | TOTAL ENTHALPY           -141.605318601064 Eh   |
          | TOTAL FREE ENERGY        -141.724555001160 Eh   |
          | GRADIENT NORM               0.000052664731 Eh/α |
          | HOMO-LUMO GAP               0.315718653554 eV   |
           -------------------------------------------------

 * finished run on 2025/08/24 at 14:16:28.335
