   * xtb version 6.7.1 (edcfbbe) compiled by 'albert@albert-system' on 2024-07-22

   ID    Z sym.   atoms
    1    8 O      1
    2    6 C      2-9, 11-17, 19-37, 39-54, 56
    3    7 N      10, 18, 38, 55
    4    1 H      57-90

          program call               : xtb data2507/toluene/IQ-oTPA/IQ-oTPA_toluene_S0_finalOpt.xtbopt.xyz --gfn 2 --uhf 2 --gbsa toluene --ohess vtight --parallel 40 --molden --ceasefiles --namespace data2507/toluene/IQ-oTPA/IQ-oTPA_toluene_T1_preOpt
      * Solvation model:               GBSA
        Solvent                        toluene
        Solvent mass                       9.2140E+01 g/mol
          :  Hamiltonian                  GFN2-xTB          :
 * total energy  :  -142.3294253 Eh     change       -0.1640333E-07 Eh
 * total energy  :  -142.3325184 Eh     change       -0.3093186E-02 Eh
 * total energy  :  -142.3338097 Eh     change       -0.1291268E-02 Eh
 * total energy  :  -142.3339394 Eh     change       -0.1297217E-03 Eh
 * total energy  :  -142.3340173 Eh     change       -0.7784755E-04 Eh
 * total energy  :  -142.3340236 Eh     change       -0.6289872E-05 Eh
 * total energy  :  -142.3340274 Eh     change       -0.3823332E-05 Eh
 * total energy  :  -142.3340285 Eh     change       -0.1148979E-05 Eh
 * total energy  :  -142.3340298 Eh     change       -0.1281432E-05 Eh
 * total energy  :  -142.3340299 Eh     change       -0.8751326E-07 Eh
 * total energy  :  -142.3340343 Eh     change       -0.8279692E-06 Eh
 * total energy  :  -142.3340350 Eh     change       -0.6455647E-06 Eh
 * total energy  :  -142.3340355 Eh     change       -0.5261028E-06 Eh
 * total energy  :  -142.3340361 Eh     change       -0.6128865E-06 Eh
 * total energy  :  -142.3340368 Eh     change       -0.6668174E-06 Eh
 * total energy  :  -142.3340375 Eh     change       -0.6891710E-06 Eh
 * total energy  :  -142.3340381 Eh     change       -0.6232069E-06 Eh
 * total energy  :  -142.3340387 Eh     change       -0.5985006E-06 Eh
 * total energy  :  -142.3340387 Eh     change       -0.5291184E-08 Eh
   *** GEOMETRY OPTIMIZATION CONVERGED AFTER 22 ITERATIONS ***

 final structure:
================
90
 xtb: 6.7.1 (edcfbbe)
O            8.17021125725855        2.95251099752482        0.37397009130567
C            7.84292772631597        1.75684002874801        0.25212088252815
C            8.73778115511916        0.59418084733311        0.14170001180926
C           10.12308315957320        0.54077850270675        0.14798450786292
C           10.73819350721127       -0.69781445428567        0.03595521058315
C            9.99229262176513       -1.86476709395880       -0.08074656451530
C            8.60343476815986       -1.82573553016386       -0.09066178791708
C            7.98436090672117       -0.59529892213559        0.01994468468769
C            6.58549506682574       -0.23311158519661        0.04329674987007
N            5.52622142485607       -0.95911487110307       -0.04102025195745
C            4.30974646267092       -0.36586901215751        0.01117154536419
C            3.14132253740160       -1.11700123344461       -0.06722865148361
C            1.89063256337870       -0.52602667633758       -0.00322114982680
C            0.68770047192800       -1.36637558492198       -0.01331102643514
C            0.53851102958069       -2.39230693857244       -0.94702716588898
C           -0.59991276601042       -3.16904893207884       -0.97394599158600
C           -1.62300192249275       -2.95769551662955       -0.04595800284247
N           -2.78796240933575       -3.72316943173444       -0.07917137231242
C           -4.01671687634226       -3.14165627810054        0.25702185485425
C           -4.29959886315261       -1.82479600825380       -0.10979000894861
C           -5.51093493178923       -1.25408073895270        0.22873637559990
C           -6.45935903711142       -1.98367254214664        0.92858982683057
C           -6.18595385969268       -3.29375129413986        1.28943733512453
C           -4.97485095685276       -3.87216685930000        0.96115966772146
C           -2.73581180578906       -5.07062492761502       -0.45699735385455
C           -1.67115709925644       -5.87728497042053       -0.05278129908798
C           -1.62297783401444       -7.20471457436118       -0.43231519881475
C           -2.63175315022289       -7.74871803048496       -1.21197494131892
C           -3.69355298031707       -6.95245802734177       -1.61198675822723
C           -3.74895469558012       -5.62268211459116       -1.24198302856009
C           -1.45814524416151       -1.95908349291751        0.91814958988968
C           -0.32664473573299       -1.17511378613378        0.92706511278986
C            1.79735238802881        0.88517714319460        0.11548623164564
C            0.48778466089217        1.55726069489168        0.08577601544256
C           -0.42211147689425        1.29431221975274       -0.93803242300957
C           -1.64535895897832        1.92744922654663       -0.97691897281610
C           -2.00335818371544        2.83596796244126        0.02195143552054
N           -3.25300938052407        3.45781163682794        0.00546064063023
C           -3.82833487749012        3.85772440407620       -1.20508471700146
C           -5.20922171157686        3.77666946036110       -1.39256051280423
C           -5.77309885456380        4.17634786624331       -2.58861853996899
C           -4.97518513520043        4.65678572302079       -3.61513991605366
C           -3.60322696176339        4.73857329180201       -3.43450362825265
C           -3.02972659692106        4.34688190670264       -2.24042835365340
C           -3.92627504327503        3.68733490793831        1.21276927623519
C           -3.89592432286019        2.72766998399964        2.22549035862302
C           -4.55852718595531        2.95435787312207        3.41624420526953
C           -5.26088934879290        4.13283149189003        3.61466523430864
C           -5.29644052408738        5.08728729728910        2.61009066695357
C           -4.63427594914612        4.87196973387896        1.41668101930445
C           -1.08870672147235        3.11211863286380        1.04096863442179
C            0.14172025755827        2.49009649202855        1.06172540132163
C            2.94108263570649        1.64661509501831        0.20791327287457
C            4.22037421878337        1.06607885323998        0.16423569765913
N            5.32569035940291        1.79847065563644        0.24595525910842
C            6.50752789963555        1.21359698001695        0.18959178196243
H           10.69795321810954        1.45027754969985        0.24011299006199
H           11.81681871620976       -0.75515110025001        0.04013470981942
H           10.49858197253898       -2.81449665062662       -0.16543912244734
H            8.01629000549581       -2.72673474536046       -0.18158977748902
H            3.23543277434329       -2.18946776065100       -0.14959495538410
H            1.31089767100041       -2.55425177209538       -1.68442122571444
H           -0.71250913993393       -3.93588933367418       -1.72597863564093
H           -3.56698923978693       -1.26070374589105       -0.66726791978935
H           -5.71974048328156       -0.23613662509216       -0.06507465896241
H           -7.40541442053429       -1.53469017630464        1.19054599265946
H           -6.91773414887906       -3.86785223233812        1.83844655454774
H           -4.75936836609241       -4.88923504891062        1.25390720350005
H           -0.89066278327357       -5.45761119833489        0.56481869375235
H           -0.79643703633850       -7.82087484359356       -0.11022619767345
H           -2.59077838690119       -8.78669170425360       -1.50557591817668
H           -4.48049912586990       -7.36788960964824       -2.22411150297108
H           -4.57065682544203       -5.00009732136054       -1.56412353043630
H           -2.22368216027774       -1.81169647370400        1.66515047032885
H           -0.20926354327809       -0.41933233744743        1.68850641402350
H           -0.15935663954053        0.59159602478433       -1.71427899452989
H           -2.33968134281311        1.71459161080889       -1.77609890256210
H           -5.83262412130259        3.39558160993068       -0.59723174920956
H           -6.84249893609710        4.10555340127785       -2.72292959008076
H           -5.41910025988424        4.96679217694792       -4.54900049869527
H           -2.97491562881546        5.12006737677771       -4.22598584680226
H           -1.96193902614936        4.42555578855531       -2.09743949766287
H           -3.35634748289489        1.80559713559881        2.06708909628532
H           -4.53217815988588        2.20293979447034        4.19159958538640
H           -5.77755795649091        4.30659047472284        4.54644990452005
H           -5.83620320954268        6.01074015458953        2.75984571052885
H           -4.65267342097980        5.62148846956367        0.63922778024687
H           -1.34738068111498        3.82559045835759        1.80935346505184
H            0.84179556978823        2.71426941124061        1.85334041166009
H            2.88217409438193        2.72183319464150        0.28517945382745

          :  Hamiltonian                  GFN2-xTB          :
         :: gradient norm              0.000061256614 Eh/a0 ::
         :: HOMO-LUMO gap              0.314415385565 eV    ::
         :: SCC energy              -144.933972663573 Eh    ::
         :: -> dispersion             -0.128339092976 Eh    ::
         :: -> Gsolv                  -0.074881155651 Eh    ::
         :: repulsion energy           2.599933982693 Eh    ::

    * Orbital Energies and Occupations

         #    Occupation            Energy/Eh            Energy/eV
      -------------------------------------------------------------
         1        2.0000           -0.6850648             -18.6416
       ...           ...                  ...                  ...
       121        2.0000           -0.4146072             -11.2820
       122        2.0000           -0.4124428             -11.2231
       123        2.0000           -0.4122798             -11.2187
       124        2.0000           -0.4116370             -11.2012
       125        2.0000           -0.4112507             -11.1907
       126        2.0000           -0.4088719             -11.1260
       127        2.0000           -0.4016327             -10.9290
       128        2.0000           -0.3936911             -10.7129
       129        2.0000           -0.3858922             -10.5007
       130        1.9597           -0.3596980              -9.7879
       131        1.7015           -0.3574987              -9.7280
       132        1.3389           -0.3560523              -9.6887
       133        0.9977           -0.3099262              -8.4335 (HOMO)
       134        0.0023           -0.2983716              -8.1191 (LUMO)
       135                         -0.2559952              -6.9660
       136                         -0.2429788              -6.6118
       137                         -0.2382665              -6.4836
       138                         -0.2378875              -6.4732
       139                         -0.2366162              -6.4387
       140                         -0.2356910              -6.4135
       141                         -0.2338140              -6.3624
       142                         -0.2304591              -6.2711
       143                         -0.2287017              -6.2233
       144                         -0.2283797              -6.2145
       ...                                ...                  ...
       258                          0.7191838              19.5700
      -------------------------------------------------------------
                  HL-Gap            0.0115546 Eh            0.3144 eV

     #   Z          covCN         q      C6AA      α(0)
     1   8 O        0.856    -0.485    23.447     6.492
     2   6 C        2.866     0.178    24.175     8.060
     3   6 C        3.066    -0.028    28.638     8.775
     4   6 C        2.912    -0.024    28.602     8.770
     5   6 C        2.920    -0.025    28.627     8.774
     6   6 C        2.921    -0.032    28.793     8.799
     7   6 C        2.911    -0.023    28.590     8.768
     8   6 C        3.035    -0.016    28.367     8.736
     9   6 C        3.020     0.098    25.813     8.334
    10   7 N        1.840    -0.209    26.381     7.612
    11   6 C        2.964     0.070    26.421     8.431
    12   6 C        2.922    -0.050    29.254     8.870
    13   6 C        2.975     0.001    27.991     8.678
    14   6 C        2.976     0.010    27.786     8.646
    15   6 C        2.923    -0.033    28.819     8.804
    16   6 C        2.920    -0.045    29.120     8.849
    17   6 C        2.924     0.064    26.571     8.453
    18   7 N        2.752    -0.053    22.272     7.009
    19   6 C        2.925     0.064    26.569     8.453
    20   6 C        2.922    -0.044    29.102     8.847
    21   6 C        2.919    -0.027    28.681     8.782
    22   6 C        2.919    -0.034    28.846     8.807
    23   6 C        2.919    -0.028    28.689     8.783
    24   6 C        2.921    -0.044    29.094     8.845
    25   6 C        2.924     0.064    26.566     8.452
    26   6 C        2.922    -0.044    29.098     8.846
    27   6 C        2.919    -0.028    28.690     8.784
    28   6 C        2.919    -0.034    28.844     8.807
    29   6 C        2.919    -0.028    28.691     8.784
    30   6 C        2.922    -0.044    29.093     8.845
    31   6 C        2.920    -0.046    29.133     8.851
    32   6 C        2.923    -0.031    28.763     8.795
    33   6 C        2.975     0.012    27.741     8.640
    34   6 C        2.978     0.011    27.767     8.644
    35   6 C        2.923    -0.029    28.727     8.789
    36   6 C        2.920    -0.045    29.116     8.849
    37   6 C        2.925     0.065    26.542     8.449
    38   7 N        2.752    -0.055    22.301     7.014
    39   6 C        2.923     0.064    26.563     8.452
    40   6 C        2.922    -0.045    29.115     8.849
    41   6 C        2.919    -0.028    28.695     8.784
    42   6 C        2.919    -0.035    28.860     8.809
    43   6 C        2.919    -0.028    28.690     8.784
    44   6 C        2.922    -0.045    29.119     8.849
    45   6 C        2.925     0.064    26.567     8.453
    46   6 C        2.922    -0.044    29.094     8.845
    47   6 C        2.919    -0.027    28.686     8.783
    48   6 C        2.919    -0.034    28.843     8.807
    49   6 C        2.919    -0.028    28.690     8.784
    50   6 C        2.921    -0.044    29.088     8.844
    51   6 C        2.920    -0.044    29.094     8.845
    52   6 C        2.923    -0.031    28.780     8.797
    53   6 C        2.922    -0.057    29.420     8.895
    54   6 C        2.954     0.087    26.070     8.375
    55   7 N        1.841    -0.222    26.690     7.656
    56   6 C        3.016     0.042    27.037     8.529
    57   1 H        0.926     0.040     2.444     2.445
    58   1 H        0.926     0.048     2.342     2.393
    59   1 H        0.926     0.051     2.313     2.378
    60   1 H        0.926     0.052     2.297     2.370
    61   1 H        0.926     0.058     2.220     2.330
    62   1 H        0.926     0.041     2.432     2.439
    63   1 H        0.926     0.042     2.419     2.432
    64   1 H        0.926     0.038     2.470     2.458
    65   1 H        0.926     0.040     2.454     2.449
    66   1 H        0.926     0.038     2.472     2.459
    67   1 H        0.926     0.039     2.460     2.453
    68   1 H        0.926     0.038     2.478     2.462
    69   1 H        0.926     0.038     2.470     2.458
    70   1 H        0.926     0.039     2.462     2.454
    71   1 H        0.926     0.038     2.480     2.463
    72   1 H        0.926     0.039     2.455     2.450
    73   1 H        0.926     0.039     2.463     2.454
    74   1 H        0.926     0.041     2.430     2.438
    75   1 H        0.926     0.039     2.465     2.455
    76   1 H        0.926     0.040     2.446     2.446
    77   1 H        0.926     0.043     2.406     2.426
    78   1 H        0.926     0.039     2.465     2.455
    79   1 H        0.926     0.039     2.456     2.451
    80   1 H        0.926     0.037     2.489     2.467
    81   1 H        0.926     0.038     2.481     2.463
    82   1 H        0.926     0.036     2.498     2.471
    83   1 H        0.926     0.039     2.463     2.454
    84   1 H        0.926     0.040     2.452     2.449
    85   1 H        0.926     0.038     2.479     2.462
    86   1 H        0.926     0.039     2.462     2.454
    87   1 H        0.926     0.038     2.475     2.460
    88   1 H        0.926     0.042     2.418     2.432
    89   1 H        0.926     0.040     2.444     2.445
    90   1 H        0.926     0.051     2.304     2.374

molecular dipole:
                 x           y           z       tot (Debye)
 q only:       -7.421      -2.773      -0.312
   full:       -7.213      -2.747      -0.312      19.636

 projected vibrational frequencies (cm⁻¹)
eigval :       -0.00    -0.00    -0.00    -0.00     0.00     0.00
eigval :       10.27    13.64    16.00    19.48    23.91    31.14
eigval :       39.17    40.82    51.60    54.26    55.19    57.64
eigval :       66.00    67.79    75.19    78.69    81.26    95.51
eigval :      105.49   115.86   127.41   131.45   140.78   154.19
eigval :      158.86   169.97   186.36   210.71   215.79   231.04
eigval :      232.97   237.01   258.27   267.56   291.54   303.63
eigval :      306.76   312.89   324.19   331.60   339.64   355.66
eigval :      357.34   361.61   377.09   377.61   380.01   380.68
eigval :      388.34   390.19   394.72   398.26   411.36   428.81
eigval :      440.08   444.79   459.66   477.89   484.94   494.86
eigval :      498.99   503.87   513.30   515.38   535.52   552.62
eigval :      571.05   572.07   576.22   582.89   585.43   586.24
eigval :      588.54   593.01   593.17   604.45   607.04   618.07
eigval :      633.82   641.42   655.74   659.95   661.10   666.28
eigval :      666.91   674.85   688.61   694.39   701.00   706.10
eigval :      709.88   720.11   736.73   740.14   757.84   758.65
eigval :      761.96   763.24   770.97   815.34   817.66   833.14
eigval :      842.44   852.10   867.88   868.31   871.10   872.89
eigval :      873.58   873.71   875.92   877.41   893.69   896.08
eigval :      897.61   898.83   901.79   902.61   908.89   909.25
eigval :      917.02   917.38   919.04   919.75   926.59   927.64
eigval :      927.86   928.27   928.59   930.26   930.35   932.14
eigval :      934.35   935.51   951.73   979.54   983.67   989.41
eigval :     1002.99  1003.17  1010.92  1028.33  1051.39  1063.26
eigval :     1073.47  1079.73  1080.61  1081.43  1081.60  1084.58
eigval :     1119.43  1119.79  1122.09  1122.37  1137.42  1140.18
eigval :     1143.27  1170.20  1176.53  1177.36  1177.83  1178.76
eigval :     1179.15  1180.99  1186.94  1189.67  1191.69  1192.16
eigval :     1193.61  1208.68  1210.52  1213.78  1226.51  1244.41
eigval :     1249.50  1260.81  1265.52  1269.87  1274.31  1274.99
eigval :     1277.18  1279.25  1288.01  1295.37  1302.31  1302.76
eigval :     1310.29  1312.90  1313.85  1316.49  1322.56  1323.61
eigval :     1324.04  1324.23  1340.45  1396.11  1403.77  1405.56
eigval :     1410.06  1424.44  1432.19  1432.58  1438.87  1439.02
eigval :     1442.78  1462.06  1462.29  1462.78  1463.83  1463.96
eigval :     1470.59  1482.83  1487.31  1531.25  1545.00  1549.22
eigval :     1557.74  1569.88  1570.97  1571.20  1574.50  1574.78
eigval :     1581.09  1584.44  1584.69  1584.77  1586.92  1592.88
eigval :     1594.03  1610.80  3075.83  3076.43  3076.69  3077.01
eigval :     3077.16  3077.22  3077.69  3078.19  3078.71  3080.22
eigval :     3080.71  3084.44  3085.01  3085.42  3086.06  3086.17
eigval :     3087.00  3087.54  3088.42  3089.00  3089.05  3089.87
eigval :     3090.45  3090.94  3091.27  3091.98  3092.35  3095.94
eigval :     3096.61  3097.04  3097.34  3097.44  3098.08  3098.71

   temp. (K)  partition function   enthalpy   heat capacity  entropy
                                   cal/mol     cal/K/mol   cal/K/mol   J/K/mol
 298.15  VIB  0.556E+21            26368.768    165.955    165.013
         ROT  0.165E+09              888.752      2.981     40.587
         INT  0.919E+29            27257.521    168.936    205.600
         TR   0.186E+29             1481.254      4.968     45.577
         TOT                       28738.7747   173.9040   251.1773  1050.9256

       T/K    H(0)-H(T)+PV         H(T)/Eh          T*S/Eh         G(T)/Eh
   ------------------------------------------------------------------------
    298.15    0.457982E-01    0.728799E+00    0.119342E+00    0.609457E+00
   ------------------------------------------------------------------------

         :::::::::::::::::::::::::::::::::::::::::::::::::::::
         ::                  THERMODYNAMIC                  ::
         :::::::::::::::::::::::::::::::::::::::::::::::::::::
         :: total free energy        -141.724582115782 Eh   ::
         ::.................................................::
         :: total energy             -142.334038683471 Eh   ::
         :: zero point energy           0.683000831927 Eh   ::
         :: G(RRHO) w/o ZPVE           -0.073544264238 Eh   ::
         :: G(RRHO) contrib.            0.609456567689 Eh   ::
         :::::::::::::::::::::::::::::::::::::::::::::::::::::

           -------------------------------------------------
          | TOTAL ENERGY             -142.334038683471 Eh   |
          | TOTAL ENTHALPY           -141.605239698820 Eh   |
          | TOTAL FREE ENERGY        -141.724582115782 Eh   |
          | GRADIENT NORM               0.000054759821 Eh/α |
          | HOMO-LUMO GAP               0.314416388828 eV   |
           -------------------------------------------------

 * finished run on 2025/08/24 at 14:03:16.797
