   * xtb version 6.7.1 (edcfbbe) compiled by 'albert@albert-system' on 2024-07-22

   ID    Z sym.   atoms
    1    8 O      1
    2    6 C      2-9, 11-17, 19-37, 39-54, 56
    3    7 N      10, 18, 38, 55
    4    1 H      57-90

          program call               : xtb data2507/toluene/IQ-oTPA/IQ-oTPA.xyz --gfn 2 --gbsa toluene --ohess vtight --parallel 40 --molden --ceasefiles --namespace data2507/toluene/IQ-oTPA/IQ-oTPA_toluene_S0_preOpt
      * Solvation model:               GBSA
        Solvent                        toluene
        Solvent mass                       9.2140E+01 g/mol
          :  Hamiltonian                  GFN2-xTB          :
 * total energy  :  -142.3407705 Eh     change       -0.1635243E-08 Eh
 * total energy  :  -142.3585985 Eh     change       -0.1782793E-01 Eh
 * total energy  :  -142.3653442 Eh     change       -0.6745735E-02 Eh
 * total energy  :  -142.3670190 Eh     change       -0.1674764E-02 Eh
 * total energy  :  -142.3677890 Eh     change       -0.7700558E-03 Eh
 * total energy  :  -142.3680548 Eh     change       -0.2657499E-03 Eh
 * total energy  :  -142.3682128 Eh     change       -0.1579743E-03 Eh
 * total energy  :  -142.3683540 Eh     change       -0.1412926E-03 Eh
 * total energy  :  -142.3684987 Eh     change       -0.1446799E-03 Eh
 * total energy  :  -142.3686144 Eh     change       -0.1156871E-03 Eh
 * total energy  :  -142.3732221 Eh     change       -0.3627261E-06 Eh
 * total energy  :  -142.3732224 Eh     change       -0.3779819E-06 Eh
 * total energy  :  -142.3732228 Eh     change       -0.3481931E-06 Eh
 * total energy  :  -142.3732231 Eh     change       -0.2976210E-06 Eh
 * total energy  :  -142.3732234 Eh     change       -0.2649500E-06 Eh
 * total energy  :  -142.3732236 Eh     change       -0.2448666E-06 Eh
 * total energy  :  -142.3732238 Eh     change       -0.2516324E-06 Eh
 * total energy  :  -142.3732241 Eh     change       -0.2632536E-06 Eh
 * total energy  :  -142.3732241 Eh     change       -0.2115627E-08 Eh
   *** GEOMETRY OPTIMIZATION CONVERGED AFTER 185 ITERATIONS ***

 final structure:
================
90
 xtb: 6.7.1 (edcfbbe)
O            8.54562755464497        3.16825861634069        1.07219448810486
C            8.25988557467364        2.07146819130599        0.63860312807026
C            9.18940982953544        1.01006112537274        0.18329913272304
C           10.57151258974849        1.02160068479582        0.14625772666928
C           11.22819925964201       -0.10818202924657       -0.32895164293351
C           10.51512842204866       -1.21922243056249       -0.75442780622042
C            9.12421060517402       -1.23973501717679       -0.72064276973884
C            8.46742586329476       -0.11971407799338       -0.25067497711199
C            7.04548253042035        0.16294238570441       -0.09861038399038
N            6.02778617401561       -0.60068112905142       -0.38522429321781
C            4.80703753375503       -0.05760017649819       -0.13646325598993
C            3.65427718681308       -0.80807638690138       -0.40074820148554
C            2.39616530259753       -0.30014301167184       -0.15594756067335
C            1.22069914455933       -1.15447054569513       -0.37145984222316
C            1.07760414638489       -1.88719385516196       -1.54898926853901
C           -0.01771014252553       -2.69955770091125       -1.74970106547952
C           -1.00039616541673       -2.82175019515855       -0.76440196242087
N           -2.10793599255345       -3.64397183357346       -0.96479529888121
C           -2.65615526240781       -4.36487911449080        0.10514674740655
C           -4.03687809327939       -4.52888641131657        0.21318851381799
C           -4.57206039020582       -5.24831515941471        1.26464218811508
C           -3.74530287973724       -5.80690828515508        2.22620418997917
C           -2.37289909136563       -5.64407818614442        2.12500949026478
C           -1.82775188773509       -4.93446747177526        1.07212948218011
C           -2.68092840704032       -3.74967049166714       -2.24056663257920
C           -3.15742016359472       -4.97586038789127       -2.70277898248834
C           -3.72862727846601       -5.07147932039209       -3.95750239000463
C           -3.82664872661286       -3.95414087318415       -4.77122452501773
C           -3.35195699944447       -2.73399204056524       -4.31727420389388
C           -2.78670756286663       -2.62670740835863       -3.06104187175803
C           -0.84801845063941       -2.10545033280990        0.42560268781481
C            0.24090827530362       -1.28296243486935        0.61327888343256
C            2.25639962800120        1.02588297842877        0.34476494677115
C            0.92710747281652        1.63287268796616        0.51505905624254
C           -0.00443059919910        1.60628054868238       -0.52206859046000
C           -1.24248399384263        2.19320996995432       -0.37532479964458
C           -1.59296197011558        2.81770965697501        0.82366701734504
N           -2.85270263743274        3.39764005262907        0.98315238000601
C           -3.45641425455933        4.07520198651046       -0.08399779105536
C           -4.83398814216348        3.99292660247562       -0.28656170319433
C           -5.42531737376131        4.67282158332106       -1.33414897215646
C           -4.65735192261260        5.43614652210495       -2.19885424106245
C           -3.28759560160650        5.51671848467979       -2.00522042588265
C           -2.68818274013250        4.84758131830953       -0.95540971489817
C           -3.51247982243224        3.30178357621685        2.21610917404510
C           -3.43886863432390        2.12643898560964        2.96367726144095
C           -4.08945173658755        2.03300554246962        4.17900903921016
C           -4.82689755642702        3.10121274671990        4.66415207214586
C           -4.90667923164621        4.26930975050137        3.92299490969572
C           -4.25310204153432        4.37507276621541        2.71002347923741
C           -0.65916178286217        2.85224609120675        1.86097852323404
C            0.58406296746754        2.27721893275175        1.70188900375598
C            3.37964522730954        1.76867660633764        0.62926714256372
C            4.66741722264146        1.25706117169808        0.40575074362480
N            5.74598141615755        2.02685680161198        0.69238070240460
C            6.90444799318955        1.48268311335513        0.44029078117333
H           11.11611447234979        1.89197116465574        0.48007674936935
H           12.30688266400544       -0.11908364186454       -0.36645619327540
H           11.04820738650281       -2.08449552691993       -1.11904845761500
H            8.56566143641906       -2.10157108026303       -1.05042641681705
H            3.78039889495059       -1.81286346073197       -0.77464218777448
H            1.82693063329024       -1.80231749128393       -2.32249386328301
H           -0.11773529996804       -3.25347249403978       -2.67144171597912
H           -4.68429621368308       -4.08671717795897       -0.53001937301126
H           -5.64346768798993       -5.36665020917297        1.33736170517465
H           -4.16728188513865       -6.36581196225290        3.04792236209050
H           -1.71987568238146       -6.08169392617492        2.86614241350341
H           -0.75674524680414       -4.81901458900087        0.98987291716217
H           -3.07505810475859       -5.84975057076992       -2.07296938210677
H           -4.09214193202259       -6.02743010181960       -4.30540563765914
H           -4.27081375042265       -4.03387598853753       -5.75207518993986
H           -3.43025721123541       -1.85616362407644       -4.94222152690004
H           -2.42685157600584       -1.67251924154276       -2.70415308604103
H           -1.59616731395677       -2.19511769867142        1.19927359408361
H            0.34424742923655       -0.74159527270556        1.54142984750262
H            0.25186025584651        1.12850666682447       -1.45579800878327
H           -1.95366084155528        2.16749933158419       -1.18773872842946
H           -5.43453207905841        3.39237359084428        0.38116875297047
H           -6.49332953790088        4.59998135545452       -1.47995731254645
H           -5.12282574807684        5.96479518874163       -3.01715083388593
H           -2.68093181004317        6.11412465068415       -2.67039722048700
H           -1.62153519812075        4.92181657362030       -0.80051044329451
H           -2.87234083083023        1.28945532283898        2.58180865385731
H           -4.02716861795800        1.11605094065551        4.74700389528881
H           -5.33656223984804        3.02359448396232        5.61278247652716
H           -5.47533820786571        5.10891053966446        4.29568737973564
H           -4.31023711264744        5.28966813745793        2.13786840045454
H           -0.91526987775128        3.33945866933151        2.79038679198641
H            1.29650642266540        2.31176059326760        2.51339764809146
H            3.29666202579170        2.77738267577958        1.00501127146137

          :  Hamiltonian                  GFN2-xTB          :
         :: gradient norm              0.000031694079 Eh/a0 ::
         :: HOMO-LUMO gap              0.721826527652 eV    ::
         :: SCC energy              -144.972058835440 Eh    ::
         :: -> dispersion             -0.126631932173 Eh    ::
         :: -> Gsolv                  -0.065299447285 Eh    ::
         :: repulsion energy           2.598834720512 Eh    ::

    * Orbital Energies and Occupations

         #    Occupation            Energy/Eh            Energy/eV
      -------------------------------------------------------------
         1        2.0000           -0.7250779             -19.7304
       ...           ...                  ...                  ...
       120        2.0000           -0.4113920             -11.1945
       121        2.0000           -0.4109450             -11.1824
       122        2.0000           -0.4093801             -11.1398
       123        2.0000           -0.4083438             -11.1116
       124        2.0000           -0.4068759             -11.0717
       125        2.0000           -0.4063998             -11.0587
       126        2.0000           -0.4059107             -11.0454
       127        2.0000           -0.4053200             -11.0293
       128        2.0000           -0.4030713             -10.9681
       129        2.0000           -0.3957597             -10.7692
       130        2.0000           -0.3636399              -9.8951
       131        2.0000           -0.3528847              -9.6025
       132        2.0000           -0.3512673              -9.5585 (HOMO)
       133        0.0000           -0.3247406              -8.8366 (LUMO)
       134                         -0.3065278              -8.3410
       135                         -0.2609623              -7.1011
       136                         -0.2470561              -6.7227
       137                         -0.2390232              -6.5042
       138                         -0.2323092              -6.3215
       139                         -0.2319490              -6.3117
       140                         -0.2311665              -6.2904
       141                         -0.2288576              -6.2275
       142                         -0.2254617              -6.1351
       143                         -0.2236658              -6.0863
       ...                                ...                  ...
       258                          0.7178029              19.5324
      -------------------------------------------------------------
                  HL-Gap            0.0265266 Eh            0.7218 eV

     #   Z          covCN         q      C6AA      α(0)
     1   8 O        0.856    -0.378    21.247     6.180
     2   6 C        2.858     0.220    23.379     7.925
     3   6 C        3.047    -0.029    28.679     8.783
     4   6 C        2.912    -0.011    28.300     8.723
     5   6 C        2.920    -0.021    28.539     8.761
     6   6 C        2.922    -0.016    28.403     8.740
     7   6 C        2.912    -0.020    28.506     8.755
     8   6 C        3.032    -0.002    28.052     8.688
     9   6 C        3.031     0.086    26.060     8.373
    10   7 N        1.839    -0.250    27.358     7.751
    11   6 C        2.986     0.080    26.207     8.397
    12   6 C        2.924    -0.050    29.247     8.869
    13   6 C        2.975     0.017    27.618     8.620
    14   6 C        2.977     0.004    27.918     8.667
    15   6 C        2.923    -0.032    28.809     8.802
    16   6 C        2.920    -0.048    29.183     8.859
    17   6 C        2.923     0.067    26.490     8.440
    18   7 N        2.752    -0.072    22.644     7.067
    19   6 C        2.923     0.064    26.556     8.451
    20   6 C        2.922    -0.047    29.166     8.856
    21   6 C        2.919    -0.030    28.738     8.791
    22   6 C        2.919    -0.038    28.947     8.823
    23   6 C        2.919    -0.030    28.741     8.791
    24   6 C        2.922    -0.047    29.179     8.858
    25   6 C        2.924     0.064    26.556     8.451
    26   6 C        2.922    -0.047    29.158     8.855
    27   6 C        2.919    -0.029    28.737     8.791
    28   6 C        2.919    -0.038    28.941     8.822
    29   6 C        2.919    -0.029    28.737     8.791
    30   6 C        2.922    -0.047    29.167     8.857
    31   6 C        2.920    -0.048    29.181     8.859
    32   6 C        2.923    -0.029    28.735     8.791
    33   6 C        2.975     0.014    27.686     8.631
    34   6 C        2.978     0.004    27.920     8.667
    35   6 C        2.923    -0.030    28.750     8.793
    36   6 C        2.921    -0.047    29.176     8.858
    37   6 C        2.924     0.067    26.503     8.442
    38   7 N        2.752    -0.075    22.703     7.077
    39   6 C        2.923     0.065    26.550     8.450
    40   6 C        2.922    -0.048    29.181     8.859
    41   6 C        2.919    -0.030    28.746     8.792
    42   6 C        2.919    -0.039    28.964     8.825
    43   6 C        2.919    -0.030    28.746     8.792
    44   6 C        2.922    -0.048    29.193     8.860
    45   6 C        2.924     0.065    26.550     8.450
    46   6 C        2.922    -0.048    29.181     8.859
    47   6 C        2.919    -0.030    28.744     8.792
    48   6 C        2.919    -0.038    28.957     8.824
    49   6 C        2.919    -0.030    28.743     8.792
    50   6 C        2.922    -0.047    29.171     8.857
    51   6 C        2.921    -0.047    29.175     8.858
    52   6 C        2.923    -0.033    28.819     8.804
    53   6 C        2.924    -0.047    29.174     8.858
    54   6 C        2.987     0.078    26.252     8.405
    55   7 N        1.839    -0.238    27.072     7.711
    56   6 C        3.031     0.058    26.658     8.469
    57   1 H        0.926     0.058     2.221     2.330
    58   1 H        0.926     0.062     2.173     2.305
    59   1 H        0.926     0.065     2.146     2.291
    60   1 H        0.926     0.065     2.139     2.287
    61   1 H        0.926     0.061     2.187     2.313
    62   1 H        0.926     0.040     2.452     2.448
    63   1 H        0.926     0.039     2.460     2.453
    64   1 H        0.926     0.033     2.540     2.492
    65   1 H        0.926     0.035     2.521     2.483
    66   1 H        0.926     0.033     2.543     2.494
    67   1 H        0.926     0.034     2.525     2.485
    68   1 H        0.926     0.033     2.544     2.494
    69   1 H        0.926     0.033     2.538     2.491
    70   1 H        0.926     0.035     2.518     2.482
    71   1 H        0.926     0.033     2.540     2.492
    72   1 H        0.926     0.035     2.519     2.482
    73   1 H        0.926     0.033     2.540     2.492
    74   1 H        0.926     0.038     2.480     2.463
    75   1 H        0.926     0.036     2.497     2.471
    76   1 H        0.926     0.036     2.503     2.474
    77   1 H        0.926     0.037     2.482     2.464
    78   1 H        0.926     0.033     2.547     2.496
    79   1 H        0.926     0.034     2.528     2.486
    80   1 H        0.926     0.032     2.553     2.498
    81   1 H        0.926     0.033     2.538     2.491
    82   1 H        0.926     0.032     2.565     2.504
    83   1 H        0.926     0.032     2.552     2.498
    84   1 H        0.926     0.034     2.526     2.485
    85   1 H        0.926     0.033     2.548     2.496
    86   1 H        0.926     0.034     2.529     2.487
    87   1 H        0.926     0.033     2.551     2.497
    88   1 H        0.926     0.038     2.478     2.462
    89   1 H        0.926     0.038     2.482     2.463
    90   1 H        0.926     0.058     2.224     2.332

molecular dipole:
                 x           y           z       tot (Debye)
 q only:       -1.832      -2.106      -0.797
   full:       -1.704      -2.080      -0.787       7.122

 projected vibrational frequencies (cm⁻¹)
eigval :       -0.00    -0.00    -0.00    -0.00     0.00     0.00
eigval :        7.73    10.02    11.09    12.54    19.63    23.27
eigval :       33.25    38.24    47.17    51.11    52.75    55.81
eigval :       59.58    64.26    72.78    74.09    79.56    93.80
eigval :      105.03   110.24   116.75   126.99   138.99   152.03
eigval :      154.15   167.75   184.42   206.00   216.60   222.86
eigval :      232.17   234.66   256.94   267.22   290.56   303.61
eigval :      305.30   314.38   325.70   328.15   345.48   346.03
eigval :      352.49   360.70   377.11   377.94   378.80   380.47
eigval :      385.47   386.40   387.58   395.31   413.59   439.39
eigval :      442.97   450.33   460.76   479.18   486.25   491.10
eigval :      491.41   503.48   512.64   519.54   543.40   560.65
eigval :      573.46   581.88   584.52   587.31   588.66   589.85
eigval :      592.59   595.01   597.32   607.61   612.18   626.24
eigval :      637.25   654.44   659.30   659.72   664.75   666.19
eigval :      675.02   688.65   689.69   709.08   713.51   726.38
eigval :      733.37   744.14   746.19   753.49   756.45   757.06
eigval :      760.94   761.78   787.66   816.17   816.97   839.10
eigval :      862.43   869.54   871.46   873.51   874.29   874.55
eigval :      874.75   876.62   881.00   884.43   891.47   892.76
eigval :      893.04   894.44   904.54   909.14   909.37   910.23
eigval :      917.15   918.31   919.33   924.52   926.33   927.33
eigval :      927.54   927.90   928.57   929.17   929.44   929.67
eigval :      929.78   930.61   956.57   982.17   989.48  1003.93
eigval :     1004.13  1011.77  1029.89  1035.90  1061.33  1073.78
eigval :     1081.17  1081.77  1082.12  1082.79  1090.09  1120.18
eigval :     1120.40  1122.47  1122.53  1140.92  1142.31  1151.43
eigval :     1164.08  1178.90  1179.12  1179.39  1180.16  1183.02
eigval :     1183.75  1184.60  1193.26  1193.42  1194.24  1194.77
eigval :     1195.40  1211.88  1213.02  1218.43  1231.32  1256.54
eigval :     1261.79  1263.77  1269.75  1272.26  1276.52  1277.14
eigval :     1279.84  1280.99  1290.35  1306.90  1308.67  1314.42
eigval :     1315.03  1319.06  1321.55  1323.66  1324.28  1325.10
eigval :     1325.58  1348.37  1379.89  1403.94  1408.19  1410.62
eigval :     1422.92  1430.37  1433.79  1434.31  1440.55  1440.86
eigval :     1448.57  1467.40  1468.66  1470.00  1471.83  1472.21
eigval :     1487.25  1494.34  1518.31  1551.10  1553.52  1564.21
eigval :     1575.78  1575.81  1577.50  1579.60  1579.65  1587.55
eigval :     1588.28  1590.53  1590.80  1591.10  1597.10  1598.90
eigval :     1602.56  1710.20  3071.30  3071.68  3072.55  3072.97
eigval :     3073.01  3073.53  3073.97  3074.02  3077.03  3077.34
eigval :     3081.08  3081.90  3082.06  3082.47  3082.79  3083.77
eigval :     3084.56  3085.27  3085.48  3086.22  3086.40  3089.46
eigval :     3090.54  3091.04  3093.23  3093.63  3093.96  3094.33
eigval :     3094.57  3094.78  3095.94  3096.12  3099.53  3106.31

   temp. (K)  partition function   enthalpy   heat capacity  entropy
                                   cal/mol     cal/K/mol   cal/K/mol   J/K/mol
 298.15  VIB  0.781E+22            26423.026    164.351    167.254
         ROT  0.170E+09              888.752      2.981     40.640
         INT  0.133E+31            27311.778    167.332    207.894
         TR   0.186E+29             1481.254      4.968     45.577
         TOT                       28793.0318   172.3002   253.4710  1060.5227

       T/K    H(0)-H(T)+PV         H(T)/Eh          T*S/Eh         G(T)/Eh
   ------------------------------------------------------------------------
    298.15    0.458846E-01    0.731024E+00    0.120432E+00    0.610591E+00
   ------------------------------------------------------------------------

         :::::::::::::::::::::::::::::::::::::::::::::::::::::
         ::                  THERMODYNAMIC                  ::
         :::::::::::::::::::::::::::::::::::::::::::::::::::::
         :: total free energy        -141.762632661318 Eh   ::
         ::.................................................::
         :: total energy             -142.373224113280 Eh   ::
         :: zero point energy           0.685139085501 Eh   ::
         :: G(RRHO) w/o ZPVE           -0.074547633540 Eh   ::
         :: G(RRHO) contrib.            0.610591451962 Eh   ::
         :::::::::::::::::::::::::::::::::::::::::::::::::::::

           -------------------------------------------------
          | TOTAL ENERGY             -142.373224113280 Eh   |
          | TOTAL ENTHALPY           -141.642200410877 Eh   |
          | TOTAL FREE ENERGY        -141.762632661318 Eh   |
          | GRADIENT NORM               0.000031697177 Eh/α |
          | HOMO-LUMO GAP               0.721826538009 eV   |
           -------------------------------------------------

 * finished run on 2025/08/24 at 13:54:35.287
