   * xtb version 6.7.1 (edcfbbe) compiled by 'albert@albert-system' on 2024-07-22

   ID    Z sym.   atoms
    1    6 C      1-4, 6-10, 12-17, 19-23, 25-30, 32-47, 49-56
    2    7 N      5, 11, 18, 24, 31, 48
    3    1 H      57-90

          program call               : xtb data2507/gas/DHPZ-2BI/DHPZ-2BI_gas_T1_crest.xyz --gfn 2 --spinpol --tblite --uhf 2 --ohess vtight --parallel 40 --molden --ceasefiles --namespace data2507/gas/DHPZ-2BI/DHPZ-2BI_gas_T1_finalOpt
 * total energy  :  -141.9649864 Eh     change       -0.4010343E-07 Eh
 * total energy  :  -141.9650013 Eh     change       -0.1488339E-04 Eh
 * total energy  :  -141.9650173 Eh     change       -0.1607146E-04 Eh
 * total energy  :  -141.9650215 Eh     change       -0.4173274E-05 Eh
 * total energy  :  -141.9650267 Eh     change       -0.5187826E-05 Eh
 * total energy  :  -141.9650297 Eh     change       -0.2976444E-05 Eh
 * total energy  :  -141.9650322 Eh     change       -0.2579024E-05 Eh
 * total energy  :  -141.9650346 Eh     change       -0.2393194E-05 Eh
 * total energy  :  -141.9650372 Eh     change       -0.2585837E-05 Eh
 * total energy  :  -141.9650399 Eh     change       -0.2707201E-05 Eh
 * total energy  :  -141.9650631 Eh     change       -0.2845057E-06 Eh
 * total energy  :  -141.9650634 Eh     change       -0.2414985E-06 Eh
 * total energy  :  -141.9650636 Eh     change       -0.1897253E-06 Eh
 * total energy  :  -141.9650637 Eh     change       -0.1607278E-06 Eh
 * total energy  :  -141.9650639 Eh     change       -0.1584722E-06 Eh
 * total energy  :  -141.9650641 Eh     change       -0.1893730E-06 Eh
 * total energy  :  -141.9650643 Eh     change       -0.2256687E-06 Eh
 * total energy  :  -141.9650643 Eh     change        0.3195896E-07 Eh
 * total energy  :  -141.9650643 Eh     change       -0.4586920E-07 Eh
   *** GEOMETRY OPTIMIZATION CONVERGED AFTER 69 ITERATIONS ***

 final structure:
================
90
 xtb: 6.7.1 (edcfbbe)
C            7.08829527377302       -3.60448757054142       -2.41099086066850
C            6.47841561338581       -3.43088694684466       -1.17845821015977
C            6.74676666885643       -2.30888273315795       -0.41938810366896
C            7.62482031752915       -1.33873763634760       -0.90035161871597
N            7.90989612746525       -0.20484064120509       -0.13021408947526
C            7.02064533250565        0.60762529200438        0.56461340526707
C            5.59361984709959        0.59854746121753        0.40376755367383
C            4.94626462066824        0.14232268415936       -0.75845207057147
C            3.57526296868775        0.16558441721577       -0.85027868142042
C            2.80674636508830        0.65463166867303        0.20728162360057
N            1.38938754975903        0.65650664331162        0.11439317720382
C            0.71239872282531       -0.53888744383922        0.09208572116795
C            1.37962114408416       -1.76259177576247        0.21625430261031
C            0.69502273669453       -2.95124338719803        0.13083257123855
C           -0.68887848010151       -2.95209783533288       -0.09574882774776
C           -1.37519302583254       -1.76416987425725       -0.17987980624159
C           -0.70987439632733       -0.53985676619051       -0.05375706607800
N           -1.38797540822802        0.65500820333083       -0.07590208099808
C           -2.80457455761619        0.65266536222252       -0.17984069820726
C           -3.42585555727245        1.15012444613213       -1.33022495969222
C           -4.79338289628020        1.12424076839363       -1.43370052323105
C           -5.58952838258465        0.59542120986674       -0.40051635282150
C           -7.01510520198626        0.60334975373283       -0.57413998827187
N           -7.62648493745508        1.45628357545964       -1.37018534594371
C           -8.95911045329947        1.22754349352619       -1.22662344493293
C          -10.04840688722867        1.84627887761053       -1.83585911667276
C          -11.30871500458980        1.38909417597075       -1.51454880796290
C          -11.50029467602673        0.33586884416240       -0.61932084116751
C          -10.43463321312896       -0.29096807753730        0.00111226254379
C           -9.16730652194802        0.17636293580862       -0.29842500274488
N           -7.90949210598000       -0.21358869190318        0.10868643863953
C           -7.62962715669841       -1.34933104043435        0.87796891406962
C           -8.25436386466056       -1.52985521598139        2.10877335683810
C           -7.99025497493407       -2.66330989961642        2.85528601804204
C           -7.10294228582134       -3.61842520979420        2.38708568999126
C           -6.48069707696589       -3.43935765001240        1.16153683168729
C           -6.74409532335184       -2.31570476375546        0.40316364916352
C           -4.95202793934023        0.13710380145051        0.76625527382154
C           -3.58185161548441        0.16105014413876        0.87007201582146
C           -0.71410036156413        1.85031785921720       -0.00304047182958
C           -1.39299876230695        3.07337059051222        0.03278367107715
C           -0.70270097369582        4.26184777465221        0.04456333414050
C            0.69859381105306        4.26303520642146        0.00816926668007
C            1.39083632697776        3.07549742776689        0.01542214549431
C            0.71399961663069        1.85140063151583        0.04734171638192
C            3.43762847099908        1.14945495887896        1.35358718777596
C            4.80604989395775        1.12416724222790        1.44514307100558
N            7.63817973209456        1.45817869964544        1.35851714859669
C            8.96974269439980        1.23237332912522        1.20125431228209
C           10.06380287625557        1.85032109815176        1.80272394232163
C           11.32175902822816        1.39691394877704        1.46714558118334
C           11.50656917040679        0.34815486510542        0.56527304503091
C           10.43605990594937       -0.27790532515677       -0.04755647248579
C            9.17086102228060        0.18564122108958        0.26647422833307
C            8.23713536130462       -1.51376097640493       -2.13816256251250
C            7.96813581993347       -2.64555968438672       -2.88545614257133
H            6.87912357782691       -4.48519917322477       -2.99910401373985
H            5.79659977398922       -4.17937919147595       -0.80247615898343
H            6.28392187700925       -2.17199132517342        0.54690936000838
H            5.52307607823798       -0.20274836702831       -1.60193765459249
H            3.08162669703891       -0.17995142111053       -1.74713801403542
H            2.44545298720987       -1.76315581399913        0.37948737533153
H            1.22511565061742       -3.88485411060994        0.22908176844954
H           -1.21769692160650       -3.88630780613836       -0.19504819681218
H           -2.44098228573360       -1.76627977204579       -0.34331664530722
H           -2.81756028893142        1.53857449782131       -2.13392569987372
H           -5.29169156124652        1.50092379592679       -2.31208080810526
H           -9.89528016057864        2.65103028601037       -2.53671968413391
H          -12.17359491477778        1.84903908167158       -1.97022841162507
H          -12.50489058843153        0.00096355336116       -0.40677838343989
H          -10.58911194410505       -1.11455239802823        0.68256287471897
H           -8.92970360982658       -0.77270566718432        2.47851427621269
H           -8.47568399329887       -2.79808765053426        3.81059189656323
H           -6.89757531552446       -4.50041424606690        2.97462184874078
H           -5.79300318246438       -4.18487830554649        0.79038423034736
H           -6.27160306135682       -2.17466081374500       -0.55785041766847
H           -5.53598812704011       -0.21023744043746        1.60388384156682
H           -3.09581261461118       -0.18598394710739        1.77048973006098
H           -2.47106742193548        3.07418701438431        0.05007521897145
H           -1.24197862770669        5.19487461931263        0.07191227744032
H            1.23641984886724        5.19698203872453       -0.01575767195902
H            2.46888238071229        3.07830854437738       -0.00226720230409
H            2.83611008160355        1.53534320893723        2.16359597214982
H            5.31170135851042        1.49898271270517        2.32012356771573
H            9.91605722113638        2.65162559427025        2.50867280116686
H           12.19018455337140        1.85638555590704        1.91651698757326
H           12.50966947436262        0.01618029592210        0.34136263922845
H           10.58538191973995       -1.09805478060088       -0.73428229235341
H            8.90663588833705       -0.75370066857084       -2.51252720735128
H            8.44386086441824       -2.77606872011195       -3.84622140855291

 projected vibrational frequencies (cm⁻¹)
eigval :       -0.00    -0.00    -0.00     0.00     0.00     0.00
eigval :        4.75     7.39     9.57    14.73    18.76    27.37
eigval :       37.28    37.92    53.55    55.96    59.19    64.07
eigval :       65.87    67.69    72.60    78.27    83.30    91.44
eigval :      102.41   103.13   115.51   150.12   153.90   165.55
eigval :      183.60   209.61   210.03   212.58   230.08   238.26
eigval :      241.14   242.57   255.12   282.06   287.27   290.10
eigval :      335.40   338.46   352.14   364.09   366.07   372.85
eigval :      378.15   379.54   384.31   384.73   387.59   391.61
eigval :      409.90   411.08   415.79   417.26   426.83   428.51
eigval :      450.24   461.83   466.53   476.10   483.06   495.42
eigval :      501.83   522.68   540.62   541.27   541.99   549.97
eigval :      574.47   575.53   581.05   587.76   591.17   591.91
eigval :      597.05   599.20   608.78   615.30   624.83   632.35
eigval :      639.13   643.98   648.83   649.64   665.48   667.78
eigval :      672.95   682.01   684.52   704.39   705.41   710.79
eigval :      716.86   734.86   751.52   757.52   761.14   761.25
eigval :      768.68   768.68   803.59   807.54   846.63   850.23
eigval :      852.30   856.65   858.47   860.42   860.60   862.78
eigval :      876.25   876.30   879.10   881.61   884.56   890.25
eigval :      890.53   891.98   892.16   896.18   896.95   898.91
eigval :      899.35   900.55   907.50   907.82   909.66   917.27
eigval :      917.29   917.36   917.38   918.79   927.65   927.67
eigval :      930.79   930.80   948.07   948.98   994.65   995.18
eigval :     1013.56  1016.13  1060.91  1061.09  1073.21  1076.00
eigval :     1079.16  1079.23  1111.54  1112.05  1120.42  1120.80
eigval :     1127.59  1130.82  1130.98  1132.32  1133.85  1133.97
eigval :     1156.68  1171.08  1173.08  1173.48  1173.56  1180.65
eigval :     1180.66  1182.55  1188.48  1189.26  1198.03  1206.61
eigval :     1208.18  1209.67  1211.45  1246.28  1255.73  1257.99
eigval :     1259.27  1260.31  1276.55  1276.95  1281.85  1292.13
eigval :     1302.68  1304.35  1307.36  1312.85  1315.51  1318.53
eigval :     1318.79  1323.89  1328.88  1333.25  1354.65  1357.83
eigval :     1358.16  1370.61  1370.99  1372.39  1382.02  1387.62
eigval :     1393.58  1397.19  1408.15  1419.45  1419.84  1421.81
eigval :     1435.61  1435.69  1438.26  1441.24  1454.72  1456.84
eigval :     1467.45  1468.09  1469.74  1473.93  1477.54  1477.57
eigval :     1485.72  1488.26  1490.00  1511.63  1546.00  1571.53
eigval :     1571.63  1579.87  1582.62  1584.18  1589.24  1591.94
eigval :     1600.87  1600.95  3071.72  3071.75  3076.36  3076.38
eigval :     3077.32  3077.34  3077.87  3077.92  3080.15  3080.16
eigval :     3081.25  3081.47  3088.37  3088.39  3088.86  3088.98
eigval :     3092.64  3092.66  3098.48  3098.59  3098.62  3100.54
eigval :     3103.93  3104.14  3104.35  3105.82  3105.96  3106.03
eigval :     3111.62  3113.21  3115.92  3116.58  3116.75  3117.50

   temp. (K)  partition function   enthalpy   heat capacity  entropy
                                   cal/mol     cal/K/mol   cal/K/mol   J/K/mol
 298.15  VIB  0.277E+22            25941.361    164.331    164.100
         ROT  0.156E+09              888.752      2.981     40.475
         INT  0.433E+30            26830.113    167.312    204.574
         TR   0.186E+29             1481.254      4.968     45.577
         TOT                       28311.3673   172.2799   250.1511  1046.6322

       T/K    H(0)-H(T)+PV         H(T)/Eh          T*S/Eh         G(T)/Eh
   ------------------------------------------------------------------------
    298.15    0.451170E-01    0.729906E+00    0.118855E+00    0.611051E+00
   ------------------------------------------------------------------------

         :::::::::::::::::::::::::::::::::::::::::::::::::::::
         ::                  THERMODYNAMIC                  ::
         :::::::::::::::::::::::::::::::::::::::::::::::::::::
         :: total free energy        -141.354013394297 Eh   ::
         ::.................................................::
         :: total energy             -141.965064267739 Eh   ::
         :: zero point energy           0.684788702807 Eh   ::
         :: G(RRHO) w/o ZPVE           -0.073737829365 Eh   ::
         :: G(RRHO) contrib.            0.611050873442 Eh   ::
         :::::::::::::::::::::::::::::::::::::::::::::::::::::

           -------------------------------------------------
          | TOTAL ENERGY             -141.965064267739 Eh   |
          | TOTAL ENTHALPY           -141.235158529354 Eh   |
          | TOTAL FREE ENERGY        -141.354013394297 Eh   |
          | GRADIENT NORM               0.000133386680 Eh/α |
           -------------------------------------------------

 * finished run on 2025/09/04 at 23:36:29.490
