   * xtb version 6.7.1 (edcfbbe) compiled by 'albert@albert-system' on 2024-07-22

   ID    Z sym.   atoms
    1    6 C      1-4, 6-10, 12-17, 19-23, 25-30, 32-47, 49-56
    2    7 N      5, 11, 18, 24, 31, 48
    3    1 H      57-90

          program call               : xtb data2507/gas/DHPZ-2BI/DHPZ-2BI_gas_S0_finalOpt.xtbopt.xyz --gfn 2 --spinpol --tblite --uhf 2 --ohess vtight --parallel 40 --molden --ceasefiles --namespace data2507/gas/DHPZ-2BI/DHPZ-2BI_gas_T1_preOpt
 * total energy  :  -141.9587348 Eh     change       -0.2008846E-09 Eh
 * total energy  :  -141.9627660 Eh     change       -0.4031205E-02 Eh
 * total energy  :  -141.9638008 Eh     change       -0.1034875E-02 Eh
 * total energy  :  -141.9639192 Eh     change       -0.1183590E-03 Eh
 * total energy  :  -141.9640513 Eh     change       -0.1320750E-03 Eh
 * total energy  :  -141.9641187 Eh     change       -0.6742790E-04 Eh
 * total energy  :  -141.9641941 Eh     change       -0.7543629E-04 Eh
 * total energy  :  -141.9642758 Eh     change       -0.8170189E-04 Eh
 * total energy  :  -141.9643338 Eh     change       -0.5798929E-04 Eh
 * total energy  :  -141.9643804 Eh     change       -0.4662990E-04 Eh
 * total energy  :  -141.9649828 Eh     change       -0.2097177E-05 Eh
 * total energy  :  -141.9649846 Eh     change       -0.1777532E-05 Eh
 * total energy  :  -141.9649862 Eh     change       -0.1608059E-05 Eh
 * total energy  :  -141.9649877 Eh     change       -0.1513740E-05 Eh
 * total energy  :  -141.9649892 Eh     change       -0.1544361E-05 Eh
 * total energy  :  -141.9649908 Eh     change       -0.1578999E-05 Eh
 * total energy  :  -141.9649923 Eh     change       -0.1481249E-05 Eh
 * total energy  :  -141.9649936 Eh     change       -0.1310544E-05 Eh
 * total energy  :  -141.9649936 Eh     change       -0.3141272E-07 Eh
   *** GEOMETRY OPTIMIZATION CONVERGED AFTER 68 ITERATIONS ***

 final structure:
================
90
 xtb: 6.7.1 (edcfbbe)
C            7.02809715751234       -3.76830908348085       -2.15148030446961
C            6.40603048851286       -3.49845445317086       -0.94259959035105
C            6.69238512571540       -2.33549230225219       -0.25523560415506
C            7.60106458668280       -1.42081881834426       -0.78564012095518
N            7.90207317881512       -0.24513813098178       -0.08786376867638
C            7.02013007899553        0.62333195260835        0.54590165042477
C            5.59489056651494        0.62345394820583        0.36859947593795
C            4.95857157931299        0.12284550884592       -0.78136923381947
C            3.58913825002675        0.15083280423482       -0.89110196318164
C            2.81084262956602        0.68624711950592        0.13687680839693
N            1.39488355419519        0.68533712909406        0.03160762142082
C            0.71767987331040       -0.51074847726464        0.03252582260407
C            1.38340897249331       -1.73208040401293        0.18279702088432
C            0.69904182079058       -2.92226539698915        0.11506406662573
C           -0.68334107233062       -2.92676461594947       -0.11983867910014
C           -1.36909894394445       -1.74047635598998       -0.22477815135263
C           -0.70458357222013       -0.51377158580948       -0.11369062586458
N           -1.38453658842902        0.68009349248022       -0.14722068439062
C           -2.80198600600104        0.67384861663966       -0.22835389445862
C           -3.44559299582043        1.17877584338381       -1.36338061975788
C           -4.81477039811673        1.14924412213890       -1.44303565410297
C           -5.59030858222997        0.60594286250911       -0.40208699521976
C           -7.01921940917492        0.60828962256501       -0.54671983605378
N           -7.65525360173221        1.47887603374318       -1.30289901866641
C           -8.98250090961881        1.23552375817125       -1.13382344429546
C          -10.09055348757590        1.86426838947209       -1.69721033408776
C          -11.33957230960005        1.38887317226322       -1.35865558659087
C          -11.50204046403343        0.30787859602371       -0.49124682069039
C          -10.41726975332191       -0.32958635023186        0.08358896152866
C           -9.16077026197061        0.15578885170067       -0.23238142850115
N           -7.89063076088679       -0.23566138763068        0.13302067701227
C           -7.58022904878704       -1.39406262925326        0.85511276874069
C           -8.17745238907923       -1.62873152249976        2.09043681008854
C           -7.88301677715030       -2.78507421864810        2.78897131559193
C           -6.99209697625119       -3.70934878415043        2.26867297439904
C           -6.39653928457125       -3.47595898297481        1.03902897546615
C           -6.69052851644728       -2.32913502463184        0.32816355476644
C           -4.93084626622600        0.13733574789195        0.74837349344247
C           -3.55958482360228        0.16811522730232        0.82976942285310
C           -0.70999685267746        1.87688521881084       -0.09971096023161
C           -1.38737829997901        3.10081488282928       -0.07531341500559
C           -0.69646598560028        4.28910124992079       -0.09496192282945
C            0.70403695520961        4.28854683907916       -0.15249762317425
C            1.39552526314922        3.10103084755468       -0.12888343768573
C            0.71852542281480        1.87803076736924       -0.06193530185929
C            3.43190939747154        1.22720045060216        1.26783783193566
C            4.79910262365998        1.19966743394218        1.37608829571999
N            7.64345564085477        1.51067011424042        1.29308920244892
C            8.97268519083535        1.25368570765475        1.16461300956403
C           10.07083116429382        1.88987538008482        1.73891072125157
C           11.32431247745217        1.39604639827792        1.44634777035653
C           11.50046347607958        0.29024500674447        0.61356956073730
C           10.42581664923517       -0.35507413711800        0.02856273527788
C            9.16549297256529        0.14785728787132        0.29849408177935
C            8.22550211227418       -1.69247968520554       -1.99971885231231
C            7.93842379152264       -2.86469632337991       -2.67447684949436
H            6.80482239400834       -4.68077624800820       -2.68329444080133
H            5.70049988714131       -4.20352546488075       -0.52834240949607
H            6.22062085553239       -2.12425879488552        0.69318884002999
H            5.54384203383645       -0.26115453931519       -1.60201182563392
H            3.10423258868098       -0.22782646789401       -1.77929316824047
H            2.44836827265951       -1.73098859376647        0.35126160157752
H            1.22860315765802       -3.85392350165486        0.23257426491601
H           -1.21163052143668       -3.86239208048814       -0.20813231599438
H           -2.43410410291536       -1.74553603019907       -0.39303307392447
H           -2.85324078212480        1.57546823244051       -2.17492694871287
H           -5.32933644483283        1.53275358239977       -2.30904019084610
H           -9.96004847326014        2.69069660180565       -2.37709656833625
H          -12.21845199826345        1.85625296359120       -1.77856380551028
H          -12.49884999475405       -0.04039497220919       -0.26403670411670
H          -10.54977563556752       -1.17441389200181        0.74326399641800
H           -8.85533652019118       -0.89556438510401        2.50148126479155
H           -8.34765426443789       -2.96211286514448        3.74771281505614
H           -6.76326902432815       -4.60950581237104        2.81878830219904
H           -5.70607475472975       -4.19713726410551        0.62712931528703
H           -6.23960247607939       -2.14644969477911       -0.63619241415721
H           -5.49946848939386       -0.22263939527694        1.59131217039386
H           -3.05689156600074       -0.18457395005516        1.71877430851146
H           -2.46503421953985        3.10355866537776       -0.04237345335271
H           -1.23504370910489        5.22274441510005       -0.07679556584949
H            1.24188991776752        5.22137374517847       -0.20426610063106
H            2.47325956275865        3.10248926770963       -0.16070345817690
H            2.82355663896590        1.64946844579924        2.05425582513682
H            5.29656315093626        1.60925996964627        2.24013187372724
H            9.92944999386000        2.73579109279714        2.39213614277710
H           12.19576363239789        1.86839799412730        1.87606829950300
H           12.49998780156172       -0.07152573124240        0.42219417368879
H           10.56846338580164       -1.21889384903872       -0.60384810165187
H            8.91869093472931       -0.97540001856654       -2.41362005821459
H            8.42401691827329       -3.07036716405711       -3.61697986305349

 projected vibrational frequencies (cm⁻¹)
eigval :       -0.00    -0.00    -0.00     0.00     0.00     0.00
eigval :        4.70     6.93     9.67    14.76    19.21    27.79
eigval :       38.15    38.80    54.07    56.43    60.13    65.63
eigval :       66.30    67.44    73.15    78.83    84.88    92.28
eigval :      102.39   103.52   117.44   151.04   153.85   166.34
eigval :      184.99   209.54   210.16   212.61   230.07   237.89
eigval :      241.30   242.54   255.52   282.76   288.89   291.02
eigval :      335.44   337.91   352.06   364.29   365.91   372.81
eigval :      378.50   379.81   384.87   385.36   387.80   391.82
eigval :      409.94   410.33   416.60   418.07   426.95   428.97
eigval :      450.49   462.29   466.87   476.31   483.10   494.79
eigval :      502.16   522.88   540.52   541.29   541.98   549.81
eigval :      574.41   575.55   581.00   587.96   591.09   591.92
eigval :      596.96   599.33   608.93   615.22   624.93   632.73
eigval :      639.72   644.22   648.98   649.76   665.47   667.63
eigval :      673.00   681.79   684.86   704.59   705.50   711.01
eigval :      717.17   735.73   751.44   757.81   761.08   761.33
eigval :      768.66   768.67   804.07   807.99   845.39   850.18
eigval :      852.39   856.97   859.17   860.39   860.55   863.00
eigval :      876.24   876.30   879.99   881.62   884.59   889.91
eigval :      890.49   891.90   892.29   896.43   897.07   898.90
eigval :      899.21   900.73   908.51   908.75   910.57   917.24
eigval :      917.27   917.59   917.76   918.79   927.56   927.64
eigval :      930.67   930.71   947.62   949.26   994.47   994.62
eigval :     1014.19  1016.19  1060.88  1061.30  1076.19  1079.13
eigval :     1079.22  1081.94  1111.86  1112.75  1120.34  1121.17
eigval :     1127.86  1131.00  1131.08  1132.32  1134.00  1134.16
eigval :     1154.95  1169.46  1173.26  1173.48  1173.54  1180.57
eigval :     1180.60  1182.60  1188.47  1189.28  1198.28  1206.31
eigval :     1208.19  1208.46  1211.92  1246.46  1254.79  1257.93
eigval :     1259.07  1260.16  1275.97  1277.11  1280.97  1291.12
eigval :     1302.35  1303.96  1307.01  1312.93  1314.59  1318.72
eigval :     1318.95  1323.54  1328.95  1333.35  1355.23  1357.39
eigval :     1358.03  1370.22  1370.86  1371.83  1381.70  1385.35
eigval :     1388.16  1397.01  1407.40  1419.80  1420.22  1423.03
eigval :     1435.81  1435.98  1438.85  1441.16  1455.94  1456.04
eigval :     1466.67  1468.22  1469.47  1474.86  1477.63  1477.80
eigval :     1485.80  1487.97  1489.00  1511.69  1545.44  1571.64
eigval :     1571.73  1579.73  1582.72  1584.26  1589.42  1592.04
eigval :     1601.12  1601.14  3071.99  3072.02  3076.65  3076.69
eigval :     3077.24  3077.26  3078.00  3078.08  3080.22  3080.23
eigval :     3081.23  3081.50  3088.56  3088.63  3088.80  3089.20
eigval :     3092.87  3092.91  3098.54  3098.88  3098.90  3100.76
eigval :     3102.30  3102.93  3104.41  3105.99  3106.05  3106.29
eigval :     3112.18  3113.54  3115.28  3115.67  3116.48  3117.15

   temp. (K)  partition function   enthalpy   heat capacity  entropy
                                   cal/mol     cal/K/mol   cal/K/mol   J/K/mol
 298.15  VIB  0.241E+22            25916.349    164.404    163.909
         ROT  0.156E+09              888.752      2.981     40.468
         INT  0.375E+30            26805.101    167.385    204.377
         TR   0.186E+29             1481.254      4.968     45.577
         TOT                       28286.3554   172.3531   249.9536  1045.8059

       T/K    H(0)-H(T)+PV         H(T)/Eh          T*S/Eh         G(T)/Eh
   ------------------------------------------------------------------------
    298.15    0.450772E-01    0.729924E+00    0.118761E+00    0.611163E+00
   ------------------------------------------------------------------------

         :::::::::::::::::::::::::::::::::::::::::::::::::::::
         ::                  THERMODYNAMIC                  ::
         :::::::::::::::::::::::::::::::::::::::::::::::::::::
         :: total free energy        -141.353831003389 Eh   ::
         ::.................................................::
         :: total energy             -141.964993649878 Eh   ::
         :: zero point energy           0.684846499716 Eh   ::
         :: G(RRHO) w/o ZPVE           -0.073683853228 Eh   ::
         :: G(RRHO) contrib.            0.611162646489 Eh   ::
         :::::::::::::::::::::::::::::::::::::::::::::::::::::

           -------------------------------------------------
          | TOTAL ENERGY             -141.964993649878 Eh   |
          | TOTAL ENTHALPY           -141.235069973573 Eh   |
          | TOTAL FREE ENERGY        -141.353831003389 Eh   |
          | GRADIENT NORM               0.000086990244 Eh/α |
           -------------------------------------------------

 * finished run on 2025/09/04 at 23:25:53.050
