   * xtb version 6.7.1 (edcfbbe) compiled by 'albert@albert-system' on 2024-07-22

   ID    Z sym.   atoms
    1    6 C      1-4, 6-10, 12-17, 19-23, 25-30, 32-47, 49-56
    2    7 N      5, 11, 18, 24, 31, 48
    3    1 H      57-90

          program call               : xtb data2507/gas/DHPZ-2BI/DHPZ-2BI.xyz --gfn 2 --ohess vtight --parallel 40 --molden --ceasefiles --namespace data2507/gas/DHPZ-2BI/DHPZ-2BI_gas_S0_preOpt
          :  Hamiltonian                  GFN2-xTB          :
 * total energy  :  -142.0084018 Eh     change       -0.2717996E-08 Eh
 * total energy  :  -142.0266751 Eh     change       -0.1827328E-01 Eh
 * total energy  :  -142.0326706 Eh     change       -0.5995521E-02 Eh
 * total energy  :  -142.0343253 Eh     change       -0.1654682E-02 Eh
 * total energy  :  -142.0357877 Eh     change       -0.1462374E-02 Eh
 * total energy  :  -142.0366613 Eh     change       -0.8736551E-03 Eh
 * total energy  :  -142.0373429 Eh     change       -0.6815353E-03 Eh
 * total energy  :  -142.0378402 Eh     change       -0.4973127E-03 Eh
 * total energy  :  -142.0382767 Eh     change       -0.4364910E-03 Eh
 * total energy  :  -142.0387522 Eh     change       -0.4755323E-03 Eh
 * total energy  :  -142.0406001 Eh     change       -0.3575899E-06 Eh
 * total energy  :  -142.0406006 Eh     change       -0.4592953E-06 Eh
 * total energy  :  -142.0406013 Eh     change       -0.6569324E-06 Eh
 * total energy  :  -142.0406022 Eh     change       -0.9850846E-06 Eh
 * total energy  :  -142.0406033 Eh     change       -0.1042517E-05 Eh
 * total energy  :  -142.0406044 Eh     change       -0.1159303E-05 Eh
 * total energy  :  -142.0406055 Eh     change       -0.1014418E-05 Eh
 * total energy  :  -142.0406064 Eh     change       -0.9763389E-06 Eh
 * total energy  :  -142.0406064 Eh     change       -0.5756533E-08 Eh
   *** GEOMETRY OPTIMIZATION CONVERGED AFTER 122 ITERATIONS ***

 final structure:
================
90
 xtb: 6.7.1 (edcfbbe)
C            6.60239526969855       -3.74368580436492       -1.79517398447414
C            6.02993444240571       -3.33145275770591       -0.60262301802436
C            6.43490384287240       -2.15272379171431       -0.00593950088950
C            7.41108825556585       -1.36969134337553       -0.61536900320518
N            7.82312407146339       -0.16852541331269       -0.01732037099177
C            7.02776093097061        0.83817465498211        0.49578645914075
C            5.58186533247267        0.87767233094763        0.34787839555997
C            4.94234440957681        0.41532328780072       -0.80195241240803
C            3.56666375576189        0.45525492454221       -0.89603294946925
C            2.80344788745526        0.95681154097156        0.15473213241524
N            1.39388719001935        0.95913119475529        0.06807416145960
C            0.70331429588085       -0.25273657949678        0.04653290246777
C            1.37335243713906       -1.46444963193903        0.13710924771234
C            0.68674793181972       -2.66936490674899        0.07512470828520
C           -0.68106916641375       -2.66988790417431       -0.08507195135633
C           -1.36932786074306       -1.46561573183682       -0.14107378300314
C           -0.70097016841569       -0.25344445273833       -0.04443561288353
N           -1.39309797310993        0.95764018864979       -0.06005176089002
C           -2.80253962151430        0.95444061000060       -0.14801913877492
C           -3.43942877834820        1.45830155326036       -1.27957402238492
C           -4.81483530384386        1.42582998195923       -1.37174879958839
C           -5.58090628623501        0.87706755375713       -0.34333208931820
C           -7.02686761811716        0.84055031392434       -0.49138490682465
N           -7.71270532372009        1.77790981239402       -1.08578918429774
C           -9.02574068172482        1.40983943070615       -0.98849734900783
C          -10.17418947668840        2.04115303890101       -1.45387502675211
C          -11.38301131649895        1.41990993471763       -1.22452067450031
C          -11.46303291204510        0.19479303980596       -0.55879255713015
C          -10.33666081313402       -0.44883994468552       -0.08663121003176
C           -9.11970391432542        0.17957631379315       -0.29524314823964
N           -7.82358199794685       -0.16857915573627        0.01474912372549
C           -7.41275004468089       -1.37454664554105        0.60387962074699
C           -7.98739857374800       -1.79503236119344        1.79830352285506
C           -7.58340280346919       -2.98702136199416        2.37225887372892
C           -6.60547821275768       -3.75752178974052        1.76635910221928
C           -6.03418402351505       -3.33796140278860        0.57580694090879
C           -6.43841226849402       -2.15464137645542       -0.01222696130319
C           -4.94207925267614        0.40650634187644        0.80354403489202
C           -3.56644813003621        0.44565448705477        0.89876214193813
C           -0.70310603672053        2.17057724323268       -0.01136284072355
C           -1.38024844327534        3.38062133286191        0.02672027634643
C           -0.69042538245053        4.58508904086201        0.03357911956848
C            0.68669356889568        4.58608018979734       -0.00521019343675
C            1.37803363637028        3.38246522196674       -0.00498956131126
C            0.70238337617448        2.17139136489356        0.02618718026949
C            3.44104437775178        1.45349255148790        1.28903417485877
C            4.81651049175495        1.42007805180215        1.38020179954579
N            7.71479962346228        1.76994892449450        1.09754212818395
C            9.02727052901861        1.40033826570917        0.99849582317744
C           10.17644868242256        2.02605185616398        1.46961231608365
C           11.38434163400398        1.40430606318591        1.23675485578227
C           11.46273650086946        0.18405632465408        0.56195709933706
C           10.33562287791139       -0.45396381355885        0.08399576264745
C            9.11961696924946        0.17510040474695        0.29620080634070
C            7.98675225201685       -1.78273452611493       -1.81190382642052
C            7.58210933825317       -2.97031361784910       -2.39447960927909
H            6.28570537738631       -4.66691230782940       -2.25609705323080
H            5.26885657050353       -3.93431308044971       -0.13046063093051
H            6.00047665310620       -1.83067949349745        0.92892630715757
H            5.52009676118862        0.04284457995924       -1.63454313430279
H            3.07100927925466        0.09681353101201       -1.78608482814687
H            2.44529048511700       -1.47304075817016        0.25766453918917
H            1.23433921751918       -3.59656111073288        0.14522222194640
H           -1.22740022822635       -3.59746907722517       -0.15974675254710
H           -2.44123887227386       -1.47510421376410       -0.26179524662430
H           -2.84562395626802        1.86741503228463       -2.08346918421419
H           -5.32057835280400        1.81069571760339       -2.24318728633962
H          -10.10558980766210        2.98047633425808       -1.97825955478414
H          -12.29430964196980        1.88363992666002       -1.57225338504836
H          -12.43110209328531       -0.26074654961634       -0.41164888251098
H          -10.40248204203047       -1.40243231781575        0.41597545185919
H           -8.73464398621281       -1.17918942080784        2.27646953231918
H           -8.03048884906447       -3.31054834994594        3.30041171547157
H           -6.28925290551679       -4.68420695318050        2.22061177537530
H           -5.27458075817307       -3.93859826622520        0.09846197884711
H           -6.00481580255497       -1.82671789142445       -0.94543500767966
H           -5.52036209609282        0.02842324173072        1.63323786696886
H           -3.07144308928296        0.08133342042790        1.78678742012486
H           -2.45853520138756        3.38761626900802        0.05265733502035
H           -1.24238773167595        5.51167637562564        0.06043325310663
H            1.23745181237007        5.51351710234041       -0.02695744214731
H            2.45631811164329        3.39088033618019       -0.03075895452875
H            2.84777981578687        1.85734910337065        2.09598036069167
H            5.32286649355798        1.79895662378412        2.25390645068954
H           10.10908847838363        2.96154532490769        2.00095670720734
H           12.29616895047110        1.86375081051970        1.58876154095993
H           12.43009704156428       -0.27216884942969        0.41229810316487
H           10.40017881987001       -1.40394653164968       -0.42555868229650
H            8.73537018110537       -1.16457885858632       -2.28490736382819
H            8.03015083902991       -3.28812475708197       -3.32414643422447

          :  Hamiltonian                  GFN2-xTB          :
         :: gradient norm              0.000052511409 Eh/a0 ::
         :: HOMO-LUMO gap              1.626684575209 eV    ::
         :: SCC energy              -144.645502774777 Eh    ::
         :: -> dispersion             -0.131767313176 Eh    ::
         :: repulsion energy           2.604896338241 Eh    ::

    * Orbital Energies and Occupations

         #    Occupation            Energy/Eh            Energy/eV
      -------------------------------------------------------------
         1        2.0000           -0.6870353             -18.6952
       ...           ...                  ...                  ...
       120        2.0000           -0.4148230             -11.2879
       121        2.0000           -0.4130626             -11.2400
       122        2.0000           -0.4124372             -11.2230
       123        2.0000           -0.4060063             -11.0480
       124        2.0000           -0.4025670             -10.9544
       125        2.0000           -0.3823984             -10.4056
       126        2.0000           -0.3815320             -10.3820
       127        2.0000           -0.3807996             -10.3621
       128        2.0000           -0.3803237             -10.3491
       129        2.0000           -0.3768601             -10.2549
       130        2.0000           -0.3766908             -10.2503
       131        2.0000           -0.3731554             -10.1541
       132        2.0000           -0.3246441              -8.8340 (HOMO)
       133                         -0.2648646              -7.2073 (LUMO)
       134                         -0.2640286              -7.1846
       135                         -0.2417938              -6.5795
       136                         -0.2417623              -6.5787
       137                         -0.2411773              -6.5628
       138                         -0.2411346              -6.5616
       139                         -0.2339665              -6.3666
       140                         -0.2339076              -6.3649
       141                         -0.2288765              -6.2280
       142                         -0.2209412              -6.0121
       143                         -0.2201056              -5.9894
       ...                                ...                  ...
       258                          0.7031840              19.1346
      -------------------------------------------------------------
                  HL-Gap            0.0597796 Eh            1.6267 eV

     #   Z          covCN         q      C6AA      α(0)
     1   6 C        2.919    -0.031    28.778     8.797
     2   6 C        2.920    -0.026    28.652     8.778
     3   6 C        2.922    -0.039    28.982     8.828
     4   6 C        2.913     0.066    26.514     8.444
     5   7 N        2.825    -0.051    22.230     7.003
     6   6 C        3.182     0.135    24.659     8.105
     7   6 C        2.975     0.001    28.004     8.680
     8   6 C        2.922    -0.032    28.800     8.801
     9   6 C        2.921    -0.040    28.993     8.830
    10   6 C        2.924     0.069    26.467     8.437
    11   7 N        2.752    -0.075    22.701     7.076
    12   6 C        2.926     0.049    26.907     8.507
    13   6 C        2.924    -0.062    29.534     8.912
    14   6 C        2.918    -0.042    29.041     8.837
    15   6 C        2.918    -0.042    29.041     8.837
    16   6 C        2.924    -0.062    29.534     8.912
    17   6 C        2.926     0.049    26.907     8.507
    18   7 N        2.752    -0.075    22.701     7.076
    19   6 C        2.924     0.069    26.467     8.437
    20   6 C        2.920    -0.039    28.964     8.825
    21   6 C        2.926    -0.027    28.683     8.783
    22   6 C        2.975     0.001    28.004     8.680
    23   6 C        3.182     0.135    24.659     8.105
    24   7 N        1.886    -0.290    28.374     7.897
    25   6 C        3.193     0.067    26.020     8.319
    26   6 C        2.910    -0.042    29.032     8.835
    27   6 C        2.923    -0.039    28.969     8.826
    28   6 C        2.927    -0.037    28.911     8.818
    29   6 C        2.908    -0.051    29.260     8.870
    30   6 C        3.087     0.034    27.135     8.539
    31   7 N        2.825    -0.051    22.230     7.003
    32   6 C        2.913     0.066    26.514     8.444
    33   6 C        2.922    -0.041    29.019     8.834
    34   6 C        2.920    -0.027    28.683     8.783
    35   6 C        2.919    -0.031    28.778     8.797
    36   6 C        2.920    -0.026    28.652     8.778
    37   6 C        2.922    -0.039    28.982     8.828
    38   6 C        2.922    -0.032    28.800     8.801
    39   6 C        2.921    -0.040    28.993     8.830
    40   6 C        2.926     0.048    26.922     8.509
    41   6 C        2.924    -0.060    29.504     8.908
    42   6 C        2.918    -0.041    29.008     8.832
    43   6 C        2.918    -0.041    29.008     8.832
    44   6 C        2.924    -0.060    29.504     8.908
    45   6 C        2.925     0.048    26.921     8.509
    46   6 C        2.920    -0.039    28.963     8.825
    47   6 C        2.926    -0.027    28.683     8.783
    48   7 N        1.886    -0.290    28.374     7.897
    49   6 C        3.193     0.067    26.021     8.319
    50   6 C        2.910    -0.042    29.032     8.835
    51   6 C        2.923    -0.039    28.968     8.826
    52   6 C        2.927    -0.037    28.910     8.818
    53   6 C        2.908    -0.051    29.260     8.870
    54   6 C        3.087     0.034    27.135     8.539
    55   6 C        2.922    -0.041    29.019     8.834
    56   6 C        2.920    -0.027    28.683     8.783
    57   1 H        0.926     0.039     2.467     2.456
    58   1 H        0.926     0.039     2.459     2.452
    59   1 H        0.926     0.037     2.493     2.469
    60   1 H        0.926     0.034     2.530     2.487
    61   1 H        0.926     0.042     2.418     2.432
    62   1 H        0.926     0.026     2.644     2.543
    63   1 H        0.926     0.026     2.645     2.543
    64   1 H        0.926     0.026     2.644     2.543
    65   1 H        0.926     0.026     2.644     2.543
    66   1 H        0.926     0.046     2.369     2.407
    67   1 H        0.926     0.058     2.217     2.328
    68   1 H        0.926     0.044     2.391     2.418
    69   1 H        0.926     0.032     2.557     2.501
    70   1 H        0.926     0.031     2.573     2.509
    71   1 H        0.926     0.026     2.638     2.540
    72   1 H        0.926     0.043     2.411     2.428
    73   1 H        0.926     0.039     2.459     2.452
    74   1 H        0.926     0.039     2.467     2.456
    75   1 H        0.926     0.039     2.459     2.452
    76   1 H        0.926     0.037     2.493     2.469
    77   1 H        0.926     0.034     2.530     2.487
    78   1 H        0.926     0.042     2.418     2.432
    79   1 H        0.926     0.030     2.580     2.512
    80   1 H        0.926     0.030     2.584     2.514
    81   1 H        0.926     0.030     2.584     2.514
    82   1 H        0.926     0.030     2.580     2.512
    83   1 H        0.926     0.046     2.369     2.407
    84   1 H        0.926     0.059     2.216     2.328
    85   1 H        0.926     0.044     2.391     2.418
    86   1 H        0.926     0.032     2.557     2.501
    87   1 H        0.926     0.031     2.573     2.509
    88   1 H        0.926     0.026     2.638     2.540
    89   1 H        0.926     0.043     2.411     2.428
    90   1 H        0.926     0.039     2.459     2.452

molecular dipole:
                 x           y           z       tot (Debye)
 q only:        0.001      -1.489      -0.006
   full:        0.000      -2.222      -0.008       5.647

 projected vibrational frequencies (cm⁻¹)
eigval :       -0.00    -0.00    -0.00     0.00     0.00     0.00
eigval :        5.26     6.98     9.98    12.88    18.84    25.14
eigval :       35.02    36.09    53.38    54.02    58.23    60.65
eigval :       64.90    67.37    69.84    78.85    84.64    90.97
eigval :      100.28   101.94   124.60   155.06   155.63   170.53
eigval :      183.75   209.79   210.46   213.85   229.00   235.89
eigval :      241.20   246.84   255.14   283.50   290.48   293.20
eigval :      334.79   337.11   350.30   363.00   367.14   376.29
eigval :      377.78   382.84   383.58   384.62   387.79   393.64
eigval :      398.99   414.22   414.32   428.33   435.47   435.73
eigval :      453.90   456.84   483.40   483.56   497.60   507.43
eigval :      515.91   519.15   544.30   547.01   547.37   551.25
eigval :      576.71   577.38   589.19   591.91   592.79   597.19
eigval :      599.78   602.53   611.62   616.32   627.33   657.15
eigval :      657.44   658.41   659.56   662.73   668.09   670.17
eigval :      694.25   698.92   703.79   710.60   711.53   715.54
eigval :      720.24   743.81   764.03   764.08   769.67   773.23
eigval :      774.98   774.99   818.83   822.87   854.54   859.55
eigval :      861.15   864.60   868.39   868.45   873.40   874.96
eigval :      878.79   878.98   883.85   884.82   888.07   889.89
eigval :      893.02   898.73   898.78   903.90   903.98   908.30
eigval :      911.74   920.03   920.13   922.25   922.26   922.59
eigval :      922.64   929.53   929.62   930.89   931.08   932.70
eigval :      932.71   944.58   955.57   956.42  1005.25  1009.64
eigval :     1028.26  1029.86  1060.61  1060.63  1080.31  1080.32
eigval :     1112.29  1114.79  1116.76  1116.92  1123.46  1126.52
eigval :     1130.65  1130.77  1133.72  1134.38  1134.42  1136.43
eigval :     1174.70  1174.82  1180.69  1180.76  1181.73  1183.59
eigval :     1184.40  1185.40  1189.53  1190.17  1196.03  1207.55
eigval :     1207.57  1221.14  1238.45  1257.92  1261.07  1261.63
eigval :     1263.43  1265.30  1274.27  1276.51  1276.68  1292.42
eigval :     1293.63  1300.84  1312.03  1312.39  1315.50  1316.81
eigval :     1317.91  1317.95  1324.23  1334.14  1362.63  1362.84
eigval :     1363.14  1366.22  1376.94  1377.93  1404.27  1406.41
eigval :     1415.43  1415.86  1426.15  1436.45  1436.50  1438.72
eigval :     1469.12  1471.09  1479.26  1479.34  1489.08  1489.10
eigval :     1497.65  1513.18  1535.82  1535.95  1557.04  1558.52
eigval :     1559.02  1578.42  1583.17  1583.21  1584.00  1588.28
eigval :     1589.26  1593.27  1593.35  1595.97  1596.05  1597.40
eigval :     1616.84  1616.87  3075.16  3075.18  3081.12  3081.12
eigval :     3081.76  3081.77  3083.03  3083.09  3083.78  3084.25
eigval :     3084.27  3088.01  3089.25  3089.31  3090.72  3090.74
eigval :     3092.24  3092.39  3092.49  3094.58  3094.61  3095.84
eigval :     3095.86  3096.02  3101.31  3101.35  3102.81  3105.36
eigval :     3106.64  3109.14  3109.19  3109.36  3109.52  3109.57

   temp. (K)  partition function   enthalpy   heat capacity  entropy
                                   cal/mol     cal/K/mol   cal/K/mol   J/K/mol
 298.15  VIB  0.312E+22            25743.326    162.362    163.111
         ROT  0.762E+08              888.752      2.981     39.048
         INT  0.238E+30            26632.079    165.343    202.158
         TR   0.186E+29             1481.254      4.968     45.577
         TOT                       28113.3327   170.3108   247.7351  1036.5238

       T/K    H(0)-H(T)+PV         H(T)/Eh          T*S/Eh         G(T)/Eh
   ------------------------------------------------------------------------
    298.15    0.448014E-01    0.734504E+00    0.117707E+00    0.616797E+00
   ------------------------------------------------------------------------

         :::::::::::::::::::::::::::::::::::::::::::::::::::::
         ::                  THERMODYNAMIC                  ::
         :::::::::::::::::::::::::::::::::::::::::::::::::::::
         :: total free energy        -141.423809889598 Eh   ::
         ::.................................................::
         :: total energy             -142.040606436530 Eh   ::
         :: zero point energy           0.689702059092 Eh   ::
         :: G(RRHO) w/o ZPVE           -0.072905512159 Eh   ::
         :: G(RRHO) contrib.            0.616796546933 Eh   ::
         :::::::::::::::::::::::::::::::::::::::::::::::::::::

           -------------------------------------------------
          | TOTAL ENERGY             -142.040606436530 Eh   |
          | TOTAL ENTHALPY           -141.306102930097 Eh   |
          | TOTAL FREE ENERGY        -141.423809889598 Eh   |
          | GRADIENT NORM               0.000052517270 Eh/α |
          | HOMO-LUMO GAP               1.626685622760 eV   |
           -------------------------------------------------

 * finished run on 2025/09/04 at 23:19:42.265
