   * xtb version 6.7.1 (edcfbbe) compiled by 'albert@albert-system' on 2024-07-22

   ID    Z sym.   atoms
    1    6 C      1-4, 6-10, 12-17, 19-23, 25-30, 32-47, 49-56
    2    7 N      5, 11, 18, 24, 31, 48
    3    1 H      57-90

          program call               : xtb data2507/gas/DHPZ-2BI/DHPZ-2BI_gas_S0_crest.xyz --gfn 2 --ohess vtight --parallel 40 --molden --ceasefiles --namespace data2507/gas/DHPZ-2BI/DHPZ-2BI_gas_S0_finalOpt
          :  Hamiltonian                  GFN2-xTB          :
 * total energy  :  -142.0405346 Eh     change       -0.2645066E-08 Eh
 * total energy  :  -142.0405357 Eh     change       -0.1138617E-05 Eh
 * total energy  :  -142.0405374 Eh     change       -0.1742698E-05 Eh
 * total energy  :  -142.0405391 Eh     change       -0.1664515E-05 Eh
 * total energy  :  -142.0405406 Eh     change       -0.1494063E-05 Eh
 * total energy  :  -142.0405423 Eh     change       -0.1706527E-05 Eh
 * total energy  :  -142.0405442 Eh     change       -0.1903592E-05 Eh
 * total energy  :  -142.0405461 Eh     change       -0.1911314E-05 Eh
 * total energy  :  -142.0405477 Eh     change       -0.1586687E-05 Eh
 * total energy  :  -142.0405491 Eh     change       -0.1366821E-05 Eh
 * total energy  :  -142.0405795 Eh     change       -0.2992926E-06 Eh
 * total energy  :  -142.0405798 Eh     change       -0.3228571E-06 Eh
 * total energy  :  -142.0405803 Eh     change       -0.4459316E-06 Eh
 * total energy  :  -142.0405807 Eh     change       -0.4164817E-06 Eh
 * total energy  :  -142.0405811 Eh     change       -0.3708911E-06 Eh
 * total energy  :  -142.0405814 Eh     change       -0.3125085E-06 Eh
 * total energy  :  -142.0405817 Eh     change       -0.2915583E-06 Eh
 * total energy  :  -142.0405820 Eh     change       -0.3181941E-06 Eh
 * total energy  :  -142.0405820 Eh     change       -0.2902311E-08 Eh
   *** GEOMETRY OPTIMIZATION CONVERGED AFTER 44 ITERATIONS ***

 final structure:
================
90
 xtb: 6.7.1 (edcfbbe)
C            6.59663004779445       -3.89704963756926       -1.75354013914400
C            5.99660612552836       -3.45285029147633       -0.58630638041122
C            6.40060083817103       -2.26733608565860       -0.00262194520141
C            7.40401632941922       -1.50972308735238       -0.59993741278876
N            7.81262920325116       -0.30071900305100       -0.01565899525012
C            7.01137964407663        0.72233589936710        0.45405192240788
C            5.57063888881191        0.76569901132579        0.26266125543569
C            4.96587720465637        0.29670426577490       -0.90303720826282
C            3.59346763176189        0.33443876938780       -1.03814780495884
C            2.79914335159818        0.83806164954445       -0.01166305416557
N            1.39258101544233        0.83467827133253       -0.13341143643276
C            0.70375564147613       -0.37800760089917       -0.16926846485160
C            1.37352825370472       -1.59175970503793       -0.10716853697502
C            0.68532759284146       -2.79493725281863       -0.18358169887591
C           -0.68402594660816       -2.79237979093055       -0.33051595911446
C           -1.37173123651240       -1.58695897632282       -0.35744345440133
C           -0.70144473925989       -0.37716192927786       -0.24448383948568
N           -1.39594342822550        0.83266247377474       -0.22820263173262
C           -2.80784650200151        0.82283793005152       -0.23924463257322
C           -3.51168728435886        1.33943726602388       -1.32430132334815
C           -4.89038725687802        1.30379179717794       -1.33517589491596
C           -5.59237289570425        0.73742230750908       -0.27162095603495
C           -7.04479057694214        0.69756794040873       -0.32940658422039
N           -7.77274248177930        1.64756455323074       -0.84832259363136
C           -9.07478138173449        1.26831565490349       -0.67377892956925
C          -10.25463194853919        1.90638952745975       -1.04079939493733
C          -11.44268536638483        1.27181272506741       -0.74800232927780
C          -11.47248388045766        0.02722934440247       -0.11513145151128
C          -10.31407848430238       -0.62367960624514        0.25953594692608
C           -9.11656196983730        0.01752667090872       -0.01275766772878
N           -7.80098811483053       -0.33135263488487        0.19860486734566
C           -7.34229964062907       -1.55142592206922        0.71917658138834
C           -7.83187911831523       -2.01725309336113        1.93445015122549
C           -7.37835738897899       -3.22205979671727        2.44070582485659
C           -6.43496940449093       -3.96044491845645        1.74650837014084
C           -5.94861662572332       -3.49582608074464        0.53516704893527
C           -6.40328306189147       -2.29935439859999        0.01458507023293
C           -4.88555733000021        0.24984163136189        0.82737379595049
C           -3.50722273550133        0.29352782875616        0.84213022413300
C           -0.70677319137742        2.04638936974967       -0.19005978582123
C           -1.38168726101004        3.25749787822930       -0.14411608653936
C           -0.69040132053451        4.46109394378797       -0.14929282463050
C            0.68598811384825        4.46087586853137       -0.20938239308202
C            1.37560565991835        3.25645693750579       -0.21674285673765
C            0.69904121661394        2.04625899571781       -0.17161883745675
C            3.40307530773105        1.34371619976673        1.13725220713655
C            4.77519499925192        1.31428439829030        1.26847275219161
N            7.68793363272500        1.66023698644698        1.05762037176375
C            8.99966916317701        1.27809157528484        1.00458896287479
C           10.13959004645785        1.90366809698596        1.49764327864499
C           11.34850118942486        1.26773870058826        1.31322754588953
C           11.43642466631962        0.03399159900011        0.66473554870310
C           10.31857448410647       -0.60422372197235        0.16565181369968
C            9.10224042179494        0.03846561263421        0.32935299055613
C            8.00773091958466       -1.95514275568450       -1.77069124023146
C            7.60347320026066       -3.14921682685280       -2.34015430858857
H            6.28034874911875       -4.82531092133172       -2.20451533651009
H            5.21454384417565       -4.03583177323113       -0.12352567708039
H            5.94453291386176       -1.92062522860135        0.91291549071569
H            5.56874105214456       -0.07991167379282       -1.71580074380240
H            3.12509829443140       -0.02705567000243       -1.94161736259346
H            2.44632846245982       -1.60436016163341        0.00442713127299
H            1.23312777985778       -3.72341696953341       -0.13529294697727
H           -1.23149977648260       -3.71827379994458       -0.41663923596789
H           -2.44504390279899       -1.59291956029636       -0.46584234234723
H           -2.96789305956373        1.76047745441884       -2.15688923408253
H           -5.44754668820089        1.69994092077378       -2.16945471125064
H          -10.22551542108304        2.86121887210333       -1.54025963677831
H          -12.37731554110104        1.74051486419429       -1.01856268422952
H          -12.42654552108788       -0.43781441555980        0.08441993461864
H          -10.34190212307879       -1.59196782288374        0.73692513799744
H           -8.55163524305176       -1.42640250860483        2.48135282853883
H           -7.75927796501839       -3.58085165347957        3.38526216590326
H           -6.07958634965154       -4.89717233376458        2.14815698070140
H           -5.21633228564905       -4.07121946334861       -0.01099800938523
H           -6.03634658612681       -1.93642116935672       -0.93412031282074
H           -5.41303640481546       -0.14439777605109        1.68300290016168
H           -2.95926820013577       -0.08374742942073        1.69288150968599
H           -2.45925316843030        3.26683100296097       -0.09995736194059
H           -1.24102618003212        5.38823311921417       -0.11498875690627
H            1.23727335658275        5.38767574049684       -0.24131320732405
H            2.45350345453321        3.26295190771434       -0.25705185048747
H            2.78579302549046        1.75163362084610        1.92390961944890
H            5.25516393469399        1.69957380493769        2.15419127149698
H           10.06441517962464        2.84987726540311        2.00857549658850
H           12.25331388400099        1.72658844511963        1.68362415115776
H           12.40385159982666       -0.43281103729328        0.55294075676407
H           10.39008767523650       -1.56443738772672       -0.32337248005521
H            8.77781620639045       -1.35684882865224       -2.23466801091666
H            8.07313234173114       -3.49213958796957       -3.25000693976233

          :  Hamiltonian                  GFN2-xTB          :
         :: gradient norm              0.000041056102 Eh/a0 ::
         :: HOMO-LUMO gap              1.640259427169 eV    ::
         :: SCC energy              -144.645649359719 Eh    ::
         :: -> dispersion             -0.131898927918 Eh    ::
         :: repulsion energy           2.605067352610 Eh    ::

    * Orbital Energies and Occupations

         #    Occupation            Energy/Eh            Energy/eV
      -------------------------------------------------------------
         1        2.0000           -0.6870626             -18.6959
       ...           ...                  ...                  ...
       120        2.0000           -0.4148135             -11.2877
       121        2.0000           -0.4129729             -11.2376
       122        2.0000           -0.4124289             -11.2228
       123        2.0000           -0.4062161             -11.0537
       124        2.0000           -0.4027164             -10.9585
       125        2.0000           -0.3824732             -10.4076
       126        2.0000           -0.3815089             -10.3814
       127        2.0000           -0.3808182             -10.3626
       128        2.0000           -0.3803866             -10.3508
       129        2.0000           -0.3768756             -10.2553
       130        2.0000           -0.3767000             -10.2505
       131        2.0000           -0.3732716             -10.1572
       132        2.0000           -0.3249106              -8.8413 (HOMO)
       133                         -0.2646322              -7.2010 (LUMO)
       134                         -0.2637702              -7.1776
       135                         -0.2417934              -6.5795
       136                         -0.2417589              -6.5786
       137                         -0.2411927              -6.5632
       138                         -0.2411453              -6.5619
       139                         -0.2340260              -6.3682
       140                         -0.2338978              -6.3647
       141                         -0.2291017              -6.2342
       142                         -0.2211372              -6.0174
       143                         -0.2202957              -5.9946
       ...                                ...                  ...
       258                          0.7032740              19.1371
      -------------------------------------------------------------
                  HL-Gap            0.0602785 Eh            1.6403 eV

     #   Z          covCN         q      C6AA      α(0)
     1   6 C        2.919    -0.031    28.778     8.797
     2   6 C        2.920    -0.026    28.652     8.778
     3   6 C        2.922    -0.040    28.984     8.829
     4   6 C        2.913     0.066    26.514     8.444
     5   7 N        2.825    -0.051    22.231     7.003
     6   6 C        3.183     0.135    24.653     8.104
     7   6 C        2.975     0.001    28.006     8.681
     8   6 C        2.922    -0.032    28.799     8.800
     9   6 C        2.921    -0.040    28.999     8.831
    10   6 C        2.924     0.068    26.470     8.437
    11   7 N        2.752    -0.075    22.697     7.076
    12   6 C        2.925     0.049    26.906     8.506
    13   6 C        2.924    -0.062    29.539     8.913
    14   6 C        2.918    -0.042    29.039     8.837
    15   6 C        2.918    -0.042    29.041     8.837
    16   6 C        2.924    -0.061    29.525     8.911
    17   6 C        2.926     0.049    26.909     8.507
    18   7 N        2.752    -0.075    22.696     7.076
    19   6 C        2.924     0.068    26.469     8.437
    20   6 C        2.920    -0.039    28.969     8.826
    21   6 C        2.926    -0.027    28.684     8.783
    22   6 C        2.975     0.001    28.004     8.680
    23   6 C        3.183     0.135    24.653     8.104
    24   7 N        1.886    -0.290    28.372     7.896
    25   6 C        3.193     0.067    26.017     8.317
    26   6 C        2.910    -0.042    29.032     8.835
    27   6 C        2.923    -0.039    28.969     8.826
    28   6 C        2.927    -0.037    28.911     8.818
    29   6 C        2.908    -0.051    29.260     8.870
    30   6 C        3.087     0.034    27.136     8.539
    31   7 N        2.825    -0.051    22.229     7.003
    32   6 C        2.913     0.066    26.514     8.444
    33   6 C        2.922    -0.041    29.020     8.834
    34   6 C        2.920    -0.027    28.683     8.783
    35   6 C        2.919    -0.031    28.778     8.797
    36   6 C        2.920    -0.026    28.651     8.778
    37   6 C        2.922    -0.040    28.983     8.829
    38   6 C        2.922    -0.032    28.796     8.800
    39   6 C        2.921    -0.040    28.991     8.830
    40   6 C        2.925     0.048    26.919     8.509
    41   6 C        2.924    -0.061    29.511     8.909
    42   6 C        2.918    -0.040    29.005     8.832
    43   6 C        2.918    -0.041    29.008     8.832
    44   6 C        2.924    -0.060    29.495     8.906
    45   6 C        2.926     0.048    26.925     8.509
    46   6 C        2.920    -0.039    28.965     8.826
    47   6 C        2.926    -0.027    28.683     8.783
    48   7 N        1.886    -0.290    28.374     7.897
    49   6 C        3.193     0.067    26.017     8.318
    50   6 C        2.910    -0.042    29.032     8.835
    51   6 C        2.923    -0.039    28.969     8.826
    52   6 C        2.927    -0.037    28.911     8.818
    53   6 C        2.908    -0.051    29.260     8.870
    54   6 C        3.087     0.034    27.136     8.539
    55   6 C        2.922    -0.041    29.019     8.834
    56   6 C        2.920    -0.027    28.683     8.783
    57   1 H        0.926     0.039     2.468     2.457
    58   1 H        0.926     0.039     2.461     2.453
    59   1 H        0.926     0.037     2.494     2.470
    60   1 H        0.926     0.034     2.531     2.488
    61   1 H        0.926     0.043     2.414     2.429
    62   1 H        0.926     0.027     2.636     2.539
    63   1 H        0.926     0.026     2.644     2.543
    64   1 H        0.926     0.026     2.643     2.542
    65   1 H        0.926     0.026     2.646     2.544
    66   1 H        0.926     0.047     2.364     2.404
    67   1 H        0.926     0.058     2.222     2.331
    68   1 H        0.926     0.044     2.391     2.418
    69   1 H        0.926     0.032     2.557     2.501
    70   1 H        0.926     0.031     2.573     2.509
    71   1 H        0.926     0.026     2.638     2.540
    72   1 H        0.926     0.043     2.411     2.428
    73   1 H        0.926     0.039     2.459     2.452
    74   1 H        0.926     0.039     2.468     2.457
    75   1 H        0.926     0.039     2.460     2.453
    76   1 H        0.926     0.037     2.494     2.470
    77   1 H        0.926     0.034     2.530     2.487
    78   1 H        0.926     0.042     2.424     2.435
    79   1 H        0.926     0.031     2.572     2.508
    80   1 H        0.926     0.030     2.582     2.513
    81   1 H        0.926     0.030     2.583     2.513
    82   1 H        0.926     0.030     2.581     2.512
    83   1 H        0.926     0.046     2.374     2.410
    84   1 H        0.926     0.058     2.221     2.331
    85   1 H        0.926     0.044     2.391     2.418
    86   1 H        0.926     0.032     2.557     2.501
    87   1 H        0.926     0.031     2.574     2.509
    88   1 H        0.926     0.026     2.638     2.540
    89   1 H        0.926     0.043     2.411     2.428
    90   1 H        0.926     0.039     2.459     2.452

molecular dipole:
                 x           y           z       tot (Debye)
 q only:        0.024      -1.503      -0.035
   full:        0.042      -2.247      -0.019       5.712

 projected vibrational frequencies (cm⁻¹)
eigval :       -0.00    -0.00    -0.00    -0.00     0.00     0.00
eigval :        5.19     6.83    10.05    12.80    19.04    25.32
eigval :       35.31    36.26    53.64    54.18    59.14    60.93
eigval :       64.86    67.60    70.39    78.90    84.89    90.86
eigval :       99.91   102.53   125.81   154.72   156.39   170.79
eigval :      184.40   209.62   210.40   213.73   228.71   235.71
eigval :      241.05   246.98   255.40   283.71   291.33   294.18
eigval :      334.33   337.02   350.18   363.25   367.19   376.44
eigval :      378.00   382.88   383.66   384.44   387.78   393.75
eigval :      398.61   414.05   414.66   428.76   435.46   435.82
eigval :      454.19   457.53   483.62   483.70   497.52   507.40
eigval :      515.70   519.34   544.34   546.99   547.37   551.21
eigval :      576.71   577.36   589.17   591.78   592.85   597.31
eigval :      599.82   602.68   611.62   616.24   627.23   656.66
eigval :      657.97   658.86   659.66   663.18   668.07   670.14
eigval :      694.19   698.92   703.71   710.59   711.47   715.57
eigval :      720.30   743.82   763.98   764.13   769.90   773.39
eigval :      774.97   774.99   818.92   822.97   854.98   859.81
eigval :      861.06   864.49   868.38   868.44   873.58   875.25
eigval :      878.74   878.96   883.92   884.91   888.46   889.97
eigval :      893.38   898.71   898.78   903.82   903.91   908.40
eigval :      911.81   920.11   920.21   922.26   922.27   922.71
eigval :      922.80   929.58   929.67   931.08   931.38   932.62
eigval :      932.64   944.51   955.57   956.42  1005.24  1009.61
eigval :     1028.28  1029.89  1060.59  1060.62  1080.31  1080.37
eigval :     1112.48  1114.92  1116.87  1117.02  1123.50  1126.55
eigval :     1130.75  1130.94  1133.94  1134.32  1134.35  1136.57
eigval :     1174.69  1174.82  1180.71  1180.78  1181.74  1183.64
eigval :     1184.41  1185.55  1189.58  1190.20  1196.09  1207.43
eigval :     1207.47  1221.22  1238.45  1257.84  1261.00  1261.54
eigval :     1263.44  1265.29  1274.37  1276.53  1276.72  1292.20
eigval :     1293.32  1300.79  1311.90  1312.44  1315.63  1316.86
eigval :     1317.94  1318.10  1324.15  1334.12  1362.58  1362.79
eigval :     1362.83  1365.94  1376.90  1377.88  1404.35  1406.60
eigval :     1415.46  1415.90  1426.17  1436.51  1436.55  1438.68
eigval :     1469.29  1471.25  1479.26  1479.34  1489.17  1489.18
eigval :     1497.34  1513.01  1536.84  1537.27  1557.13  1558.50
eigval :     1559.05  1578.32  1583.23  1583.28  1584.01  1588.38
eigval :     1589.33  1593.47  1593.50  1596.05  1596.14  1597.29
eigval :     1617.09  1617.12  3075.22  3075.27  3081.15  3081.18
eigval :     3081.75  3081.79  3083.00  3083.08  3083.79  3084.06
eigval :     3084.12  3088.16  3089.04  3089.46  3090.78  3090.79
eigval :     3092.25  3092.43  3092.52  3094.59  3094.62  3095.64
eigval :     3095.71  3096.21  3101.36  3101.39  3102.80  3105.61
eigval :     3106.72  3108.79  3108.99  3109.49  3109.54  3109.74

   temp. (K)  partition function   enthalpy   heat capacity  entropy
                                   cal/mol     cal/K/mol   cal/K/mol   J/K/mol
 298.15  VIB  0.298E+22            25733.551    162.389    163.047
         ROT  0.152E+09              888.752      2.981     40.420
         INT  0.453E+30            26622.303    165.370    203.466
         TR   0.186E+29             1481.254      4.968     45.577
         TOT                       28103.5569   170.3382   249.0432  1041.9969

       T/K    H(0)-H(T)+PV         H(T)/Eh          T*S/Eh         G(T)/Eh
   ------------------------------------------------------------------------
    298.15    0.447859E-01    0.734527E+00    0.118328E+00    0.616199E+00
   ------------------------------------------------------------------------

         :::::::::::::::::::::::::::::::::::::::::::::::::::::
         ::                  THERMODYNAMIC                  ::
         :::::::::::::::::::::::::::::::::::::::::::::::::::::
         :: total free energy        -141.424383135431 Eh   ::
         ::.................................................::
         :: total energy             -142.040582007108 Eh   ::
         :: zero point energy           0.689741480152 Eh   ::
         :: G(RRHO) w/o ZPVE           -0.073542608476 Eh   ::
         :: G(RRHO) contrib.            0.616198871677 Eh   ::
         :::::::::::::::::::::::::::::::::::::::::::::::::::::

           -------------------------------------------------
          | TOTAL ENERGY             -142.040582007108 Eh   |
          | TOTAL ENTHALPY           -141.306054658305 Eh   |
          | TOTAL FREE ENERGY        -141.424383135431 Eh   |
          | GRADIENT NORM               0.000041059719 Eh/α |
          | HOMO-LUMO GAP               1.640260161062 eV   |
           -------------------------------------------------

 * finished run on 2025/09/04 at 23:25:32.264
