   * xtb version 6.7.1 (edcfbbe) compiled by 'albert@albert-system' on 2024-07-22

   ID    Z sym.   atoms
    1    6 C      1-4, 6, 8-13, 15-24
    2    7 N      5, 7
    3    8 O      14, 25, 26
    4    1 H      27-40

          program call               : xtb data2507/toluene/PXZ-PPO/PXZ-PPO_toluene_T1_crest.xyz --gfn 2 --uhf 2 --gbsa toluene --ohess vtight --parallel 40 --molden --ceasefiles --namespace data2507/toluene/PXZ-PPO/PXZ-PPO_toluene_T1_finalOpt
      * Solvation model:               GBSA
        Solvent                        toluene
        Solvent mass                       9.2140E+01 g/mol
          :  Hamiltonian                  GFN2-xTB          :
 * total energy  :   -70.1483592 Eh     change       -0.2716732E-08 Eh
 * total energy  :   -70.1485820 Eh     change       -0.2228637E-03 Eh
 * total energy  :   -70.1486534 Eh     change       -0.7132113E-04 Eh
 * total energy  :   -70.1486616 Eh     change       -0.8235169E-05 Eh
 * total energy  :   -70.1486686 Eh     change       -0.6961704E-05 Eh
 * total energy  :   -70.1486716 Eh     change       -0.3024677E-05 Eh
 * total energy  :   -70.1486750 Eh     change       -0.3449810E-05 Eh
 * total energy  :   -70.1486771 Eh     change       -0.2052265E-05 Eh
 * total energy  :   -70.1486798 Eh     change       -0.2673002E-05 Eh
 * total energy  :   -70.1486834 Eh     change       -0.3598663E-05 Eh
 * total energy  :   -70.1487018 Eh     change       -0.5584185E-05 Eh
 * total energy  :   -70.1487069 Eh     change       -0.5121509E-05 Eh
 * total energy  :   -70.1487111 Eh     change       -0.4241612E-05 Eh
 * total energy  :   -70.1487134 Eh     change       -0.2218787E-05 Eh
 * total energy  :   -70.1487144 Eh     change       -0.9979217E-06 Eh
 * total energy  :   -70.1487149 Eh     change       -0.5506848E-06 Eh
 * total energy  :   -70.1487153 Eh     change       -0.3508062E-06 Eh
 * total energy  :   -70.1487155 Eh     change       -0.2136854E-06 Eh
 * total energy  :   -70.1487155 Eh     change       -0.1579122E-07 Eh
   *** GEOMETRY OPTIMIZATION CONVERGED AFTER 22 ITERATIONS ***

 final structure:
================
40
 xtb: 6.7.1 (edcfbbe)
C            5.61535896829935       -1.40105559777124        1.77352727946144
C            4.54467061862763       -0.72864130901048        0.97721392471339
C            3.22588514926982       -0.93506353578479        1.15528284168193
C            2.27535337900495       -0.23770915600139        0.33532810995779
N            0.99258014768970       -0.41252466392822        0.53140765818766
C            0.09919428503028        0.27120009474014       -0.22420756825521
N           -1.26981571096299        0.03590958021964       -0.00972845783878
C           -2.11676666914737        1.09148279950092        0.26203084253540
C           -1.64219275039171        2.37356148425923        0.57585162937997
C           -2.52162254419130        3.40709602127736        0.80689955647049
C           -3.89864185076616        3.20086657695123        0.73243751479995
C           -4.39258163100968        1.93866504735606        0.45799052137888
C           -3.51736789649729        0.88514298149878        0.23744911139082
O           -4.05030374579310       -0.34273993925329        0.01341112600048
C           -3.20757237666538       -1.39398517077134       -0.14239256017072
C           -3.77702744832050       -2.65177092718463       -0.30536153259793
C           -2.96659469023028       -3.75696706711189       -0.48041074562062
C           -1.58382297375648       -3.60863120396411       -0.50486994858200
C           -1.00682200302376       -2.36344766498072       -0.35711896492056
C           -1.80455731483436       -1.23305807049756       -0.16000062603103
C            0.50925024557459        1.16747616819201       -1.23047852407624
C            1.84294616495788        1.36715300988786       -1.44855194701004
C            2.79896414162369        0.66019544112742       -0.64719776124533
C            4.18828240035988        0.84722267591592       -0.79974487932479
O            4.75095480254049        1.58002885782068       -1.62160565102088
O            5.04027014935986        0.11618658161074        0.04863585011468
H            6.26247426906197       -1.97114706846154        1.10865078857155
H            6.23189912304547       -0.64945877685508        2.26404047217881
H            5.17928977999113       -2.06048972979648        2.51599264243472
H            2.86292466408066       -1.60795785859963        1.91238433430743
H           -0.57825688923028        2.53383464818330        0.64491087702342
H           -2.13647018081956        4.38480557025267        1.04985096525337
H           -4.57949967575281        4.01870790330540        0.90348903063320
H           -5.45169809929018        1.74124689335947        0.41907137801123
H           -4.85197286831913       -2.73147236515603       -0.29548763670276
H           -3.41017185905577       -4.73157824705289       -0.60634533219067
H           -0.95089336298705       -4.46992990329488       -0.64822808563201
H            0.06391058259017       -2.25098735924992       -0.37585333160896
H           -0.23955473168304        1.64933261469945       -1.84157715008378
H            2.20803862522069        2.03947163096835       -2.20817854727326

          :  Hamiltonian                  GFN2-xTB          :
         :: gradient norm              0.000069510792 Eh/a0 ::
         :: HOMO-LUMO gap              0.200517648041 eV    ::
         :: SCC energy               -71.215244871582 Eh    ::
         :: -> dispersion             -0.049706154549 Eh    ::
         :: -> Gsolv                  -0.045507927057 Eh    ::
         :: repulsion energy           1.066529384659 Eh    ::

    * Orbital Energies and Occupations

         #    Occupation            Energy/Eh            Energy/eV
      -------------------------------------------------------------
         1        2.0000           -0.7697498             -20.9460
       ...           ...                  ...                  ...
        52        2.0000           -0.4567473             -12.4287
        53        2.0000           -0.4559569             -12.4072
        54        2.0000           -0.4458360             -12.1318
        55        2.0000           -0.4423696             -12.0375
        56        2.0000           -0.4409812             -11.9997
        57        2.0000           -0.4377543             -11.9119
        58        2.0000           -0.4240065             -11.5378
        59        2.0000           -0.4171701             -11.3518
        60        2.0000           -0.3974978             -10.8165
        61        2.0000           -0.3870129             -10.5312
        62        1.9989           -0.3820960             -10.3974
        63        1.0011           -0.3691625             -10.0454
        64        0.9797           -0.2770281              -7.5383 (HOMO)
        65        0.0203           -0.2696588              -7.3378 (LUMO)
        66        0.0000           -0.2588647              -7.0441
        67                         -0.2540811              -6.9139
        68                         -0.2403784              -6.5410
        69                         -0.2244400              -6.1073
        70                         -0.1938047              -5.2737
        71                         -0.1774068              -4.8275
        72                         -0.1307182              -3.5570
        73                         -0.1034878              -2.8160
        74                         -0.0773500              -2.1048
        75                         -0.0269399              -0.7331
       ...                                ...                  ...
       118                          0.6843753              18.6228
      -------------------------------------------------------------
                  HL-Gap            0.0073693 Eh            0.2005 eV

     #   Z          covCN         q      C6AA      α(0)
     1   6 C        3.756    -0.125    22.961     6.832
     2   6 C        2.843     0.156    24.612     8.130
     3   6 C        2.908    -0.097    30.450     9.048
     4   6 C        2.952     0.104    25.704     8.316
     5   7 N        1.843    -0.259    27.594     7.785
     6   6 C        2.895     0.087    26.052     8.369
     7   7 N        2.752     0.006    21.158     6.832
     8   6 C        2.929     0.042    27.048     8.529
     9   6 C        2.918    -0.044    29.082     8.843
    10   6 C        2.916    -0.025    28.627     8.774
    11   6 C        2.918    -0.025    28.630     8.774
    12   6 C        2.914    -0.048    29.203     8.861
    13   6 C        2.887     0.134    25.065     8.208
    14   8 O        1.710    -0.195    17.259     5.609
    15   6 C        2.888     0.136    25.024     8.201
    16   6 C        2.915    -0.049    29.229     8.865
    17   6 C        2.918    -0.021    28.525     8.758
    18   6 C        2.917    -0.025    28.631     8.774
    19   6 C        2.919    -0.042    29.045     8.838
    20   6 C        2.927     0.050    26.880     8.502
    21   6 C        2.908    -0.048    29.181     8.858
    22   6 C        2.918    -0.042    29.054     8.839
    23   6 C        2.968    -0.068    29.691     8.938
    24   6 C        2.712     0.298    21.933     7.666
    25   8 O        0.857    -0.534    24.550     6.643
    26   8 O        1.706    -0.284    18.709     5.840
    27   1 H        0.925     0.078     2.005     2.214
    28   1 H        0.925     0.077     2.007     2.216
    29   1 H        0.925     0.074     2.038     2.232
    30   1 H        0.926     0.066     2.131     2.283
    31   1 H        0.926     0.057     2.232     2.336
    32   1 H        0.926     0.064     2.147     2.292
    33   1 H        0.926     0.069     2.095     2.264
    34   1 H        0.926     0.076     2.021     2.223
    35   1 H        0.926     0.077     2.012     2.218
    36   1 H        0.926     0.072     2.068     2.249
    37   1 H        0.926     0.067     2.122     2.278
    38   1 H        0.926     0.069     2.093     2.262
    39   1 H        0.926     0.038     2.473     2.459
    40   1 H        0.926     0.033     2.538     2.491

molecular dipole:
                 x           y           z       tot (Debye)
 q only:       -5.350      -1.894       1.788
   full:       -5.124      -1.686       1.561      14.274

 projected vibrational frequencies (cm⁻¹)
eigval :       -0.00    -0.00    -0.00    -0.00     0.00     0.00
eigval :       21.02    24.48    32.97    64.65    76.87    94.32
eigval :      111.93   121.53   139.78   149.54   172.82   237.04
eigval :      239.37   262.99   274.71   275.25   286.73   311.79
eigval :      384.64   391.25   395.34   421.73   425.14   433.47
eigval :      463.64   481.08   483.58   491.97   527.20   533.23
eigval :      538.68   552.33   558.37   579.85   591.77   610.40
eigval :      648.96   663.17   670.71   673.12   675.38   731.71
eigval :      761.69   767.83   772.82   783.98   818.22   840.19
eigval :      854.29   858.24   861.48   870.10   898.34   899.09
eigval :      903.61   914.84   918.37   923.71   951.53   981.06
eigval :     1018.11  1022.69  1071.13  1076.73  1101.12  1113.87
eigval :     1118.54  1133.52  1156.17  1163.99  1171.59  1181.09
eigval :     1190.59  1212.06  1232.59  1236.26  1244.79  1254.30
eigval :     1275.80  1280.24  1297.44  1327.72  1342.83  1352.98
eigval :     1372.09  1383.89  1384.64  1409.35  1417.02  1432.44
eigval :     1438.93  1451.29  1458.85  1485.76  1513.16  1521.83
eigval :     1531.85  1550.00  1596.79  1628.48  3011.85  3026.77
eigval :     3070.23  3074.48  3099.35  3100.49  3101.52  3108.79
eigval :     3109.10  3113.40  3118.56  3119.41  3129.17  3129.73

   temp. (K)  partition function   enthalpy   heat capacity  entropy
                                   cal/mol     cal/K/mol   cal/K/mol   J/K/mol
 298.15  VIB  0.912E+08            11401.390     74.848     68.827
         ROT  0.124E+08              888.752      2.981     35.436
         INT  0.113E+16            12290.143     77.829    104.263
         TR   0.613E+28             1481.254      4.968     43.367
         TOT                       13771.3965    82.7973   147.6300   617.6841

       T/K    H(0)-H(T)+PV         H(T)/Eh          T*S/Eh         G(T)/Eh
   ------------------------------------------------------------------------
    298.15    0.219461E-01    0.310976E+00    0.701438E-01    0.240832E+00
   ------------------------------------------------------------------------

         :::::::::::::::::::::::::::::::::::::::::::::::::::::
         ::                  THERMODYNAMIC                  ::
         :::::::::::::::::::::::::::::::::::::::::::::::::::::
         :: total free energy         -69.907883780838 Eh   ::
         ::.................................................::
         :: total energy              -70.148715483523 Eh   ::
         :: zero point energy           0.289029385267 Eh   ::
         :: G(RRHO) w/o ZPVE           -0.048197682582 Eh   ::
         :: G(RRHO) contrib.            0.240831702685 Eh   ::
         :::::::::::::::::::::::::::::::::::::::::::::::::::::

           -------------------------------------------------
          | TOTAL ENERGY              -70.148715483523 Eh   |
          | TOTAL ENTHALPY            -69.837739981038 Eh   |
          | TOTAL FREE ENERGY         -69.907883780838 Eh   |
          | GRADIENT NORM               0.000069739971 Eh/α |
          | HOMO-LUMO GAP               0.200529646464 eV   |
           -------------------------------------------------

 * finished run on 2025/09/04 at 09:12:43.503
