   * xtb version 6.7.1 (edcfbbe) compiled by 'albert@albert-system' on 2024-07-22

   ID    Z sym.   atoms
    1    6 C      1-4, 6, 8-13, 15-24
    2    7 N      5, 7
    3    8 O      14, 25, 26
    4    1 H      27-40

          program call               : xtb data2507/toluene/PXZ-PPO/PXZ-PPO.xyz --gfn 2 --gbsa toluene --ohess vtight --parallel 40 --molden --ceasefiles --namespace data2507/toluene/PXZ-PPO/PXZ-PPO_toluene_S0_preOpt
      * Solvation model:               GBSA
        Solvent                        toluene
        Solvent mass                       9.2140E+01 g/mol
          :  Hamiltonian                  GFN2-xTB          :
 * total energy  :   -70.2139098 Eh     change       -0.4958025E-09 Eh
 * total energy  :   -70.2239058 Eh     change       -0.9995950E-02 Eh
 * total energy  :   -70.2275640 Eh     change       -0.3658228E-02 Eh
 * total energy  :   -70.2282765 Eh     change       -0.7124841E-03 Eh
 * total energy  :   -70.2286481 Eh     change       -0.3715852E-03 Eh
 * total energy  :   -70.2288033 Eh     change       -0.1552267E-03 Eh
 * total energy  :   -70.2289747 Eh     change       -0.1714207E-03 Eh
 * total energy  :   -70.2291647 Eh     change       -0.1899561E-03 Eh
 * total energy  :   -70.2293722 Eh     change       -0.2075196E-03 Eh
 * total energy  :   -70.2295950 Eh     change       -0.2227981E-03 Eh
 * total energy  :   -70.2335860 Eh     change       -0.5238341E-06 Eh
 * total energy  :   -70.2335865 Eh     change       -0.5268643E-06 Eh
 * total energy  :   -70.2335871 Eh     change       -0.5256608E-06 Eh
 * total energy  :   -70.2335876 Eh     change       -0.5293180E-06 Eh
 * total energy  :   -70.2335881 Eh     change       -0.5272341E-06 Eh
 * total energy  :   -70.2335887 Eh     change       -0.5278493E-06 Eh
 * total energy  :   -70.2335892 Eh     change       -0.5255429E-06 Eh
 * total energy  :   -70.2335897 Eh     change       -0.5236980E-06 Eh
 * total energy  :   -70.2335897 Eh     change       -0.3690431E-08 Eh
   *** GEOMETRY OPTIMIZATION CONVERGED AFTER 185 ITERATIONS ***

 final structure:
================
40
 xtb: 6.7.1 (edcfbbe)
C            5.87367951627065       -1.38560459791697        0.38369273008020
C            4.69042810725163       -0.53264634413964        0.07615967603214
C            3.40758355716506       -0.87532053172228        0.30760445044315
C            2.36249359979791        0.04264924141681       -0.03213738239679
N            1.09810168536588       -0.29331806407551        0.20706172748844
C            0.12476769792170        0.55782527560586       -0.09621806538916
N           -1.16079350632149        0.16303454559669        0.15510059320007
C           -2.24150255304647        1.07294365807801        0.13729379080120
C           -2.16973933175127        2.32499080723345        0.73619246973462
C           -3.24620505096527        3.19224878317631        0.66801686950389
C           -4.40865073129479        2.81153156314363        0.01817873193754
C           -4.51691131272129        1.54307710335290       -0.52423644068811
C           -3.44208475288038        0.66902338491937       -0.45192086680821
O           -3.59212818653229       -0.60105896724978       -0.94406335173575
C           -2.76849932934432       -1.54536852359040       -0.37349103162826
C           -3.18915983407363       -2.86557388092928       -0.39873305049161
C           -2.41254616356469       -3.84701807933491        0.19247366939406
C           -1.23739584480061       -3.50089379476920        0.83498156111461
C           -0.81234156851244       -2.18234815142022        0.86397357472994
C           -1.55623869644045       -1.19629459032181        0.23237367029253
C            0.39223797481115        1.80984159499645       -0.71156490683890
C            1.68929239128143        2.15953358925781       -0.96141284092341
C            2.72411750034198        1.27782391729191       -0.60349876493003
C            4.11271230279880        1.60225829696269       -0.83414411461528
O            4.52862355350114        2.63788421985429       -1.31973817287503
O            5.03511477936184        0.65952754494531       -0.47273312998387
H            6.45098693639084       -1.55433001552532       -0.52379779291113
H            6.52209936516008       -0.87189925749340        1.09178463432946
H            5.55768048295553       -2.33566605913718        0.79973143574907
H            3.14958063558860       -1.82468109921647        0.74152433188629
H           -1.26426128666232        2.61552512791153        1.24703366398539
H           -3.17214273126750        4.16705435879328        1.12412857720187
H           -5.24161091150103        3.49354620369424       -0.04852282837465
H           -5.42209178790331        1.20990524750610       -1.00642407345280
H           -4.12107716396594       -3.09924518574930       -0.88894945833309
H           -2.73744245845789       -4.87535366275669        0.16124998501021
H           -0.64036687539416       -4.25878485065499        1.31774596314536
H            0.10699335192017       -1.91086556579475        1.35103018610532
H           -0.41725968402673        2.45333618868764       -1.01402136514515
H            1.94395632354706        3.09271156936387       -1.44172465464939

          :  Hamiltonian                  GFN2-xTB          :
         :: gradient norm              0.000051943883 Eh/a0 ::
         :: HOMO-LUMO gap              2.344299207394 eV    ::
         :: SCC energy               -71.315494401957 Eh    ::
         :: -> dispersion             -0.049961114035 Eh    ::
         :: -> Gsolv                  -0.034844183162 Eh    ::
         :: repulsion energy           1.081904696343 Eh    ::

    * Orbital Energies and Occupations

         #    Occupation            Energy/Eh            Energy/eV
      -------------------------------------------------------------
         1        2.0000           -0.7598305             -20.6760
       ...           ...                  ...                  ...
        51        2.0000           -0.4597335             -12.5100
        52        2.0000           -0.4556939             -12.4001
        53        2.0000           -0.4463245             -12.1451
        54        2.0000           -0.4455688             -12.1245
        55        2.0000           -0.4416663             -12.0184
        56        2.0000           -0.4320982             -11.7580
        57        2.0000           -0.4242125             -11.5434
        58        2.0000           -0.4225954             -11.4994
        59        2.0000           -0.4193331             -11.4106
        60        2.0000           -0.4064591             -11.0603
        61        2.0000           -0.3996251             -10.8744
        62        2.0000           -0.3843578             -10.4589
        63        2.0000           -0.3673882              -9.9971 (HOMO)
        64                         -0.2812368              -7.6528 (LUMO)
        65                         -0.2748284              -7.4785
        66                         -0.2455593              -6.6820
        67                         -0.2410194              -6.5585
        68                         -0.2321177              -6.3162
        69                         -0.2210245              -6.0144
        70                         -0.2108839              -5.7384
        71                         -0.1823969              -4.9633
        72                         -0.1126464              -3.0653
        73                         -0.1004012              -2.7321
        74                         -0.0889886              -2.4215
       ...                                ...                  ...
       118                          0.6851280              18.6433
      -------------------------------------------------------------
                  HL-Gap            0.0861514 Eh            2.3443 eV

     #   Z          covCN         q      C6AA      α(0)
     1   6 C        3.756    -0.131    23.064     6.848
     2   6 C        2.846     0.156    24.612     8.131
     3   6 C        2.908    -0.088    30.206     9.012
     4   6 C        2.963     0.110    25.577     8.295
     5   7 N        1.851    -0.277    28.046     7.849
     6   6 C        2.892     0.159    24.570     8.127
     7   7 N        2.757    -0.057    22.334     7.019
     8   6 C        2.933     0.036    27.197     8.553
     9   6 C        2.921    -0.047    29.175     8.858
    10   6 C        2.919    -0.036    28.892     8.814
    11   6 C        2.920    -0.032    28.791     8.799
    12   6 C        2.918    -0.053    29.314     8.878
    13   6 C        2.898     0.129    25.169     8.226
    14   8 O        1.708    -0.260    18.312     5.778
    15   6 C        2.898     0.125    25.249     8.239
    16   6 C        2.918    -0.054    29.336     8.882
    17   6 C        2.919    -0.033    28.815     8.803
    18   6 C        2.920    -0.035    28.883     8.813
    19   6 C        2.921    -0.048    29.190     8.860
    20   6 C        2.930     0.042    27.058     8.531
    21   6 C        2.914    -0.065    29.622     8.925
    22   6 C        2.922    -0.009    28.234     8.714
    23   6 C        2.975    -0.063    29.566     8.919
    24   6 C        2.716     0.335    21.300     7.555
    25   8 O        0.857    -0.468    23.088     6.442
    26   8 O        1.709    -0.238    17.945     5.719
    27   1 H        0.925     0.087     1.912     2.162
    28   1 H        0.925     0.087     1.906     2.159
    29   1 H        0.925     0.083     1.944     2.181
    30   1 H        0.926     0.082     1.959     2.189
    31   1 H        0.926     0.048     2.347     2.396
    32   1 H        0.926     0.054     2.272     2.357
    33   1 H        0.926     0.056     2.242     2.342
    34   1 H        0.926     0.061     2.188     2.313
    35   1 H        0.926     0.058     2.225     2.333
    36   1 H        0.926     0.054     2.269     2.356
    37   1 H        0.926     0.055     2.263     2.353
    38   1 H        0.926     0.075     2.026     2.226
    39   1 H        0.926     0.050     2.323     2.384
    40   1 H        0.926     0.051     2.306     2.375

molecular dipole:
                 x           y           z       tot (Debye)
 q only:       -1.622      -1.994       1.325
   full:       -1.520      -1.601       1.116       6.288

 projected vibrational frequencies (cm⁻¹)
eigval :       -0.00    -0.00    -0.00     0.00     0.00     0.00
eigval :       15.25    38.32    60.20    66.72    83.90    92.37
eigval :      104.35   140.75   159.22   167.74   196.98   205.67
eigval :      249.15   258.42   277.12   290.22   304.65   330.80
eigval :      389.24   395.08   407.95   416.72   438.44   445.70
eigval :      456.65   497.72   506.63   523.05   537.26   542.82
eigval :      552.21   570.36   588.87   617.81   620.60   653.50
eigval :      663.95   673.13   680.73   693.85   736.63   764.49
eigval :      780.67   784.22   805.08   825.68   840.13   852.99
eigval :      862.99   867.80   880.87   901.84   908.70   913.35
eigval :      919.86   920.59   935.33   970.69   989.41  1010.13
eigval :     1021.23  1048.98  1080.02  1081.63  1101.59  1113.90
eigval :     1133.72  1146.24  1166.35  1170.08  1179.00  1193.67
eigval :     1210.13  1229.22  1235.81  1244.67  1247.67  1283.60
eigval :     1296.11  1312.91  1322.33  1330.26  1373.89  1385.80
eigval :     1419.30  1422.29  1433.99  1436.84  1442.04  1452.61
eigval :     1458.60  1487.40  1510.28  1561.55  1573.19  1575.01
eigval :     1587.71  1593.09  1620.46  1681.18  3015.14  3030.18
eigval :     3076.91  3086.65  3089.59  3091.32  3096.19  3100.10
eigval :     3104.12  3109.44  3111.16  3112.71  3141.37  3146.98

   temp. (K)  partition function   enthalpy   heat capacity  entropy
                                   cal/mol     cal/K/mol   cal/K/mol   J/K/mol
 298.15  VIB  0.269E+08            11012.642     73.585     66.601
         ROT  0.122E+08              888.752      2.981     35.414
         INT  0.329E+15            11901.395     76.566    102.015
         TR   0.613E+28             1481.254      4.968     43.367
         TOT                       13382.6487    81.5337   145.3821   608.2787

       T/K    H(0)-H(T)+PV         H(T)/Eh          T*S/Eh         G(T)/Eh
   ------------------------------------------------------------------------
    298.15    0.213266E-01    0.314895E+00    0.690757E-01    0.245820E+00
   ------------------------------------------------------------------------

         :::::::::::::::::::::::::::::::::::::::::::::::::::::
         ::                  THERMODYNAMIC                  ::
         :::::::::::::::::::::::::::::::::::::::::::::::::::::
         :: total free energy         -69.987769991659 Eh   ::
         ::.................................................::
         :: total energy              -70.233589705697 Eh   ::
         :: zero point energy           0.293568826641 Eh   ::
         :: G(RRHO) w/o ZPVE           -0.047749112603 Eh   ::
         :: G(RRHO) contrib.            0.245819714038 Eh   ::
         :::::::::::::::::::::::::::::::::::::::::::::::::::::

           -------------------------------------------------
          | TOTAL ENERGY              -70.233589705697 Eh   |
          | TOTAL ENTHALPY            -69.918694270903 Eh   |
          | TOTAL FREE ENERGY         -69.987769991659 Eh   |
          | GRADIENT NORM               0.000051945380 Eh/α |
          | HOMO-LUMO GAP               2.344299600982 eV   |
           -------------------------------------------------

 * finished run on 2025/09/04 at 09:09:48.909
