   * xtb version 6.7.1 (edcfbbe) compiled by 'albert@albert-system' on 2024-07-22

   ID    Z sym.   atoms
    1    6 C      1-4, 6, 8-13, 15-24
    2    7 N      5, 7
    3    8 O      14, 25, 26
    4    1 H      27-40

          program call               : xtb data2507/toluene/PXZ-PPO/PXZ-PPO_toluene_S0_crest.xyz --gfn 2 --gbsa toluene --ohess vtight --parallel 40 --molden --ceasefiles --namespace data2507/toluene/PXZ-PPO/PXZ-PPO_toluene_S0_finalOpt
      * Solvation model:               GBSA
        Solvent                        toluene
        Solvent mass                       9.2140E+01 g/mol
          :  Hamiltonian                  GFN2-xTB          :
 * total energy  :   -70.2334215 Eh     change       -0.6265992E-09 Eh
 * total energy  :   -70.2335006 Eh     change       -0.7905051E-04 Eh
 * total energy  :   -70.2335242 Eh     change       -0.2360612E-04 Eh
 * total energy  :   -70.2335279 Eh     change       -0.3745021E-05 Eh
 * total energy  :   -70.2335310 Eh     change       -0.3079324E-05 Eh
 * total energy  :   -70.2335338 Eh     change       -0.2786591E-05 Eh
 * total energy  :   -70.2335361 Eh     change       -0.2374158E-05 Eh
 * total energy  :   -70.2335376 Eh     change       -0.1457451E-05 Eh
 * total energy  :   -70.2335388 Eh     change       -0.1187724E-05 Eh
 * total energy  :   -70.2335402 Eh     change       -0.1384627E-05 Eh
 * total energy  :   -70.2335434 Eh     change       -0.6013336E-06 Eh
 * total energy  :   -70.2335441 Eh     change       -0.6189854E-06 Eh
 * total energy  :   -70.2335447 Eh     change       -0.6413038E-06 Eh
 * total energy  :   -70.2335453 Eh     change       -0.5775585E-06 Eh
 * total energy  :   -70.2335457 Eh     change       -0.3802582E-06 Eh
 * total energy  :   -70.2335459 Eh     change       -0.2116041E-06 Eh
 * total energy  :   -70.2335460 Eh     change       -0.1480942E-06 Eh
 * total energy  :   -70.2335462 Eh     change       -0.1442729E-06 Eh
 * total energy  :   -70.2335462 Eh     change       -0.4683088E-08 Eh
   *** GEOMETRY OPTIMIZATION CONVERGED AFTER 22 ITERATIONS ***

 final structure:
================
40
 xtb: 6.7.1 (edcfbbe)
C            5.70494053334272        1.95266831522534       -0.52053442106896
C            4.58780731468463        0.99890355028524       -0.26679102030266
C            3.27830354146735        1.28401609880160       -0.41026589885905
C            2.30426539938827        0.27075436186251       -0.13680068983396
N            1.01364936211534        0.54901162611106       -0.29716787085064
C            0.10542251040342       -0.38983755470291       -0.05826070672502
N           -1.21078894043411       -0.05660616081340       -0.23071124624048
C           -1.69720871509156        1.27167390446128       -0.13485486632346
C           -1.03030863379682        2.37730930487948       -0.64263003041684
C           -1.53920940859098        3.65056932314207       -0.44271042909643
C           -2.72396316961510        3.83429981926462        0.24711172899925
C           -3.42499084927904        2.73647920462082        0.71521099509592
C           -2.91949986389502        1.46093380798251        0.52017735030791
O           -3.67081199319969        0.40136057338894        0.97601786839829
C           -3.44141587922099       -0.78863937661121        0.33676546392620
C           -4.45252393388344       -1.73817952778368        0.31647336360610
C           -4.26571089741644       -2.92688724967318       -0.36681684433891
C           -3.08907799736762       -3.14978419573605       -1.06267160152853
C           -2.07699126337742       -2.20601461863804       -1.04140606871039
C           -2.22553506062063       -1.03663316990329       -0.30495258330441
C            0.47098328282464       -1.67949664640111        0.41170124160023
C            1.79542460602136       -1.97093897981600        0.57948273129063
C            2.76109831813261       -0.99328954950273        0.28280574044955
C            4.17518128818866       -1.25344434064510        0.42392835726730
O            4.67129439863139       -2.30735345594947        0.77653493461179
O            5.02456482691049       -0.22186406544426        0.13339344178183
H            6.29540492813184        2.07662592300229        0.38581238208290
H            6.36495001727980        1.54955900005278       -1.28695655376861
H            5.31719911943989        2.91369876681045       -0.83941143494581
H            2.94697123482786        2.25690097042705       -0.72635674429957
H           -0.10358176638589        2.23125900642180       -1.16781432665748
H           -1.00028529114837        4.50095877088992       -0.83040535358553
H           -3.11451327033342        4.82643004146082        0.41134309318248
H           -4.36212788230924        2.84369568806831        1.23825947826566
H           -5.37069667656804       -1.52572636833649        0.84060495894466
H           -5.04895281967523       -3.66845479506444       -0.37178620600311
H           -2.95404698612590       -4.06011416327117       -1.62553162817529
H           -1.16177478049601       -2.37338598800332       -1.58879116187316
H           -0.28654117112240       -2.40077118680230        0.67040052977740
H            2.12390741216324       -2.93128346136049        0.94847579892013

          :  Hamiltonian                  GFN2-xTB          :
         :: gradient norm              0.000040544380 Eh/a0 ::
         :: HOMO-LUMO gap              2.328952787630 eV    ::
         :: SCC energy               -71.315447309564 Eh    ::
         :: -> dispersion             -0.049967112452 Eh    ::
         :: -> Gsolv                  -0.034750810551 Eh    ::
         :: repulsion energy           1.081901139252 Eh    ::

    * Orbital Energies and Occupations

         #    Occupation            Energy/Eh            Energy/eV
      -------------------------------------------------------------
         1        2.0000           -0.7599690             -20.6798
       ...           ...                  ...                  ...
        51        2.0000           -0.4597015             -12.5091
        52        2.0000           -0.4558640             -12.4047
        53        2.0000           -0.4462501             -12.1431
        54        2.0000           -0.4455365             -12.1237
        55        2.0000           -0.4416340             -12.0175
        56        2.0000           -0.4322480             -11.7621
        57        2.0000           -0.4241648             -11.5421
        58        2.0000           -0.4226943             -11.5021
        59        2.0000           -0.4193990             -11.4124
        60        2.0000           -0.4064877             -11.0611
        61        2.0000           -0.3995939             -10.8735
        62        2.0000           -0.3844603             -10.4617
        63        2.0000           -0.3670938              -9.9891 (HOMO)
        64                         -0.2815064              -7.6602 (LUMO)
        65                         -0.2750002              -7.4831
        66                         -0.2456015              -6.6832
        67                         -0.2409452              -6.5565
        68                         -0.2318608              -6.3093
        69                         -0.2207444              -6.0068
        70                         -0.2109423              -5.7400
        71                         -0.1826295              -4.9696
        72                         -0.1125642              -3.0630
        73                         -0.1000067              -2.7213
        74                         -0.0890347              -2.4228
       ...                                ...                  ...
       118                          0.6849986              18.6398
      -------------------------------------------------------------
                  HL-Gap            0.0855874 Eh            2.3290 eV

     #   Z          covCN         q      C6AA      α(0)
     1   6 C        3.756    -0.131    23.065     6.848
     2   6 C        2.846     0.156    24.610     8.130
     3   6 C        2.908    -0.088    30.205     9.012
     4   6 C        2.963     0.110    25.577     8.295
     5   7 N        1.850    -0.277    28.034     7.847
     6   6 C        2.891     0.159    24.572     8.127
     7   7 N        2.757    -0.057    22.333     7.019
     8   6 C        2.929     0.042    27.061     8.531
     9   6 C        2.921    -0.049    29.210     8.863
    10   6 C        2.920    -0.036    28.885     8.813
    11   6 C        2.919    -0.033    28.818     8.803
    12   6 C        2.918    -0.054    29.339     8.882
    13   6 C        2.898     0.125    25.250     8.239
    14   8 O        1.708    -0.260    18.309     5.777
    15   6 C        2.897     0.129    25.171     8.226
    16   6 C        2.918    -0.053    29.316     8.879
    17   6 C        2.920    -0.032    28.793     8.799
    18   6 C        2.919    -0.036    28.892     8.815
    19   6 C        2.921    -0.047    29.179     8.858
    20   6 C        2.933     0.036    27.195     8.552
    21   6 C        2.914    -0.065    29.614     8.924
    22   6 C        2.922    -0.009    28.234     8.714
    23   6 C        2.975    -0.063    29.561     8.918
    24   6 C        2.716     0.335    21.299     7.555
    25   8 O        0.857    -0.468    23.082     6.441
    26   8 O        1.709    -0.238    17.941     5.719
    27   1 H        0.925     0.087     1.909     2.161
    28   1 H        0.925     0.087     1.907     2.160
    29   1 H        0.925     0.083     1.944     2.180
    30   1 H        0.926     0.082     1.958     2.188
    31   1 H        0.926     0.076     2.019     2.222
    32   1 H        0.926     0.054     2.266     2.354
    33   1 H        0.926     0.054     2.272     2.357
    34   1 H        0.926     0.058     2.226     2.333
    35   1 H        0.926     0.061     2.189     2.314
    36   1 H        0.926     0.056     2.244     2.342
    37   1 H        0.926     0.054     2.274     2.358
    38   1 H        0.926     0.047     2.352     2.398
    39   1 H        0.926     0.050     2.323     2.383
    40   1 H        0.926     0.051     2.304     2.374

molecular dipole:
                 x           y           z       tot (Debye)
 q only:       -1.757       2.017      -1.033
   full:       -1.626       1.612      -0.870       6.225

 projected vibrational frequencies (cm⁻¹)
eigval :       -0.00     0.00     0.00     0.00     0.00     0.00
eigval :       18.76    37.74    62.29    65.18    79.07    90.27
eigval :      104.85   141.87   161.29   168.47   199.16   206.38
eigval :      248.52   258.42   276.59   289.86   304.14   330.41
eigval :      389.55   395.13   408.11   415.09   438.42   445.20
eigval :      456.24   498.12   507.57   521.56   537.30   543.22
eigval :      552.45   570.34   588.68   617.93   620.78   653.60
eigval :      664.33   673.07   680.57   693.19   737.71   764.61
eigval :      778.96   785.21   805.18   825.95   846.70   853.51
eigval :      862.68   865.41   881.12   900.78   909.36   914.23
eigval :      919.52   919.96   933.18   971.28   989.14  1010.63
eigval :     1020.34  1049.44  1081.18  1083.73  1101.91  1114.43
eigval :     1133.09  1146.89  1167.59  1170.83  1178.90  1194.55
eigval :     1210.07  1229.37  1236.47  1244.80  1247.96  1283.56
eigval :     1296.30  1312.64  1322.27  1330.28  1373.54  1385.85
eigval :     1418.88  1422.12  1432.81  1436.83  1441.71  1452.21
eigval :     1458.98  1487.49  1510.07  1561.03  1573.21  1574.89
eigval :     1587.82  1593.06  1620.17  1681.37  3014.67  3029.70
eigval :     3077.31  3086.60  3089.58  3092.60  3095.79  3100.44
eigval :     3104.27  3109.24  3110.57  3112.28  3141.37  3147.71

   temp. (K)  partition function   enthalpy   heat capacity  entropy
                                   cal/mol     cal/K/mol   cal/K/mol   J/K/mol
 298.15  VIB  0.231E+08            11010.632     73.558     66.477
         ROT  0.123E+08              888.752      2.981     35.416
         INT  0.283E+15            11899.384     76.539    101.893
         TR   0.613E+28             1481.254      4.968     43.367
         TOT                       13380.6380    81.5074   145.2594   607.7652

       T/K    H(0)-H(T)+PV         H(T)/Eh          T*S/Eh         G(T)/Eh
   ------------------------------------------------------------------------
    298.15    0.213234E-01    0.314910E+00    0.690174E-01    0.245892E+00
   ------------------------------------------------------------------------

         :::::::::::::::::::::::::::::::::::::::::::::::::::::
         ::                  THERMODYNAMIC                  ::
         :::::::::::::::::::::::::::::::::::::::::::::::::::::
         :: total free energy         -69.987653721172 Eh   ::
         ::.................................................::
         :: total energy              -70.233546170799 Eh   ::
         :: zero point energy           0.293586463123 Eh   ::
         :: G(RRHO) w/o ZPVE           -0.047694013496 Eh   ::
         :: G(RRHO) contrib.            0.245892449627 Eh   ::
         :::::::::::::::::::::::::::::::::::::::::::::::::::::

           -------------------------------------------------
          | TOTAL ENERGY              -70.233546170799 Eh   |
          | TOTAL ENTHALPY            -69.918636303701 Eh   |
          | TOTAL FREE ENERGY         -69.987653721172 Eh   |
          | GRADIENT NORM               0.000040551237 Eh/α |
          | HOMO-LUMO GAP               2.328952428505 eV   |
           -------------------------------------------------

 * finished run on 2025/09/04 at 09:11:05.068
