   * xtb version 6.7.1 (edcfbbe) compiled by 'albert@albert-system' on 2024-07-22

   ID    Z sym.   atoms
    1    6 C      1-4, 6, 8-13, 15-24
    2    7 N      5, 7
    3    8 O      14, 25, 26
    4    1 H      27-40

          program call               : xtb data2507/toluene/PXZ-PPO/PXZ-PPO_toluene_S0_finalOpt.xtbopt.xyz --gfn 2 --uhf 2 --gbsa toluene --ohess vtight --parallel 40 --molden --ceasefiles --namespace data2507/toluene/PXZ-PPO/PXZ-PPO_toluene_T1_preOpt
      * Solvation model:               GBSA
        Solvent                        toluene
        Solvent mass                       9.2140E+01 g/mol
          :  Hamiltonian                  GFN2-xTB          :
 * total energy  :   -70.1344710 Eh     change       -0.1036511E-08 Eh
 * total energy  :   -70.1388515 Eh     change       -0.4380460E-02 Eh
 * total energy  :   -70.1408006 Eh     change       -0.1949097E-02 Eh
 * total energy  :   -70.1411350 Eh     change       -0.3344152E-03 Eh
 * total energy  :   -70.1417908 Eh     change       -0.6558365E-03 Eh
 * total energy  :   -70.1422174 Eh     change       -0.4265281E-03 Eh
 * total energy  :   -70.1426969 Eh     change       -0.4795427E-03 Eh
 * total energy  :   -70.1432027 Eh     change       -0.5058221E-03 Eh
 * total energy  :   -70.1436401 Eh     change       -0.4374069E-03 Eh
 * total energy  :   -70.1440483 Eh     change       -0.4081971E-03 Eh
 * total energy  :   -70.1487099 Eh     change       -0.1988362E-05 Eh
 * total energy  :   -70.1487126 Eh     change       -0.2715410E-05 Eh
 * total energy  :   -70.1487147 Eh     change       -0.2073563E-05 Eh
 * total energy  :   -70.1487157 Eh     change       -0.1026229E-05 Eh
 * total energy  :   -70.1487163 Eh     change       -0.6337917E-06 Eh
 * total energy  :   -70.1487167 Eh     change       -0.4160795E-06 Eh
 * total energy  :   -70.1487170 Eh     change       -0.2129872E-06 Eh
 * total energy  :   -70.1487171 Eh     change       -0.1223058E-06 Eh
 * total energy  :   -70.1487171 Eh     change       -0.2186263E-07 Eh
   *** GEOMETRY OPTIMIZATION CONVERGED AFTER 56 ITERATIONS ***

 final structure:
================
40
 xtb: 6.7.1 (edcfbbe)
C            5.67158510060085        1.41976189124065       -1.50268592208862
C            4.56011242921938        0.72260255284780       -0.78768272226876
C            3.25274597586935        0.96902454747620       -0.99643615890393
C            2.26050790728901        0.24376721904295       -0.25371425330056
N            0.98888071677350        0.46123169284560       -0.47844917002916
C            0.05643317176071       -0.24524067972939        0.20509526821880
N           -1.29975508086802        0.03920301754480       -0.03105593417277
C           -1.80851270200956        1.30865833671466        0.19093976761688
C           -0.98935984978794        2.40555055933577        0.47104303461728
C           -1.54114890941929        3.65098966140082        0.69424798591284
C           -2.92000050814972        3.83141498912753        0.66356374917939
C           -3.75149293556075        2.75902307887244        0.40416371672392
C           -3.20718577278004        1.50238846726190        0.16355631114841
O           -4.07015322298897        0.48406027511421       -0.07649939083673
C           -3.56080219001638       -0.73819224415344       -0.37434918238193
C           -4.45483052740868       -1.75413851104058       -0.67948058611246
C           -3.98399872995283       -3.00742672685284       -1.02579342378314
C           -2.61060231176831       -3.24108875808298       -1.08829633947344
C           -1.71300737788247       -2.24574025170277       -0.77490193968216
C           -2.16474340385588       -0.97550190127466       -0.38737157437231
C            0.41338504532549       -1.21243340673994        1.16504748267850
C            1.73446546451805       -1.45787183181348        1.41121301642564
C            2.73162402930806       -0.72499347547630        0.68718304906971
C            4.11077204937834       -0.95298523178615        0.87307862451676
O            4.62964289628103       -1.74805320260212        1.66527862564848
O            5.00604240661947       -0.19026452609478        0.10083917365948
H            6.32291113588536        1.90701000318578       -0.77882102762877
H            6.27243633018880        0.69010836014557       -2.04340503453543
H            5.27613416930845        2.15472380507833       -2.19529908690127
H            2.93011498689456        1.69668269951459       -1.72046497047971
H            0.07833562156293        2.26775126112512        0.49516089300858
H           -0.89152262241368        4.48631636407652        0.90199299176067
H           -3.34405083442764        4.80501044732079        0.85032687611692
H           -4.82422656886099        2.86345317976528        0.38538240565040
H           -5.50986527967302       -1.53501656738400       -0.64680629016451
H           -4.67925820138668       -3.79649301267187       -1.26177298617526
H           -2.24295114039078       -4.20995769815712       -1.38718320821205
H           -0.65172083844641       -2.42614254661665       -0.83472347837248
H           -0.36557790414520       -1.71313229361694        1.72073536007183
H            2.05946690181858       -2.18565189270269        2.13721289057831

          :  Hamiltonian                  GFN2-xTB          :
         :: gradient norm              0.000068458431 Eh/a0 ::
         :: HOMO-LUMO gap              0.202940476211 eV    ::
         :: SCC energy               -71.215189668604 Eh    ::
         :: -> dispersion             -0.049708182148 Eh    ::
         :: -> Gsolv                  -0.045466467685 Eh    ::
         :: repulsion energy           1.066472572664 Eh    ::

    * Orbital Energies and Occupations

         #    Occupation            Energy/Eh            Energy/eV
      -------------------------------------------------------------
         1        2.0000           -0.7697334             -20.9455
       ...           ...                  ...                  ...
        52        2.0000           -0.4566955             -12.4273
        53        2.0000           -0.4560028             -12.4085
        54        2.0000           -0.4458430             -12.1320
        55        2.0000           -0.4423431             -12.0368
        56        2.0000           -0.4409900             -11.9999
        57        2.0000           -0.4377570             -11.9120
        58        2.0000           -0.4240398             -11.5387
        59        2.0000           -0.4171961             -11.3525
        60        2.0000           -0.3975482             -10.8178
        61        2.0000           -0.3870693             -10.5327
        62        1.9989           -0.3821396             -10.3985
        63        1.0011           -0.3691468             -10.0450
        64        0.9806           -0.2770659              -7.5393 (HOMO)
        65        0.0194           -0.2696074              -7.3364 (LUMO)
        66        0.0000           -0.2589286              -7.0458
        67                         -0.2540561              -6.9132
        68                         -0.2403574              -6.5405
        69                         -0.2244752              -6.1083
        70                         -0.1938448              -5.2748
        71                         -0.1774864              -4.8297
        72                         -0.1306866              -3.5562
        73                         -0.1035782              -2.8185
        74                         -0.0774132              -2.1065
        75                         -0.0268700              -0.7312
       ...                                ...                  ...
       118                          0.6842923              18.6205
      -------------------------------------------------------------
                  HL-Gap            0.0074584 Eh            0.2030 eV

     #   Z          covCN         q      C6AA      α(0)
     1   6 C        3.756    -0.125    22.962     6.832
     2   6 C        2.843     0.156    24.612     8.130
     3   6 C        2.908    -0.097    30.449     9.048
     4   6 C        2.952     0.104    25.705     8.316
     5   7 N        1.843    -0.259    27.591     7.785
     6   6 C        2.895     0.088    26.048     8.368
     7   7 N        2.752     0.006    21.161     6.832
     8   6 C        2.927     0.050    26.881     8.503
     9   6 C        2.919    -0.042    29.048     8.838
    10   6 C        2.917    -0.025    28.632     8.775
    11   6 C        2.918    -0.021    28.523     8.758
    12   6 C        2.915    -0.049    29.229     8.865
    13   6 C        2.888     0.136    25.025     8.201
    14   8 O        1.710    -0.195    17.258     5.609
    15   6 C        2.887     0.134    25.069     8.209
    16   6 C        2.914    -0.048    29.202     8.861
    17   6 C        2.918    -0.025    28.633     8.775
    18   6 C        2.916    -0.025    28.628     8.774
    19   6 C        2.918    -0.044    29.081     8.843
    20   6 C        2.929     0.042    27.051     8.530
    21   6 C        2.908    -0.048    29.180     8.858
    22   6 C        2.918    -0.042    29.051     8.839
    23   6 C        2.968    -0.068    29.691     8.938
    24   6 C        2.712     0.299    21.931     7.666
    25   8 O        0.857    -0.534    24.547     6.643
    26   8 O        1.706    -0.284    18.708     5.840
    27   1 H        0.925     0.077     2.006     2.215
    28   1 H        0.925     0.077     2.005     2.214
    29   1 H        0.925     0.074     2.038     2.232
    30   1 H        0.926     0.066     2.130     2.282
    31   1 H        0.926     0.070     2.090     2.261
    32   1 H        0.926     0.067     2.122     2.278
    33   1 H        0.926     0.072     2.068     2.249
    34   1 H        0.926     0.077     2.012     2.218
    35   1 H        0.926     0.076     2.022     2.224
    36   1 H        0.926     0.069     2.097     2.264
    37   1 H        0.926     0.064     2.148     2.292
    38   1 H        0.926     0.057     2.234     2.337
    39   1 H        0.926     0.038     2.474     2.460
    40   1 H        0.926     0.034     2.536     2.490

molecular dipole:
                 x           y           z       tot (Debye)
 q only:       -5.236       2.134      -1.811
   full:       -5.023       1.906      -1.592      14.243

 projected vibrational frequencies (cm⁻¹)
eigval :       -0.00    -0.00     0.00     0.00     0.00     0.00
eigval :       25.71    32.42    33.21    47.27    67.83    94.91
eigval :      112.86   123.49   142.88   149.81   173.03   238.71
eigval :      240.47   263.33   274.52   275.71   286.74   312.53
eigval :      385.48   392.78   395.19   422.62   425.14   435.69
eigval :      464.16   481.51   484.07   492.30   527.96   533.75
eigval :      539.00   552.84   558.49   580.68   593.41   610.59
eigval :      648.96   663.12   670.99   674.66   678.43   731.66
eigval :      760.62   768.27   773.47   783.96   818.96   840.12
eigval :      854.62   859.62   860.88   868.89   898.89   900.38
eigval :      903.47   916.77   917.02   924.15   951.37   980.89
eigval :     1016.83  1022.57  1071.46  1077.40  1099.79  1113.48
eigval :     1117.08  1133.23  1155.69  1163.28  1170.62  1180.08
eigval :     1189.62  1212.27  1231.83  1235.86  1244.47  1253.73
eigval :     1275.41  1280.61  1297.52  1327.90  1342.77  1352.93
eigval :     1371.79  1383.86  1384.60  1409.20  1417.23  1432.06
eigval :     1437.67  1450.57  1458.77  1485.13  1512.51  1522.63
eigval :     1532.28  1550.07  1597.00  1628.57  3011.59  3026.47
eigval :     3069.69  3072.88  3098.95  3100.80  3102.17  3108.56
eigval :     3109.42  3113.49  3118.21  3119.31  3128.04  3129.34

   temp. (K)  partition function   enthalpy   heat capacity  entropy
                                   cal/mol     cal/K/mol   cal/K/mol   J/K/mol
 298.15  VIB  0.795E+08            11399.164     74.590     68.688
         ROT  0.124E+08              888.752      2.981     35.436
         INT  0.984E+15            12287.917     77.570    104.124
         TR   0.613E+28             1481.254      4.968     43.367
         TOT                       13769.1707    82.5386   147.4911   617.1028

       T/K    H(0)-H(T)+PV         H(T)/Eh          T*S/Eh         G(T)/Eh
   ------------------------------------------------------------------------
    298.15    0.219426E-01    0.310975E+00    0.700778E-01    0.240897E+00
   ------------------------------------------------------------------------

         :::::::::::::::::::::::::::::::::::::::::::::::::::::
         ::                  THERMODYNAMIC                  ::
         :::::::::::::::::::::::::::::::::::::::::::::::::::::
         :: total free energy         -69.907819892438 Eh   ::
         ::.................................................::
         :: total energy              -70.148717095926 Eh   ::
         :: zero point energy           0.289032421828 Eh   ::
         :: G(RRHO) w/o ZPVE           -0.048135218341 Eh   ::
         :: G(RRHO) contrib.            0.240897203488 Eh   ::
         :::::::::::::::::::::::::::::::::::::::::::::::::::::

           -------------------------------------------------
          | TOTAL ENERGY              -70.148717095926 Eh   |
          | TOTAL ENTHALPY            -69.837742103950 Eh   |
          | TOTAL FREE ENERGY         -69.907819892438 Eh   |
          | GRADIENT NORM               0.000068431681 Eh/α |
          | HOMO-LUMO GAP               0.202954592022 eV   |
           -------------------------------------------------

 * finished run on 2025/09/04 at 09:11:07.888
