   * xtb version 6.7.1 (edcfbbe) compiled by 'albert@albert-system' on 2024-07-22

   ID    Z sym.   atoms
    1    8 O      1, 3, 20, 36
    2   16 S      2
    3    6 C      4-7, 9-12, 14-19, 21-28, 30-35, 37-43
    4    7 N      8, 13, 29
    5    1 H      44-66

          program call               : xtb data2507/toluene/PSPBP/PSPBP_toluene_S0_crest.xyz --gfn 2 --gbsa toluene --ohess vtight --parallel 40 --molden --ceasefiles --namespace data2507/toluene/PSPBP/PSPBP_toluene_S0_finalOpt
      * Solvation model:               GBSA
        Solvent                        toluene
        Solvent mass                       9.2140E+01 g/mol
          :  Hamiltonian                  GFN2-xTB          :
 * total energy  :  -115.0199166 Eh     change       -0.5531149E-09 Eh
 * total energy  :  -115.0200258 Eh     change       -0.1091885E-03 Eh
 * total energy  :  -115.0201079 Eh     change       -0.8206382E-04 Eh
 * total energy  :  -115.0201513 Eh     change       -0.4344071E-04 Eh
 * total energy  :  -115.0201962 Eh     change       -0.4488497E-04 Eh
 * total energy  :  -115.0202724 Eh     change       -0.7625111E-04 Eh
 * total energy  :  -115.0203545 Eh     change       -0.8209438E-04 Eh
 * total energy  :  -115.0204507 Eh     change       -0.9618380E-04 Eh
 * total energy  :  -115.0205922 Eh     change       -0.1415397E-03 Eh
 * total energy  :  -115.0207551 Eh     change       -0.1628810E-03 Eh
 * total energy  :  -115.0213516 Eh     change       -0.3630269E-06 Eh
 * total energy  :  -115.0213519 Eh     change       -0.3299231E-06 Eh
 * total energy  :  -115.0213523 Eh     change       -0.3650325E-06 Eh
 * total energy  :  -115.0213526 Eh     change       -0.3760803E-06 Eh
 * total energy  :  -115.0213530 Eh     change       -0.3096487E-06 Eh
 * total energy  :  -115.0213532 Eh     change       -0.2663118E-06 Eh
 * total energy  :  -115.0213535 Eh     change       -0.2382398E-06 Eh
 * total energy  :  -115.0213536 Eh     change       -0.1685441E-06 Eh
 * total energy  :  -115.0213537 Eh     change       -0.8904017E-07 Eh
   *** GEOMETRY OPTIMIZATION CONVERGED AFTER 84 ITERATIONS ***

 final structure:
================
66
 xtb: 6.7.1 (edcfbbe)
O           -0.76331976048070        2.96487303630282       -3.15418447529913
S            0.42300045025484        2.70982999415129       -2.37053309319373
O            1.68731463681587        2.65639610784432       -3.06512965173426
C            0.52773235531599        3.94116113562646       -1.06775753260795
C           -0.60044523586580        4.64092515054449       -0.67707334276193
C           -0.47989178043280        5.53868689715048        0.37290885025540
C            0.76366038347611        5.67480123945495        0.97693664967554
N            1.84007270801813        5.00304930750400        0.59813735257507
C            1.72702977177191        4.15413239531171       -0.40685252259865
C            0.20020497490322        1.19541385558695       -1.43212067140091
C            1.31375376378352        0.47771006960045       -1.05140143872365
C            1.14899479493918       -0.65437513768049       -0.25134182940962
N            2.27105309547046       -1.37754743020487        0.18752263441874
C            3.25142318215314       -0.75481082385052        0.97349984198941
C            3.13485723023463        0.55930955059734        1.40910934650176
C            4.11891105022644        1.14041053688542        2.19493053455321
C            5.23088853791401        0.41324428964106        2.56997415927004
C            5.34676967582957       -0.91037285014562        2.17258244479151
C            4.36594908827701       -1.49403049849515        1.39072996592379
O            4.53645835624786       -2.82003600703532        1.07208908475186
C            3.58223746027856       -3.40840326607263        0.27782968765770
C            3.78660255350498       -4.73152211631425       -0.07032674809555
C            2.88653183573185       -5.38499747295219       -0.89894835040999
C            1.79611659860699       -4.69815121957149       -1.39387406782697
C            1.58784524764789       -3.37226228805116       -1.04570238949082
C            2.45744958004369       -2.71448159093725       -0.18593455807305
C           -0.13233427068330       -1.03239539935628        0.14436340712259
C           -1.24651320262023       -0.29433657927134       -0.24811178228458
N           -2.53141977979827       -0.65308028807665        0.19657211928959
C           -3.10995171067106       -1.87208093430977       -0.17815860505957
C           -2.48132740521185       -2.75500539026498       -1.04597235323377
C           -3.07670420403863       -3.95812463035706       -1.39341858110893
C           -4.31809293861064       -4.29174852371656       -0.89010983011351
C           -4.97715753895069       -3.40370805626677       -0.05277836899692
C           -4.38654785254039       -2.20203468154745        0.29420517189586
O           -5.11607471294193       -1.35918315556798        1.09826250755758
C           -4.55222213186937       -0.14974695982373        1.42556540244083
C           -5.30479802152511        0.69280821097263        2.22397539085429
C           -4.79279292632710        1.91627010368947        2.62967148184019
C           -3.51724422859664        2.27929919978181        2.24664613256415
C           -2.76043469745149        1.43911062692344        1.44345921245942
C           -3.27078726394997        0.22513033460340        1.00028062057113
C           -1.07444217635576        0.83578063037593       -1.04870938389845
H           -1.53131532930608        4.48160308839244       -1.19945828551557
H           -1.32624011887623        6.11358240123099        0.71269350267080
H            0.91319312233977        6.35551236359513        1.80427926089447
H            2.62126052603849        3.62735002095399       -0.70952960133443
H            2.28859792946041        0.79035131494634       -1.38936778287348
H            2.26484335850001        1.13709024493967        1.14003579654205
H            4.00209983043656        2.16555634172346        2.51011320890257
H            6.00255248917267        0.86003785497396        3.17650197587776
H            6.19143563898228       -1.51438736642842        2.46433245200642
H            4.66230292488242       -5.23017078907476        0.31420103134421
H            3.05251692613160       -6.41768776996993       -1.16167353786886
H            1.10064138375960       -5.18453064733922       -2.05981294306708
H            0.74718216307256       -2.83904583904370       -1.45834626744127
H           -0.26158418104160       -1.89739092842754        0.77817324784465
H           -1.52302773742852       -2.49418561437546       -1.46421735783308
H           -2.56233352165017       -4.62666358980236       -2.06589042342699
H           -4.78516621017477       -5.22786135149852       -1.15197839629978
H           -5.95811858020357       -3.62190934938473        0.33892061021029
H           -6.28893473970124        0.36739739800957        2.52215816103552
H           -5.38834247477318        2.56688745825032        3.25010986117957
H           -3.09463428354252        3.21671732369467        2.57319895916236
H           -1.75821078907004        1.72823577651384        1.16942533079364
H           -1.91662050233273        1.41944726224677       -1.38350920284490

          :  Hamiltonian                  GFN2-xTB          :
         :: gradient norm              0.000039830064 Eh/a0 ::
         :: HOMO-LUMO gap              1.682198015951 eV    ::
         :: SCC energy              -116.853721230906 Eh    ::
         :: -> dispersion             -0.096981999984 Eh    ::
         :: -> Gsolv                  -0.050701847745 Eh    ::
         :: repulsion energy           1.832367516753 Eh    ::

    * Orbital Energies and Occupations

         #    Occupation            Energy/Eh            Energy/eV
      -------------------------------------------------------------
         1        2.0000           -0.7899858             -21.4966
       ...           ...                  ...                  ...
        92        2.0000           -0.4348773             -11.8336
        93        2.0000           -0.4342960             -11.8178
        94        2.0000           -0.4289859             -11.6733
        95        2.0000           -0.4268721             -11.6158
        96        2.0000           -0.4219369             -11.4815
        97        2.0000           -0.4206030             -11.4452
        98        2.0000           -0.4193032             -11.4098
        99        2.0000           -0.4180985             -11.3770
       100        2.0000           -0.3973388             -10.8121
       101        2.0000           -0.3960963             -10.7783
       102        2.0000           -0.3945160             -10.7353
       103        2.0000           -0.3524814              -9.5915
       104        2.0000           -0.3510307              -9.5520 (HOMO)
       105                         -0.2892111              -7.8698 (LUMO)
       106                         -0.2766726              -7.5286
       107                         -0.2679345              -7.2909
       108                         -0.2669831              -7.2650
       109                         -0.2447587              -6.6602
       110                         -0.2434945              -6.6258
       111                         -0.2362008              -6.4274
       112                         -0.2349334              -6.3929
       113                         -0.2225170              -6.0550
       114                         -0.2197608              -5.9800
       115                         -0.2035737              -5.5395
       ...                                ...                  ...
       200                          1.1665536              31.7435
      -------------------------------------------------------------
                  HL-Gap            0.0618196 Eh            1.6822 eV

     #   Z          covCN         q      C6AA      α(0)
     1   8 O        0.860    -0.565    25.277     6.741
     2  16 S        3.814     0.956   107.914    17.484
     3   8 O        0.860    -0.568    25.345     6.750
     4   6 C        2.964    -0.089    30.220     9.017
     5   6 C        2.960    -0.006    28.171     8.706
     6   6 C        2.916    -0.029    28.727     8.789
     7   6 C        2.912     0.063    26.595     8.456
     8   7 N        1.837    -0.198    26.111     7.572
     9   6 C        2.942     0.061    26.623     8.462
    10   6 C        2.969    -0.075    29.866     8.964
    11   6 C        2.961    -0.046    29.137     8.854
    12   6 C        2.920     0.077    26.291     8.408
    13   7 N        2.751    -0.066    22.516     7.048
    14   6 C        2.921     0.039    27.136     8.543
    15   6 C        2.924    -0.060    29.500     8.907
    16   6 C        2.919    -0.038    28.944     8.822
    17   6 C        2.919    -0.038    28.951     8.823
    18   6 C        2.920    -0.056    29.396     8.891
    19   6 C        2.883     0.124    25.267     8.241
    20   8 O        1.708    -0.265    18.393     5.791
    21   6 C        2.883     0.124    25.271     8.241
    22   6 C        2.920    -0.056    29.401     8.892
    23   6 C        2.919    -0.039    28.967     8.826
    24   6 C        2.919    -0.038    28.938     8.821
    25   6 C        2.924    -0.059    29.478     8.904
    26   6 C        2.920     0.039    27.120     8.540
    27   6 C        2.924    -0.052    29.281     8.874
    28   6 C        2.920     0.076    26.301     8.410
    29   7 N        2.751    -0.066    22.515     7.047
    30   6 C        2.920     0.039    27.118     8.540
    31   6 C        2.924    -0.059    29.473     8.903
    32   6 C        2.919    -0.037    28.932     8.821
    33   6 C        2.919    -0.039    28.965     8.826
    34   6 C        2.920    -0.056    29.399     8.891
    35   6 C        2.883     0.124    25.276     8.242
    36   8 O        1.708    -0.265    18.395     5.791
    37   6 C        2.883     0.125    25.258     8.239
    38   6 C        2.920    -0.056    29.398     8.891
    39   6 C        2.919    -0.039    28.964     8.825
    40   6 C        2.919    -0.039    28.960     8.825
    41   6 C        2.923    -0.061    29.520     8.910
    42   6 C        2.921     0.039    27.128     8.541
    43   6 C        2.962    -0.047    29.156     8.857
    44   1 H        0.926     0.071     2.072     2.251
    45   1 H        0.926     0.078     2.002     2.213
    46   1 H        0.925     0.072     2.061     2.245
    47   1 H        0.926     0.061     2.192     2.315
    48   1 H        0.926     0.069     2.094     2.263
    49   1 H        0.926     0.033     2.538     2.491
    50   1 H        0.926     0.049     2.332     2.388
    51   1 H        0.926     0.048     2.342     2.393
    52   1 H        0.926     0.053     2.280     2.361
    53   1 H        0.926     0.052     2.289     2.366
    54   1 H        0.926     0.046     2.364     2.405
    55   1 H        0.926     0.045     2.377     2.411
    56   1 H        0.926     0.037     2.495     2.470
    57   1 H        0.926     0.075     2.036     2.231
    58   1 H        0.926     0.037     2.493     2.469
    59   1 H        0.926     0.046     2.375     2.410
    60   1 H        0.926     0.047     2.363     2.404
    61   1 H        0.926     0.052     2.289     2.366
    62   1 H        0.926     0.053     2.281     2.362
    63   1 H        0.926     0.048     2.347     2.396
    64   1 H        0.926     0.046     2.374     2.409
    65   1 H        0.926     0.033     2.545     2.495
    66   1 H        0.926     0.069     2.091     2.261

molecular dipole:
                 x           y           z       tot (Debye)
 q only:       -0.621      -0.109       2.392
   full:       -0.882      -0.053       1.975       5.499

 projected vibrational frequencies (cm⁻¹)
eigval :       -0.00    -0.00    -0.00    -0.00    -0.00     0.00
eigval :       14.42    16.71    17.66    20.69    24.46    29.18
eigval :       42.11    44.44    49.18    56.93    65.67    91.80
eigval :      110.81   113.85   131.31   135.02   142.89   161.15
eigval :      189.72   211.47   222.47   248.62   250.50   251.75
eigval :      252.47   264.43   264.72   278.10   288.13   288.97
eigval :      305.36   331.22   349.35   355.54   374.11   395.37
eigval :      397.78   404.83   417.39   425.19   427.28   429.82
eigval :      431.08   441.76   470.64   483.92   509.26   510.35
eigval :      511.18   515.51   523.21   524.39   528.31   565.46
eigval :      568.26   576.17   587.74   591.02   595.59   635.23
eigval :      644.60   655.86   659.87   660.91   661.71   663.21
eigval :      671.21   686.10   703.60   717.38   741.47   772.24
eigval :      778.87   779.84   781.48   787.92   807.07   810.53
eigval :      833.94   853.57   854.56   856.76   862.52   866.08
eigval :      869.24   889.00   894.98   896.96   900.08   900.92
eigval :      904.88   907.13   912.13   912.61   916.46   917.00
eigval :      917.78   922.37   923.30   930.73   935.89   989.98
eigval :      991.00  1026.19  1076.86  1081.18  1087.66  1089.98
eigval :     1090.95  1091.49  1103.72  1105.09  1107.39  1111.12
eigval :     1117.99  1124.99  1131.00  1157.21  1172.09  1173.17
eigval :     1175.66  1179.05  1180.46  1188.53  1193.50  1196.61
eigval :     1200.30  1202.45  1210.09  1230.30  1237.79  1239.29
eigval :     1242.51  1256.30  1259.79  1272.68  1274.99  1302.70
eigval :     1302.77  1304.18  1321.98  1331.22  1332.12  1347.54
eigval :     1355.05  1386.81  1412.14  1420.03  1422.08  1424.30
eigval :     1434.11  1442.23  1446.18  1478.67  1480.32  1498.29
eigval :     1501.50  1530.74  1548.81  1567.49  1568.24  1568.66
eigval :     1571.43  1578.69  1578.90  1588.99  1589.14  1600.69
eigval :     1601.03  3069.00  3076.04  3090.29  3092.43  3092.61
eigval :     3093.58  3093.84  3097.91  3098.03  3098.23  3099.96
eigval :     3100.72  3104.21  3104.40  3106.99  3109.36  3110.02
eigval :     3111.40  3111.53  3113.99  3114.45  3115.29  3117.10

   temp. (K)  partition function   enthalpy   heat capacity  entropy
                                   cal/mol     cal/K/mol   cal/K/mol   J/K/mol
 298.15  VIB  0.727E+16            20039.035    124.891    123.863
         ROT  0.522E+08              888.752      2.981     38.294
         INT  0.379E+24            20927.787    127.872    162.157
         TR   0.136E+29             1481.254      4.968     44.946
         TOT                       22409.0413   132.8400   207.1023   866.5162

       T/K    H(0)-H(T)+PV         H(T)/Eh          T*S/Eh         G(T)/Eh
   ------------------------------------------------------------------------
    298.15    0.357111E-01    0.518119E+00    0.984010E-01    0.419718E+00
   ------------------------------------------------------------------------

         :::::::::::::::::::::::::::::::::::::::::::::::::::::
         ::                  THERMODYNAMIC                  ::
         :::::::::::::::::::::::::::::::::::::::::::::::::::::
         :: total free energy        -114.601635807568 Eh   ::
         ::.................................................::
         :: total energy             -115.021353712308 Eh   ::
         :: zero point energy           0.482407831732 Eh   ::
         :: G(RRHO) w/o ZPVE           -0.062689926992 Eh   ::
         :: G(RRHO) contrib.            0.419717904741 Eh   ::
         :::::::::::::::::::::::::::::::::::::::::::::::::::::

           -------------------------------------------------
          | TOTAL ENERGY             -115.021353712308 Eh   |
          | TOTAL ENTHALPY           -114.503234800079 Eh   |
          | TOTAL FREE ENERGY        -114.601635807568 Eh   |
          | GRADIENT NORM               0.000039795562 Eh/α |
          | HOMO-LUMO GAP               1.682196646683 eV   |
           -------------------------------------------------

 * finished run on 2025/08/24 at 15:48:09.560
