   * xtb version 6.7.1 (edcfbbe) compiled by 'albert@albert-system' on 2024-07-22

   ID    Z sym.   atoms
    1    8 O      1, 3, 20, 36
    2   16 S      2
    3    6 C      4-7, 9-12, 14-19, 21-28, 30-35, 37-43
    4    7 N      8, 13, 29
    5    1 H      44-66

          program call               : xtb data2507/toluene/PSPBP/PSPBP.xyz --gfn 2 --gbsa toluene --ohess vtight --parallel 40 --molden --ceasefiles --namespace data2507/toluene/PSPBP/PSPBP_toluene_S0_preOpt
      * Solvation model:               GBSA
        Solvent                        toluene
        Solvent mass                       9.2140E+01 g/mol
          :  Hamiltonian                  GFN2-xTB          :
 * total energy  :  -115.0019008 Eh     change       -0.3472422E-09 Eh
 * total energy  :  -115.0128205 Eh     change       -0.1091977E-01 Eh
 * total energy  :  -115.0166164 Eh     change       -0.3795879E-02 Eh
 * total energy  :  -115.0175815 Eh     change       -0.9650909E-03 Eh
 * total energy  :  -115.0180933 Eh     change       -0.5117416E-03 Eh
 * total energy  :  -115.0182449 Eh     change       -0.1515999E-03 Eh
 * total energy  :  -115.0183067 Eh     change       -0.6183272E-04 Eh
 * total energy  :  -115.0183500 Eh     change       -0.4329169E-04 Eh
 * total energy  :  -115.0183777 Eh     change       -0.2776501E-04 Eh
 * total energy  :  -115.0184407 Eh     change       -0.6294807E-04 Eh
 * total energy  :  -115.0208088 Eh     change       -0.4381900E-06 Eh
 * total energy  :  -115.0208093 Eh     change       -0.4133815E-06 Eh
 * total energy  :  -115.0208096 Eh     change       -0.3402331E-06 Eh
 * total energy  :  -115.0208099 Eh     change       -0.2751851E-06 Eh
 * total energy  :  -115.0208101 Eh     change       -0.2413533E-06 Eh
 * total energy  :  -115.0208103 Eh     change       -0.2142485E-06 Eh
 * total energy  :  -115.0208105 Eh     change       -0.1625318E-06 Eh
 * total energy  :  -115.0208106 Eh     change       -0.1019714E-06 Eh
 * total energy  :  -115.0208107 Eh     change       -0.6340863E-07 Eh
   *** GEOMETRY OPTIMIZATION CONVERGED AFTER 121 ITERATIONS ***

 final structure:
================
66
 xtb: 6.7.1 (edcfbbe)
O           -1.84754619065814        1.77409579763689       -3.83447105772055
S           -0.60480177218350        2.10744583943661       -3.17739559720993
O            0.57763382522465        2.21827830847354       -3.99892477098067
C           -0.82630517327342        3.64519677763224       -2.27701442456206
C           -2.09840904219555        4.11358385577047       -1.99955176778184
C           -2.21727697537602        5.27920867428098       -1.25795463231100
C           -1.05202675993651        5.90157054522801       -0.82826417462628
N            0.16302792403943        5.44998719413235       -1.09860511377223
C            0.27584912619578        4.34502610859493       -1.81270871113757
C           -0.29424450556305        0.92097730998347       -1.86577503894907
C            1.00429719835203        0.72589529657251       -1.44644994216439
C            1.24888730134060       -0.14238005479985       -0.38113628845874
N            2.55938633188954       -0.35201892916546        0.07565032278345
C            3.33754289793008        0.72935417187881        0.51395208799789
C            2.82563594638042        2.01578723790609        0.63204689108813
C            3.62025857888694        3.06163199963141        1.07733607362848
C            4.93696549155238        2.83679442813476        1.42648635659540
C            5.45326070848260        1.55192394242025        1.35080589071849
C            4.66280083555124        0.50606086342472        0.90858824458259
O            5.23674958565154       -0.74223401665788        0.89694504333614
C            4.46806981239582       -1.78971325757185        0.45062627061861
C            5.07086590543445       -3.03460096128582        0.41864672954849
C            4.37486031184072       -4.13821405450093       -0.05095282677882
C            3.08139074173821       -3.98097368645787       -0.50707255345064
C            2.47288225581579       -2.73514000071826       -0.47513523921663
C            3.14324200152593       -1.62601638597488        0.02559952071382
C            0.17981783503063       -0.80004126541007        0.22325993623205
C           -1.12565468706435       -0.60032127225599       -0.22051642210690
N           -2.19162221034637       -1.27570703977213        0.39646636039734
C           -3.01403483352581       -2.13632711798733       -0.34441629131708
C           -2.78764042287799       -2.41149054633983       -1.68743818502102
C           -3.61574413703060       -3.27750460101902       -2.38592970067790
C           -4.67668108732651       -3.89319254231845       -1.75249590797624
C           -4.89741615879599       -3.65440964066378       -0.40440049651107
C           -4.07274423691828       -2.79291259175929        0.29658364233140
O           -4.33759838571282       -2.63660600051211        1.63576770974062
C           -3.52979313833125       -1.78224930906180        2.34672151844990
C           -3.82492753991713       -1.61762480702152        3.68831005959076
C           -3.07897143238771       -0.74631652871750        4.46782901014593
C           -2.05134889782518       -0.02841866953117        3.88948235228365
C           -1.75125264067050       -0.19178882742359        2.54525044917402
C           -2.46577649883516       -1.08664293037128        1.75833099923773
C           -1.36472484198537        0.28541426621627       -1.27226673152192
H           -2.95429088130349        3.57301804391344       -2.37386579769598
H           -3.18470247631028        5.69067344092323       -1.01913948360307
H           -1.08613766533773        6.80872272464998       -0.23992414731446
H            1.27726087352814        4.00441669350569       -2.03570256933425
H            1.80939688400588        1.22547538730045       -1.96057403805782
H            1.79473452696931        2.20731185541960        0.37917070646551
H            3.19530252776176        4.05061797101105        1.14928270864955
H            5.56247589746530        3.64641173428450        1.76733051550966
H            6.47090770544659        1.33594342484476        1.63564794708234
H            6.09050167158760       -3.11584458273774        0.76084100010586
H            4.85196074265300       -5.10523746080864       -0.06832603252676
H            2.53247023588607       -4.82422939862558       -0.89687615558499
H            1.46999587921183       -2.62733909773117       -0.85618337127390
H            0.36538242517447       -1.47567041199423        1.04511603620835
H           -1.95750722599016       -1.94923398817739       -2.19774432748353
H           -3.41809109258119       -3.46513839028005       -3.43001128473984
H           -5.32647257381906       -4.56391109837907       -2.29190613434891
H           -5.70472513641911       -4.13271982594954        0.12743548169568
H           -4.64798604449567       -2.17923314602409        4.10119833673757
H           -3.31405606649812       -0.62770148383377        5.51362408819507
H           -1.47392319484633        0.66906904102420        4.47624228939460
H           -0.95705992768514        0.39024236316611        2.10568400334931
H           -2.36232213090392        0.46897262444363       -1.63713136635388

          :  Hamiltonian                  GFN2-xTB          :
         :: gradient norm              0.000046035137 Eh/a0 ::
         :: HOMO-LUMO gap              1.699676110685 eV    ::
         :: SCC energy              -116.852072135146 Eh    ::
         :: -> dispersion             -0.095007454726 Eh    ::
         :: -> Gsolv                  -0.050959551535 Eh    ::
         :: repulsion energy           1.831261481478 Eh    ::

    * Orbital Energies and Occupations

         #    Occupation            Energy/Eh            Energy/eV
      -------------------------------------------------------------
         1        2.0000           -0.7894856             -21.4830
       ...           ...                  ...                  ...
        92        2.0000           -0.4360340             -11.8651
        93        2.0000           -0.4319388             -11.7537
        94        2.0000           -0.4290628             -11.6754
        95        2.0000           -0.4261615             -11.5964
        96        2.0000           -0.4214349             -11.4678
        97        2.0000           -0.4206801             -11.4473
        98        2.0000           -0.4187546             -11.3949
        99        2.0000           -0.4180549             -11.3759
       100        2.0000           -0.3966771             -10.7941
       101        2.0000           -0.3961588             -10.7800
       102        2.0000           -0.3944756             -10.7342
       103        2.0000           -0.3526679              -9.5966
       104        2.0000           -0.3508006              -9.5458 (HOMO)
       105                         -0.2883386              -7.8461 (LUMO)
       106                         -0.2762960              -7.5184
       107                         -0.2670311              -7.2663
       108                         -0.2663275              -7.2471
       109                         -0.2442950              -6.6476
       110                         -0.2435728              -6.6280
       111                         -0.2356423              -6.4122
       112                         -0.2350084              -6.3949
       113                         -0.2218524              -6.0369
       114                         -0.2199442              -5.9850
       115                         -0.2029637              -5.5229
       ...                                ...                  ...
       200                          1.1650888              31.7037
      -------------------------------------------------------------
                  HL-Gap            0.0624620 Eh            1.6997 eV

     #   Z          covCN         q      C6AA      α(0)
     1   8 O        0.860    -0.565    25.277     6.741
     2  16 S        3.814     0.955   107.961    17.488
     3   8 O        0.860    -0.569    25.377     6.754
     4   6 C        2.964    -0.088    30.200     9.014
     5   6 C        2.960    -0.006    28.170     8.706
     6   6 C        2.916    -0.029    28.730     8.790
     7   6 C        2.912     0.063    26.596     8.457
     8   7 N        1.837    -0.197    26.108     7.572
     9   6 C        2.942     0.061    26.625     8.463
    10   6 C        2.969    -0.075    29.865     8.964
    11   6 C        2.963    -0.047    29.158     8.857
    12   6 C        2.920     0.076    26.305     8.411
    13   7 N        2.750    -0.065    22.497     7.044
    14   6 C        2.921     0.038    27.139     8.543
    15   6 C        2.924    -0.060    29.497     8.907
    16   6 C        2.919    -0.038    28.946     8.823
    17   6 C        2.919    -0.038    28.946     8.823
    18   6 C        2.920    -0.056    29.394     8.891
    19   6 C        2.883     0.125    25.264     8.240
    20   8 O        1.709    -0.265    18.385     5.789
    21   6 C        2.883     0.125    25.265     8.240
    22   6 C        2.920    -0.056    29.399     8.892
    23   6 C        2.919    -0.039    28.962     8.825
    24   6 C        2.919    -0.038    28.942     8.822
    25   6 C        2.924    -0.060    29.504     8.908
    26   6 C        2.920     0.039    27.122     8.540
    27   6 C        2.924    -0.054    29.341     8.883
    28   6 C        2.920     0.075    26.314     8.412
    29   7 N        2.750    -0.065    22.503     7.045
    30   6 C        2.920     0.039    27.122     8.540
    31   6 C        2.923    -0.059    29.478     8.904
    32   6 C        2.919    -0.038    28.934     8.821
    33   6 C        2.919    -0.039    28.961     8.825
    34   6 C        2.920    -0.056    29.403     8.892
    35   6 C        2.883     0.124    25.269     8.241
    36   8 O        1.709    -0.265    18.387     5.789
    37   6 C        2.883     0.125    25.265     8.240
    38   6 C        2.920    -0.056    29.395     8.891
    39   6 C        2.919    -0.039    28.960     8.825
    40   6 C        2.919    -0.038    28.940     8.822
    41   6 C        2.924    -0.061    29.511     8.909
    42   6 C        2.920     0.039    27.131     8.542
    43   6 C        2.960    -0.047    29.167     8.858
    44   1 H        0.926     0.071     2.075     2.252
    45   1 H        0.926     0.077     2.011     2.218
    46   1 H        0.925     0.072     2.062     2.246
    47   1 H        0.926     0.060     2.194     2.316
    48   1 H        0.926     0.068     2.110     2.271
    49   1 H        0.926     0.034     2.525     2.485
    50   1 H        0.926     0.049     2.327     2.386
    51   1 H        0.926     0.048     2.341     2.393
    52   1 H        0.926     0.053     2.280     2.361
    53   1 H        0.926     0.053     2.284     2.364
    54   1 H        0.926     0.046     2.364     2.405
    55   1 H        0.926     0.045     2.387     2.416
    56   1 H        0.926     0.039     2.460     2.453
    57   1 H        0.926     0.075     2.033     2.230
    58   1 H        0.926     0.036     2.501     2.473
    59   1 H        0.926     0.043     2.409     2.427
    60   1 H        0.926     0.046     2.365     2.405
    61   1 H        0.926     0.053     2.279     2.361
    62   1 H        0.926     0.053     2.287     2.365
    63   1 H        0.926     0.047     2.359     2.402
    64   1 H        0.926     0.046     2.369     2.407
    65   1 H        0.926     0.040     2.453     2.449
    66   1 H        0.926     0.069     2.095     2.263

molecular dipole:
                 x           y           z       tot (Debye)
 q only:       -0.426       0.454       2.459
   full:       -0.719       0.335       2.051       5.590

 projected vibrational frequencies (cm⁻¹)
eigval :       -0.00    -0.00    -0.00     0.00     0.00     0.00
eigval :       10.87    12.58    17.17    17.67    21.32    30.75
eigval :       33.27    42.95    43.02    51.76    70.50    92.34
eigval :      111.27   116.30   130.36   133.18   138.36   159.23
eigval :      193.07   212.69   229.06   245.89   247.92   249.17
eigval :      255.84   259.11   272.83   276.04   284.90   290.66
eigval :      304.05   330.51   347.60   351.00   372.94   395.53
eigval :      398.48   406.32   418.81   422.70   429.57   429.96
eigval :      432.07   442.60   469.51   485.99   501.44   508.49
eigval :      509.49   516.32   520.28   523.72   534.03   564.82
eigval :      569.04   575.73   587.53   591.67   595.61   633.50
eigval :      644.51   655.34   659.43   660.46   660.71   662.72
eigval :      672.86   683.31   703.46   717.24   740.93   776.40
eigval :      778.77   779.15   779.25   780.51   806.44   811.20
eigval :      838.16   854.24   854.30   862.51   866.67   868.66
eigval :      873.00   890.70   894.39   899.23   900.32   902.87
eigval :      903.49   909.45   911.18   914.85   915.55   916.65
eigval :      917.80   921.79   922.83   926.38   926.84   990.16
eigval :      990.95  1027.64  1076.33  1080.93  1089.08  1089.62
eigval :     1090.58  1091.19  1105.89  1106.62  1107.23  1113.32
eigval :     1116.05  1124.92  1130.57  1157.26  1171.32  1172.90
eigval :     1173.95  1180.27  1181.71  1185.92  1193.75  1198.97
eigval :     1199.14  1202.07  1210.24  1229.60  1236.96  1241.84
eigval :     1242.42  1258.90  1260.10  1271.94  1275.30  1301.97
eigval :     1302.53  1306.87  1321.28  1330.51  1331.45  1346.34
eigval :     1354.53  1386.31  1411.33  1419.77  1422.32  1424.97
eigval :     1434.24  1441.42  1446.87  1478.28  1479.14  1497.80
eigval :     1500.57  1530.67  1548.73  1566.98  1567.64  1568.97
eigval :     1571.39  1578.52  1578.63  1588.27  1588.55  1600.32
eigval :     1600.48  3069.04  3076.21  3090.14  3090.28  3091.01
eigval :     3092.51  3093.09  3097.82  3098.48  3098.55  3099.09
eigval :     3099.43  3104.62  3105.56  3106.92  3107.18  3107.43
eigval :     3111.26  3111.46  3112.15  3112.25  3115.44  3115.82

   temp. (K)  partition function   enthalpy   heat capacity  entropy
                                   cal/mol     cal/K/mol   cal/K/mol   J/K/mol
 298.15  VIB  0.244E+17            20087.107    124.518    124.686
         ROT  0.532E+08              888.752      2.981     38.335
         INT  0.130E+25            20975.860    127.499    163.021
         TR   0.136E+29             1481.254      4.968     44.946
         TOT                       22457.1135   132.4671   207.9670   870.1340

       T/K    H(0)-H(T)+PV         H(T)/Eh          T*S/Eh         G(T)/Eh
   ------------------------------------------------------------------------
    298.15    0.357877E-01    0.518060E+00    0.988118E-01    0.419248E+00
   ------------------------------------------------------------------------

         :::::::::::::::::::::::::::::::::::::::::::::::::::::
         ::                  THERMODYNAMIC                  ::
         :::::::::::::::::::::::::::::::::::::::::::::::::::::
         :: total free energy        -114.601562806531 Eh   ::
         ::.................................................::
         :: total energy             -115.020810658560 Eh   ::
         :: zero point energy           0.482272001628 Eh   ::
         :: G(RRHO) w/o ZPVE           -0.063024149599 Eh   ::
         :: G(RRHO) contrib.            0.419247852029 Eh   ::
         :::::::::::::::::::::::::::::::::::::::::::::::::::::

           -------------------------------------------------
          | TOTAL ENERGY             -115.020810658560 Eh   |
          | TOTAL ENTHALPY           -114.502750968586 Eh   |
          | TOTAL FREE ENERGY        -114.601562806531 Eh   |
          | GRADIENT NORM               0.000046045809 Eh/α |
          | HOMO-LUMO GAP               1.699676770544 eV   |
           -------------------------------------------------

 * finished run on 2025/08/24 at 15:43:33.172
