   * xtb version 6.7.1 (edcfbbe) compiled by 'albert@albert-system' on 2024-07-22

   ID    Z sym.   atoms
    1    8 O      1, 3, 20, 36
    2   16 S      2
    3    6 C      4-7, 9-12, 14-19, 21-28, 30-35, 37-43
    4    7 N      8, 13, 29
    5    1 H      44-66

          program call               : xtb data2507/toluene/PSPBP/PSPBP_toluene_T1_crest.xyz --gfn 2 --uhf 2 --gbsa toluene --ohess vtight --parallel 40 --molden --ceasefiles --namespace data2507/toluene/PSPBP/PSPBP_toluene_T1_finalOpt
      * Solvation model:               GBSA
        Solvent                        toluene
        Solvent mass                       9.2140E+01 g/mol
          :  Hamiltonian                  GFN2-xTB          :
 * total energy  :  -114.9414285 Eh     change       -0.5200461E-07 Eh
 * total energy  :  -114.9417232 Eh     change       -0.2946415E-03 Eh
 * total energy  :  -114.9419300 Eh     change       -0.2068296E-03 Eh
 * total energy  :  -114.9419556 Eh     change       -0.2558335E-04 Eh
 * total energy  :  -114.9420112 Eh     change       -0.5556668E-04 Eh
 * total energy  :  -114.9420422 Eh     change       -0.3102079E-04 Eh
 * total energy  :  -114.9420993 Eh     change       -0.5706238E-04 Eh
 * total energy  :  -114.9421464 Eh     change       -0.4713012E-04 Eh
 * total energy  :  -114.9421847 Eh     change       -0.3836750E-04 Eh
 * total energy  :  -114.9422291 Eh     change       -0.4430996E-04 Eh
 * total energy  :  -114.9425094 Eh     change       -0.1183061E-05 Eh
 * total energy  :  -114.9425104 Eh     change       -0.1010688E-05 Eh
 * total energy  :  -114.9425114 Eh     change       -0.9313302E-06 Eh
 * total energy  :  -114.9425124 Eh     change       -0.9895898E-06 Eh
 * total energy  :  -114.9425134 Eh     change       -0.1068086E-05 Eh
 * total energy  :  -114.9425145 Eh     change       -0.1109532E-05 Eh
 * total energy  :  -114.9425153 Eh     change       -0.7533060E-06 Eh
 * total energy  :  -114.9425157 Eh     change       -0.3952713E-06 Eh
 * total energy  :  -114.9425157 Eh     change       -0.6836146E-08 Eh
   *** GEOMETRY OPTIMIZATION CONVERGED AFTER 44 ITERATIONS ***

 final structure:
================
66
 xtb: 6.7.1 (edcfbbe)
O           -1.10672292886175        2.75783299145977       -3.34738643329911
S            0.11543937067592        2.61130518930020       -2.57034879568727
O            1.37353305708038        2.66625645833404       -3.29900747442863
C            0.13244433349176        3.82411206328947       -1.29019479815832
C           -1.06724026627528        4.33375758762333       -0.77061741010087
C           -1.00642842247183        5.11810846502585        0.36140088037849
C            0.23540760406276        5.35414096806950        0.94691304078351
N            1.37990739612133        4.86115419498533        0.45724562544642
C            1.32235020849743        4.11781297677042       -0.62300577521699
C            0.04790727260174        1.11554343447649       -1.65672313354690
C            1.24217504361044        0.55055869964843       -1.17489252355662
C            1.19173096228383       -0.47153834260113       -0.25903806483015
N            2.39272507685539       -1.05530366650652        0.22559691765458
C            3.23348947716179       -0.33716774133079        1.05910810093294
C            2.93835752599165        0.95923104459915        1.48119878203985
C            3.80695984137942        1.64301928778183        2.30953786337300
C            4.98530673573222        1.04762341681395        2.74091591939030
C            5.28813605283970       -0.24455253354459        2.35054882701628
C            4.42175312286634       -0.93975938778862        1.52040402220981
O            4.76419768418571       -2.21585444538007        1.18164380987428
C            3.93035443325127       -2.90707279677333        0.35340017678963
C            4.29812554187267       -4.19855168275706        0.00467747454958
C            3.49990127215639       -4.93923578520394       -0.84861515826322
C            2.33952656137831       -4.38186940298074       -1.36881401563572
C            1.96570004567567       -3.09629019360824       -1.02781140711118
C            2.74181417216256       -2.34150755397175       -0.14882054447376
C           -0.03879220796866       -0.95943177499451        0.22329571329654
C           -1.22254558738223       -0.37187707533737       -0.26057211060816
N           -2.46992405143216       -0.85738264517287        0.21959950883067
C           -2.96227029234441       -2.07183907291336       -0.22493936771237
C           -2.27409057466716       -2.85914121754687       -1.14683489992425
C           -2.79050311194093       -4.07325437130697       -1.55708195397429
C           -4.00913212954175       -4.52195566059426       -1.06572194719396
C           -4.72004507011959       -3.74450838577732       -0.16869150849808
C           -4.20796538507280       -2.52595881695682        0.25153138161119
O           -4.95787732865162       -1.79273007022069        1.12431850065969
C           -4.46345400866355       -0.59326067092835        1.54644075471965
C           -5.23558553442383        0.14212435931764        2.43279130326722
C           -4.77496556922909        1.35669285907987        2.90929948057254
C           -3.53409618291428        1.83298897622456        2.50660902788847
C           -2.75958815553551        1.11088657658820        1.61912111484490
C           -3.21324899126656       -0.10685678391084        1.11298600824349
C           -1.19025504032761        0.65237084429780       -1.17493619850263
H           -1.99227621109171        4.11451493982269       -1.28167459978987
H           -1.90080181173563        5.54498545953972        0.78916793117692
H            0.33714113080741        5.95989564616891        1.83570329535382
H            2.25801477367061        3.73414121917078       -1.00844904469461
H            2.17633828564414        0.92563871070955       -1.56110914743573
H            2.02694847590214        1.42871527962352        1.14740816484844
H            3.56083901162180        2.64736805226378        2.61529533775863
H            5.66361510319016        1.58608992542852        3.38296629368815
H            6.19022173785300       -0.73713404457311        2.67636688244826
H            5.21359528803721       -4.59714677377245        0.41136727230304
H            3.78845909370671       -5.94346159353369       -1.11450209015816
H            1.72350116314710       -4.94973235818215       -2.04783613533297
H            1.07485290244962       -2.65781985770624       -1.44535848069009
H           -0.07281131914776       -1.75507217852205        0.94760789427001
H           -1.33819490341314       -2.50068844226349       -1.54214797006774
H           -2.24107918265316       -4.66969267462153       -2.26804187436448
H           -4.40992819471876       -5.47005701264051       -1.38651786141672
H           -5.67599017581837       -4.05900606304129        0.21829905417656
H           -6.18954519818776       -0.25883805676730        2.73572270790418
H           -5.37951877519003        1.92554671711919        3.59732825989819
H           -3.16453775113797        2.77176257186541        2.88760929627522
H           -1.79689250130019        1.48274487080771        1.30677220282943
H           -2.09113319567501        1.10378114402494       -1.55837413432519

          :  Hamiltonian                  GFN2-xTB          :
         :: gradient norm              0.000056826608 Eh/a0 ::
         :: HOMO-LUMO gap              0.177012495892 eV    ::
         :: SCC energy              -116.757186278423 Eh    ::
         :: -> dispersion             -0.097573455856 Eh    ::
         :: -> Gsolv                  -0.062856343287 Eh    ::
         :: repulsion energy           1.814670590303 Eh    ::

    * Orbital Energies and Occupations

         #    Occupation            Energy/Eh            Energy/eV
      -------------------------------------------------------------
         1        2.0000           -0.7572687             -20.6063
       ...           ...                  ...                  ...
        93        2.0000           -0.4325401             -11.7700
        94        2.0000           -0.4309154             -11.7258
        95        2.0000           -0.4264325             -11.6038
        96        2.0000           -0.4250510             -11.5662
        97        2.0000           -0.4152688             -11.3000
        98        2.0000           -0.4124296             -11.2228
        99        2.0000           -0.4104019             -11.1676
       100        2.0000           -0.4098025             -11.1513
       101        2.0000           -0.4008694             -10.9082
       102        1.9984           -0.3690547             -10.0425
       103        1.7155           -0.3638151              -9.8999
       104        1.2861           -0.3620699              -9.8524
       105        0.9576           -0.2673490              -7.2749 (HOMO)
       106        0.0234           -0.2608443              -7.0979 (LUMO)
       107        0.0190           -0.2606413              -7.0924
       108                         -0.2482480              -6.7552
       109                         -0.2481449              -6.7524
       110                         -0.2468096              -6.7160
       111                         -0.2456945              -6.6857
       112                         -0.2384123              -6.4875
       113                         -0.2334266              -6.3519
       114                         -0.2315286              -6.3002
       115                         -0.2162953              -5.8857
       116                         -0.2144859              -5.8365
       ...                                ...                  ...
       200                          1.1476914              31.2303
      -------------------------------------------------------------
                  HL-Gap            0.0065047 Eh            0.1770 eV

     #   Z          covCN         q      C6AA      α(0)
     1   8 O        0.860    -0.592    25.923     6.826
     2  16 S        3.834     0.864   110.656    17.705
     3   8 O        0.860    -0.595    25.989     6.835
     4   6 C        2.961    -0.105    30.649     9.081
     5   6 C        2.958    -0.028    28.708     8.788
     6   6 C        2.912    -0.041    29.010     8.832
     7   6 C        2.907     0.034    27.241     8.558
     8   7 N        1.834    -0.244    27.217     7.731
     9   6 C        2.945     0.059    26.684     8.472
    10   6 C        2.965    -0.107    30.710     9.090
    11   6 C        2.959    -0.051    29.268     8.874
    12   6 C        2.919     0.052    26.828     8.494
    13   7 N        2.753    -0.017    21.575     6.899
    14   6 C        2.925     0.045    26.983     8.519
    15   6 C        2.920    -0.047    29.174     8.857
    16   6 C        2.917    -0.028    28.689     8.783
    17   6 C        2.919    -0.027    28.683     8.782
    18   6 C        2.916    -0.050    29.253     8.869
    19   6 C        2.885     0.131    25.132     8.219
    20   8 O        1.709    -0.219    17.633     5.670
    21   6 C        2.885     0.131    25.128     8.218
    22   6 C        2.916    -0.051    29.255     8.869
    23   6 C        2.919    -0.028    28.702     8.785
    24   6 C        2.918    -0.029    28.726     8.789
    25   6 C        2.921    -0.049    29.224     8.865
    26   6 C        2.925     0.046    26.979     8.518
    27   6 C        2.917    -0.092    30.302     9.027
    28   6 C        2.920     0.053    26.819     8.492
    29   7 N        2.754    -0.019    21.621     6.906
    30   6 C        2.926     0.045    26.981     8.518
    31   6 C        2.920    -0.049    29.227     8.865
    32   6 C        2.918    -0.029    28.735     8.790
    33   6 C        2.919    -0.029    28.718     8.788
    34   6 C        2.916    -0.051    29.260     8.870
    35   6 C        2.885     0.130    25.144     8.221
    36   8 O        1.709    -0.222    17.675     5.676
    37   6 C        2.885     0.130    25.143     8.221
    38   6 C        2.916    -0.051    29.264     8.871
    39   6 C        2.919    -0.029    28.722     8.788
    40   6 C        2.918    -0.029    28.731     8.790
    41   6 C        2.920    -0.049    29.210     8.863
    42   6 C        2.926     0.045    26.985     8.519
    43   6 C        2.957    -0.052    29.283     8.876
    44   1 H        0.926     0.033     2.548     2.496
    45   1 H        0.926     0.044     2.396     2.420
    46   1 H        0.926     0.039     2.467     2.456
    47   1 H        0.925     0.029     2.600     2.522
    48   1 H        0.926     0.042     2.428     2.437
    49   1 H        0.926     0.048     2.344     2.394
    50   1 H        0.926     0.062     2.178     2.308
    51   1 H        0.926     0.064     2.156     2.296
    52   1 H        0.926     0.070     2.089     2.260
    53   1 H        0.926     0.068     2.105     2.269
    54   1 H        0.926     0.063     2.166     2.302
    55   1 H        0.926     0.061     2.185     2.312
    56   1 H        0.926     0.055     2.261     2.352
    57   1 H        0.926     0.049     2.338     2.391
    58   1 H        0.926     0.053     2.278     2.360
    59   1 H        0.926     0.060     2.195     2.317
    60   1 H        0.926     0.062     2.176     2.307
    61   1 H        0.926     0.067     2.116     2.275
    62   1 H        0.926     0.068     2.106     2.269
    63   1 H        0.926     0.062     2.178     2.308
    64   1 H        0.926     0.057     2.233     2.337
    65   1 H        0.926     0.047     2.352     2.398
    66   1 H        0.926     0.041     2.434     2.440

molecular dipole:
                 x           y           z       tot (Debye)
 q only:       -0.497      -5.097       4.318
   full:       -0.782      -4.858       3.881      15.927

 projected vibrational frequencies (cm⁻¹)
eigval :       -0.00    -0.00    -0.00     0.00     0.00     0.00
eigval :       11.54    15.27    17.18    23.65    25.55    32.09
eigval :       39.85    48.89    56.36    56.84    64.29    97.15
eigval :      107.86   111.25   126.66   136.23   137.38   161.77
eigval :      192.13   193.60   213.83   239.70   242.44   244.70
eigval :      250.23   258.94   269.08   274.89   291.71   298.12
eigval :      311.26   335.25   360.01   366.73   376.00   382.30
eigval :      397.65   398.07   412.63   417.95   425.53   427.47
eigval :      430.80   440.49   456.16   478.35   490.45   493.45
eigval :      493.78   499.03   503.14   525.19   530.05   538.17
eigval :      563.10   569.99   580.42   582.90   588.78   618.07
eigval :      630.41   642.35   654.24   655.04   665.00   666.06
eigval :      669.32   670.68   696.01   704.43   704.92   736.59
eigval :      749.16   770.21   775.16   776.80   781.50   806.86
eigval :      810.20   814.92   846.98   854.78   855.74   858.46
eigval :      859.36   866.93   867.97   872.19   893.29   899.48
eigval :      902.54   903.33   907.26   907.98   909.03   912.67
eigval :      913.33   916.13   917.53   919.43   924.69   969.42
eigval :      973.47   998.09  1043.37  1050.65  1059.81  1064.72
eigval :     1078.58  1079.98  1080.80  1092.97  1098.75  1102.53
eigval :     1113.25  1115.25  1121.22  1123.09  1161.93  1163.18
eigval :     1166.47  1169.85  1170.40  1170.79  1186.05  1187.20
eigval :     1202.52  1205.03  1208.64  1216.73  1227.92  1235.36
eigval :     1236.12  1242.75  1245.07  1252.62  1276.13  1297.16
eigval :     1304.90  1309.29  1315.88  1316.74  1319.02  1319.54
eigval :     1343.81  1345.66  1355.63  1362.62  1387.91  1397.62
eigval :     1414.26  1415.31  1429.86  1432.00  1436.26  1436.53
eigval :     1437.45  1453.83  1468.15  1501.19  1508.11  1517.73
eigval :     1543.47  1543.60  1551.61  1552.36  1555.91  1560.85
eigval :     1572.70  3054.19  3070.34  3078.83  3090.17  3099.02
eigval :     3099.65  3099.67  3101.58  3105.29  3106.00  3106.33
eigval :     3106.46  3107.02  3107.12  3112.70  3113.28  3115.14
eigval :     3115.97  3116.77  3117.69  3120.78  3122.03  3124.12

   temp. (K)  partition function   enthalpy   heat capacity  entropy
                                   cal/mol     cal/K/mol   cal/K/mol   J/K/mol
 298.15  VIB  0.908E+16            20285.288    127.092    125.430
         ROT  0.505E+08              888.752      2.981     38.232
         INT  0.459E+24            21174.040    130.073    163.662
         TR   0.136E+29             1481.254      4.968     44.946
         TOT                       22655.2938   135.0412   208.6075   872.8139

       T/K    H(0)-H(T)+PV         H(T)/Eh          T*S/Eh         G(T)/Eh
   ------------------------------------------------------------------------
    298.15    0.361035E-01    0.513400E+00    0.991162E-01    0.414284E+00
   ------------------------------------------------------------------------

         :::::::::::::::::::::::::::::::::::::::::::::::::::::
         ::                  THERMODYNAMIC                  ::
         :::::::::::::::::::::::::::::::::::::::::::::::::::::
         :: total free energy        -114.528231569780 Eh   ::
         ::.................................................::
         :: total energy             -114.942515681951 Eh   ::
         :: zero point energy           0.477296773643 Eh   ::
         :: G(RRHO) w/o ZPVE           -0.063012661472 Eh   ::
         :: G(RRHO) contrib.            0.414284112171 Eh   ::
         :::::::::::::::::::::::::::::::::::::::::::::::::::::

           -------------------------------------------------
          | TOTAL ENERGY             -114.942515681951 Eh   |
          | TOTAL ENTHALPY           -114.429115399528 Eh   |
          | TOTAL FREE ENERGY        -114.528231569780 Eh   |
          | GRADIENT NORM               0.000055498561 Eh/α |
          | HOMO-LUMO GAP               0.177003009335 eV   |
           -------------------------------------------------

 * finished run on 2025/08/24 at 15:54:04.590
