   * xtb version 6.7.1 (edcfbbe) compiled by 'albert@albert-system' on 2024-07-22

   ID    Z sym.   atoms
    1    8 O      1, 3, 20, 36
    2   16 S      2
    3    6 C      4-7, 9-12, 14-19, 21-28, 30-35, 37-43
    4    7 N      8, 13, 29
    5    1 H      44-66

          program call               : xtb data2507/toluene/PSPBP/PSPBP_toluene_S0_finalOpt.xtbopt.xyz --gfn 2 --uhf 2 --gbsa toluene --ohess vtight --parallel 40 --molden --ceasefiles --namespace data2507/toluene/PSPBP/PSPBP_toluene_T1_preOpt
      * Solvation model:               GBSA
        Solvent                        toluene
        Solvent mass                       9.2140E+01 g/mol
          :  Hamiltonian                  GFN2-xTB          :
 * total energy  :  -114.9353955 Eh     change       -0.8797855E-08 Eh
 * total energy  :  -114.9396324 Eh     change       -0.4236808E-02 Eh
 * total energy  :  -114.9411509 Eh     change       -0.1518499E-02 Eh
 * total energy  :  -114.9413630 Eh     change       -0.2121591E-03 Eh
 * total energy  :  -114.9415566 Eh     change       -0.1935491E-03 Eh
 * total energy  :  -114.9416538 Eh     change       -0.9725597E-04 Eh
 * total energy  :  -114.9417640 Eh     change       -0.1101840E-03 Eh
 * total energy  :  -114.9418883 Eh     change       -0.1243257E-03 Eh
 * total energy  :  -114.9419974 Eh     change       -0.1090492E-03 Eh
 * total energy  :  -114.9420923 Eh     change       -0.9491729E-04 Eh
 * total energy  :  -114.9424507 Eh     change       -0.2048783E-06 Eh
 * total energy  :  -114.9424509 Eh     change       -0.2237714E-06 Eh
 * total energy  :  -114.9424511 Eh     change       -0.1918493E-06 Eh
 * total energy  :  -114.9424513 Eh     change       -0.1341528E-06 Eh
 * total energy  :  -114.9424514 Eh     change       -0.1013801E-06 Eh
 * total energy  :  -114.9424515 Eh     change       -0.1151546E-06 Eh
 * total energy  :  -114.9424516 Eh     change       -0.1516477E-06 Eh
 * total energy  :  -114.9424518 Eh     change       -0.1449827E-06 Eh
 * total energy  :  -114.9424519 Eh     change       -0.8184313E-07 Eh
   *** GEOMETRY OPTIMIZATION CONVERGED AFTER 67 ITERATIONS ***

 final structure:
================
66
 xtb: 6.7.1 (edcfbbe)
O           -0.79686398313986        2.85552291942000       -3.36298168438681
S            0.39761244502736        2.59020569227418       -2.57449149841856
O            1.66222455627559        2.52495727601114       -3.29083733608240
C            0.51732437630860        3.79325974498716       -1.29059275074786
C           -0.63379406460303        4.41752082066302       -0.78636533325978
C           -0.51326991691046        5.18750033640836        0.35073982195833
C            0.73658374761144        5.29658697602477        0.95610418202594
N            1.83440984010209        4.69577826029601        0.48013850856708
C            1.72028506876158        3.96600336791120       -0.60487845152380
C            0.17748309663288        1.10634660230728       -1.66552390858865
C            1.30740473705452        0.41984527540536       -1.18614062112495
C            1.15186761245560       -0.59490071201541       -0.27405168886536
N            2.28532181107170       -1.30400414351256        0.20623376559033
C            3.19253794496794       -0.68642365763509        1.05023498900628
C            3.03576520174829        0.63127077395055        1.48021208975794
C            3.96726076466874        1.21171023527479        2.31904238996946
C            5.07144847863637        0.48974257077166        2.75340271668415
C            5.23613434201124       -0.82481481065880        2.35500322241860
C            4.30579784022848       -1.41673188744347        1.51409248816828
O            4.51100401043294       -2.72005549766262        1.16779718991826
C            3.61659974151457       -3.30968372529933        0.32426016549106
C            3.84875945892409       -4.62862642012328       -0.03779590751222
C            2.98393636165889       -5.27073734351117       -0.90599352492118
C            1.89344797713443       -4.58790067065456       -1.42785479650970
C            1.65511443070336       -3.27379669987249       -1.07421933818932
C            2.49930033309674       -2.61576409569221       -0.18039694866283
C           -0.12198386288243       -0.95414007417532        0.20851707035217
C           -1.23887726969273       -0.24509307485328       -0.27140029962195
N           -2.52873485190131       -0.59999444782057        0.21052919006006
C           -3.14309488160896       -1.75821303080188       -0.23211104723824
C           -2.54152608117786       -2.61123236822139       -1.15617074165680
C           -3.18071594926207       -3.76562531358064       -1.56585488927817
C           -4.43710189744846       -4.08828954576307       -1.07063211129695
C           -5.06176822012279       -3.24342693816317       -0.17039615153512
C           -4.42692333984826       -2.08360296290728        0.24851437753990
O           -5.09562795051196       -1.27832334626842        1.12373286200333
C           -4.47935544443701       -0.13695397775632        1.54655001348919
C           -5.16842460039328        0.67060586820584        2.43849431102148
C           -4.58333773794173        1.82931457378447        2.91740966181606
C           -3.30195015592366        2.17741725716904        2.51037636519085
C           -2.60927760919123        1.38321307142794        1.61686574687660
C           -3.18768733791708        0.22030679730551        1.10878065434637
C           -1.10165595494415        0.77252441230540       -1.18337797375516
H           -1.56791952834451        4.29265519566460       -1.31239690815077
H           -1.36751133417925        5.69908621922030        0.76747546022988
H            0.88415586977420        5.88521169862806        1.84996297630219
H            2.61956435156470        3.49371240433046       -0.97841141113023
H            2.27516786409802        0.69771606724212       -1.57179684269091
H            2.18243565744231        1.19829544432710        1.14428183092330
H            3.82856886816491        2.23450849868524        2.63120600954431
H            5.79925989943219        0.94763374443985        3.40380172649082
H            6.07723087492405       -1.41445388054946        2.68288290045671
H            4.71340679345869       -5.12656311591876        0.37064966584911
H            3.16698619694888       -6.29669703837649       -1.18223272158629
H            1.22672923492490       -5.07977611071152       -2.11816060789760
H            0.82010187676685       -2.73772087197985       -1.49343097695235
H           -0.23759889236178       -1.74491703780944        0.92973423909380
H           -1.57459400336790       -2.35085885533800       -1.55340645894093
H           -2.69745163568558       -4.41398402747128       -2.27936326229230
H           -4.93349841786307       -4.99030420624331       -1.39060226855622
H           -6.04331898314153       -3.45929173747995        0.21997023908781
H           -6.15717369714476        0.36841338879911        2.74445953490297
H           -5.12309719272687        2.45438700385785        3.61045822251412
H           -2.83656473844128        3.07169208066727        2.89333191188251
H           -1.61470055373061        1.65571207205924        1.30179881357381
H           -1.95138316832255        1.31612783011050       -1.56397660856073

          :  Hamiltonian                  GFN2-xTB          :
         :: gradient norm              0.000051324408 Eh/a0 ::
         :: HOMO-LUMO gap              0.176707293497 eV    ::
         :: SCC energy              -116.757194660989 Eh    ::
         :: -> dispersion             -0.097553931795 Eh    ::
         :: -> Gsolv                  -0.062809920476 Eh    ::
         :: repulsion energy           1.814742791105 Eh    ::

    * Orbital Energies and Occupations

         #    Occupation            Energy/Eh            Energy/eV
      -------------------------------------------------------------
         1        2.0000           -0.7572604             -20.6061
       ...           ...                  ...                  ...
        93        2.0000           -0.4325524             -11.7703
        94        2.0000           -0.4309131             -11.7257
        95        2.0000           -0.4264221             -11.6035
        96        2.0000           -0.4250481             -11.5661
        97        2.0000           -0.4152594             -11.2998
        98        2.0000           -0.4124271             -11.2227
        99        2.0000           -0.4104042             -11.1677
       100        2.0000           -0.4098427             -11.1524
       101        2.0000           -0.4008630             -10.9080
       102        1.9984           -0.3690559             -10.0425
       103        1.7187           -0.3638423              -9.9007
       104        1.2829           -0.3620679              -9.8524
       105        0.9574           -0.2673626              -7.2753 (HOMO)
       106        0.0236           -0.2608691              -7.0986 (LUMO)
       107        0.0190           -0.2606554              -7.0928
       108                         -0.2482236              -6.7545
       109                         -0.2481463              -6.7524
       110                         -0.2467923              -6.7156
       111                         -0.2456632              -6.6848
       112                         -0.2384317              -6.4881
       113                         -0.2334410              -6.3523
       114                         -0.2315785              -6.3016
       115                         -0.2163167              -5.8863
       116                         -0.2145162              -5.8373
       ...                                ...                  ...
       200                          1.1479192              31.2365
      -------------------------------------------------------------
                  HL-Gap            0.0064934 Eh            0.1767 eV

     #   Z          covCN         q      C6AA      α(0)
     1   8 O        0.860    -0.592    25.925     6.827
     2  16 S        3.834     0.864   110.654    17.705
     3   8 O        0.860    -0.595    25.986     6.835
     4   6 C        2.961    -0.105    30.649     9.081
     5   6 C        2.959    -0.028    28.708     8.788
     6   6 C        2.912    -0.041    29.010     8.832
     7   6 C        2.907     0.034    27.241     8.558
     8   7 N        1.834    -0.244    27.219     7.731
     9   6 C        2.945     0.059    26.684     8.472
    10   6 C        2.965    -0.107    30.712     9.090
    11   6 C        2.959    -0.051    29.268     8.874
    12   6 C        2.920     0.052    26.828     8.494
    13   7 N        2.753    -0.017    21.576     6.899
    14   6 C        2.925     0.045    26.982     8.518
    15   6 C        2.920    -0.047    29.176     8.858
    16   6 C        2.917    -0.028    28.690     8.783
    17   6 C        2.919    -0.027    28.683     8.782
    18   6 C        2.916    -0.050    29.253     8.869
    19   6 C        2.885     0.131    25.133     8.219
    20   8 O        1.709    -0.219    17.634     5.670
    21   6 C        2.885     0.131    25.128     8.218
    22   6 C        2.916    -0.051    29.254     8.869
    23   6 C        2.919    -0.028    28.702     8.785
    24   6 C        2.918    -0.029    28.725     8.789
    25   6 C        2.921    -0.049    29.221     8.865
    26   6 C        2.926     0.046    26.979     8.518
    27   6 C        2.917    -0.092    30.301     9.027
    28   6 C        2.920     0.053    26.819     8.492
    29   7 N        2.754    -0.019    21.619     6.906
    30   6 C        2.926     0.045    26.981     8.518
    31   6 C        2.920    -0.049    29.227     8.866
    32   6 C        2.918    -0.029    28.735     8.790
    33   6 C        2.919    -0.029    28.718     8.788
    34   6 C        2.916    -0.051    29.260     8.870
    35   6 C        2.885     0.130    25.144     8.221
    36   8 O        1.709    -0.221    17.674     5.676
    37   6 C        2.885     0.131    25.143     8.221
    38   6 C        2.916    -0.051    29.264     8.871
    39   6 C        2.919    -0.029    28.722     8.788
    40   6 C        2.918    -0.029    28.731     8.790
    41   6 C        2.920    -0.049    29.209     8.863
    42   6 C        2.926     0.045    26.985     8.519
    43   6 C        2.957    -0.052    29.284     8.876
    44   1 H        0.926     0.033     2.549     2.497
    45   1 H        0.926     0.044     2.396     2.421
    46   1 H        0.926     0.039     2.468     2.456
    47   1 H        0.925     0.029     2.601     2.522
    48   1 H        0.926     0.042     2.425     2.435
    49   1 H        0.926     0.048     2.342     2.393
    50   1 H        0.926     0.062     2.179     2.308
    51   1 H        0.926     0.064     2.157     2.297
    52   1 H        0.926     0.070     2.089     2.260
    53   1 H        0.926     0.068     2.105     2.269
    54   1 H        0.926     0.063     2.166     2.301
    55   1 H        0.926     0.061     2.186     2.312
    56   1 H        0.926     0.054     2.265     2.353
    57   1 H        0.926     0.048     2.341     2.392
    58   1 H        0.926     0.054     2.276     2.359
    59   1 H        0.926     0.060     2.195     2.317
    60   1 H        0.926     0.062     2.176     2.307
    61   1 H        0.926     0.067     2.116     2.275
    62   1 H        0.926     0.068     2.105     2.269
    63   1 H        0.926     0.062     2.178     2.308
    64   1 H        0.926     0.057     2.233     2.337
    65   1 H        0.926     0.047     2.353     2.399
    66   1 H        0.926     0.041     2.436     2.441

molecular dipole:
                 x           y           z       tot (Debye)
 q only:       -1.020      -5.039       4.299
   full:       -1.276      -4.771       3.858      15.931

 projected vibrational frequencies (cm⁻¹)
eigval :       -0.00    -0.00    -0.00     0.00     0.00     0.00
eigval :       10.06    15.68    17.54    23.30    28.09    32.83
eigval :       40.47    48.32    55.65    57.59    63.59    96.60
eigval :      107.80   110.55   125.61   135.47   137.44   161.58
eigval :      191.68   192.76   213.95   238.56   242.08   244.60
eigval :      249.14   259.00   268.81   274.82   291.76   298.05
eigval :      311.41   335.02   359.90   366.68   375.38   382.58
eigval :      397.63   398.16   412.34   417.74   425.05   427.15
eigval :      429.80   440.44   455.90   478.45   490.53   493.90
eigval :      494.50   498.73   503.21   525.45   529.93   538.45
eigval :      562.89   570.04   580.49   582.97   588.95   618.20
eigval :      630.22   642.33   654.25   654.97   665.37   666.46
eigval :      669.91   671.14   695.88   703.28   704.98   736.47
eigval :      748.16   769.75   774.89   777.12   779.49   806.69
eigval :      809.97   812.55   846.65   854.62   855.61   856.31
eigval :      858.24   866.62   867.53   869.28   891.81   898.63
eigval :      902.07   902.74   903.55   905.25   908.91   913.21
eigval :      913.54   916.91   917.40   918.77   925.68   969.33
eigval :      973.29   998.07  1043.04  1051.06  1059.05  1063.31
eigval :     1078.28  1079.34  1080.72  1092.19  1099.03  1102.49
eigval :     1113.52  1115.13  1120.20  1123.08  1161.78  1163.59
eigval :     1165.73  1170.25  1170.76  1171.59  1186.16  1187.20
eigval :     1201.98  1205.07  1208.35  1216.81  1227.89  1235.12
eigval :     1235.79  1241.54  1244.68  1252.36  1276.26  1296.76
eigval :     1305.29  1309.12  1315.94  1316.56  1319.08  1319.44
eigval :     1343.77  1345.85  1355.37  1362.43  1387.51  1395.95
eigval :     1414.27  1415.31  1429.72  1431.83  1436.53  1436.73
eigval :     1437.59  1454.10  1468.09  1501.14  1508.19  1518.21
eigval :     1543.38  1543.69  1551.58  1552.32  1555.77  1560.79
eigval :     1572.67  3054.32  3069.98  3079.06  3090.53  3099.52
eigval :     3099.79  3100.33  3101.26  3104.88  3105.88  3106.25
eigval :     3106.98  3107.05  3107.50  3111.73  3112.59  3115.99
eigval :     3116.27  3116.49  3117.17  3121.46  3121.77  3124.55

   temp. (K)  partition function   enthalpy   heat capacity  entropy
                                   cal/mol     cal/K/mol   cal/K/mol   J/K/mol
 298.15  VIB  0.937E+16            20295.254    127.169    125.588
         ROT  0.505E+08              888.752      2.981     38.231
         INT  0.473E+24            21184.006    130.149    163.819
         TR   0.136E+29             1481.254      4.968     44.946
         TOT                       22665.2601   135.1176   208.7645   873.4708

       T/K    H(0)-H(T)+PV         H(T)/Eh          T*S/Eh         G(T)/Eh
   ------------------------------------------------------------------------
    298.15    0.361194E-01    0.513334E+00    0.991908E-01    0.414143E+00
   ------------------------------------------------------------------------

         :::::::::::::::::::::::::::::::::::::::::::::::::::::
         ::                  THERMODYNAMIC                  ::
         :::::::::::::::::::::::::::::::::::::::::::::::::::::
         :: total free energy        -114.528308809777 Eh   ::
         ::.................................................::
         :: total energy             -114.942451866460 Eh   ::
         :: zero point energy           0.477214428706 Eh   ::
         :: G(RRHO) w/o ZPVE           -0.063071372023 Eh   ::
         :: G(RRHO) contrib.            0.414143056683 Eh   ::
         :::::::::::::::::::::::::::::::::::::::::::::::::::::

           -------------------------------------------------
          | TOTAL ENERGY             -114.942451866460 Eh   |
          | TOTAL ENTHALPY           -114.429118046651 Eh   |
          | TOTAL FREE ENERGY        -114.528308809777 Eh   |
          | GRADIENT NORM               0.000043348613 Eh/α |
          | HOMO-LUMO GAP               0.176694952422 eV   |
           -------------------------------------------------

 * finished run on 2025/08/24 at 15:48:17.067
