   * xtb version 6.7.1 (edcfbbe) compiled by 'albert@albert-system' on 2024-07-22

   ID    Z sym.   atoms
    1    6 C      1-9, 11-26
    2    7 N      10
    3    1 H      27-47

          program call               : xtb data2507/gas/BACH/BACH.xyz --gfn 2 --ohess vtight --parallel 40 --molden --ceasefiles --namespace data2507/gas/BACH/BACH_gas_S0_preOpt
          :  Hamiltonian                  GFN2-xTB          :
 * total energy  :   -67.1648599 Eh     change       -0.1220769E-08 Eh
 * total energy  :   -67.1782071 Eh     change       -0.1334713E-01 Eh
 * total energy  :   -67.1826094 Eh     change       -0.4402374E-02 Eh
 * total energy  :   -67.1831359 Eh     change       -0.5265182E-03 Eh
 * total energy  :   -67.1832773 Eh     change       -0.1413784E-03 Eh
 * total energy  :   -67.1833271 Eh     change       -0.4978327E-04 Eh
 * total energy  :   -67.1834011 Eh     change       -0.7397921E-04 Eh
 * total energy  :   -67.1834633 Eh     change       -0.6225900E-04 Eh
 * total energy  :   -67.1836056 Eh     change       -0.1422464E-03 Eh
 * total energy  :   -67.1836876 Eh     change       -0.8199092E-04 Eh
 * total energy  :   -67.1837888 Eh     change        0.4209942E-04 Eh
 * total energy  :   -67.1838493 Eh     change       -0.6055460E-04 Eh
 * total energy  :   -67.1838518 Eh     change       -0.2458275E-05 Eh
 * total energy  :   -67.1838530 Eh     change       -0.1231458E-05 Eh
 * total energy  :   -67.1838535 Eh     change       -0.5237425E-06 Eh
 * total energy  :   -67.1838537 Eh     change       -0.1426820E-06 Eh
 * total energy  :   -67.1838536 Eh     change        0.3496909E-07 Eh
 * total energy  :   -67.1838538 Eh     change       -0.1726374E-06 Eh
 * total energy  :   -67.1838539 Eh     change       -0.4696574E-07 Eh
   *** GEOMETRY OPTIMIZATION CONVERGED AFTER 23 ITERATIONS ***

 final structure:
================
47
 xtb: 6.7.1 (edcfbbe)
C           -1.79185589971102       -2.04210512800702       -1.29723959058417
C           -1.13782257255734       -1.50508910769408       -0.00000802212128
C           -1.79173183458728       -2.04210260638408        1.29728531117437
C            0.28474502435818       -2.03829068035434       -0.00004153138172
C            0.48786677912902       -3.41117889256393       -0.00006786649634
C            1.75731156341156       -3.95973117958007       -0.00006936524275
C            2.85792927263922       -3.12158541992356       -0.00005600324740
C            2.68190707389057       -1.75346838289237       -0.00003707598899
C            1.39896639128050       -1.19941025054616       -0.00002538641495
N            1.23089106965136        0.17391162342871        0.00000072350872
C            2.39471572783547        0.99400779345715        0.00000688741203
C            2.96743029047611        1.38603993375271        1.20347051041763
C            4.10747782387388        2.16994378579445        1.19979061439462
C            4.67783220655055        2.56198372715899        0.00001457238684
C            4.10750142150239        2.16992170001696       -1.19976544819902
C            2.96745340851752        1.38601904624717       -1.20345279981696
C           -0.02311745312309        0.76269720136893        0.00000590084110
C           -0.07394156749638        2.17699009995747        0.00001832552935
C           -1.26202077431389        2.83391154672821        0.00003673220273
C           -2.47557571682116        2.12011985968374        0.00003458646241
C           -3.70160219364261        2.81410097943259        0.00005956618002
C           -4.89185827976559        2.14637391550905        0.00005740656885
C           -4.88194665565276        0.74609710543677       -0.00000626339031
C           -3.70658847830346        0.04714213952484       -0.00005956200236
C           -2.44532409621028        0.69677570933179       -0.00000836761792
C           -1.19132852433581        0.01607416271818       -0.00000305570509
H           -2.57846693525188       -1.39108745122823       -1.66325305884261
H           -1.03455296401302       -2.10502384773953       -2.07764055226828
H           -2.20383789720856       -3.03720805740454       -1.14866977050350
H           -2.57884480790733       -1.39147258622874        1.66300150372948
H           -1.03448744516699       -2.10430077890993        2.07784861332456
H           -2.20305653904379       -3.03754792646552        1.14894287774342
H           -0.36586710265455       -4.07082046446701       -0.00009004727606
H            1.88453839448350       -5.03160843449009       -0.00008513024349
H            3.85749259794888       -3.53050483160303       -0.00006540431277
H            3.54473791952737       -1.10499030142154       -0.00003369621490
H            2.51361064153731        1.07302230089292        2.13222620236101
H            4.55197540220286        2.47451014768169        2.13562773239400
H            5.56802349909861        3.17301963403360        0.00001753817623
H            4.55201754145387        2.47446984237387       -2.13559977534169
H            2.51365166440494        1.07298355683942       -2.13221128863354
H            0.84959012563386        2.73500636889348        0.00001204242555
H           -1.28909433092330        3.91399808580517        0.00004546396948
H           -3.67532652518150        3.89493365545453        0.00007813939271
H           -5.83015220749522        2.68095077824595        0.00008330752124
H           -5.82024244940573        0.20953993628281       -0.00002368106579
H           -3.76902358863504       -1.02701430814756       -0.00015281520445

          :  Hamiltonian                  GFN2-xTB          :
         :: gradient norm              0.000041722909 Eh/a0 ::
         :: HOMO-LUMO gap              2.427405027608 eV    ::
         :: SCC energy               -68.430379852006 Eh    ::
         :: -> dispersion             -0.062529404078 Eh    ::
         :: repulsion energy           1.246525984852 Eh    ::

    * Orbital Energies and Occupations

         #    Occupation            Energy/Eh            Energy/eV
      -------------------------------------------------------------
         1        2.0000           -0.6664958             -18.1363
       ...           ...                  ...                  ...
        51        2.0000           -0.4343698             -11.8198
        52        2.0000           -0.4267041             -11.6112
        53        2.0000           -0.4246023             -11.5540
        54        2.0000           -0.4171879             -11.3523
        55        2.0000           -0.4159893             -11.3196
        56        2.0000           -0.4107886             -11.1781
        57        2.0000           -0.4095014             -11.1431
        58        2.0000           -0.4018161             -10.9340
        59        2.0000           -0.3958019             -10.7703
        60        2.0000           -0.3944921             -10.7347
        61        2.0000           -0.3897811             -10.6065
        62        2.0000           -0.3745124             -10.1910
        63        2.0000           -0.3387988              -9.2192 (HOMO)
        64                         -0.2495933              -6.7918 (LUMO)
        65                         -0.2363165              -6.4305
        66                         -0.2353186              -6.4033
        67                         -0.2210883              -6.0161
        68                         -0.2130740              -5.7980
        69                         -0.1964233              -5.3450
        70                         -0.1775697              -4.8319
        71                         -0.1306634              -3.5555
        72                         -0.1063339              -2.8935
        73                         -0.0778476              -2.1183
        74                         -0.0488274              -1.3287
       ...                                ...                  ...
       125                          0.7037322              19.1495
      -------------------------------------------------------------
                  HL-Gap            0.0892055 Eh            2.4274 eV

     #   Z          covCN         q      C6AA      α(0)
     1   6 C        3.760    -0.104    22.542     6.769
     2   6 C        3.905     0.022    20.147     6.380
     3   6 C        3.760    -0.104    22.542     6.768
     4   6 C        2.988    -0.015    28.367     8.737
     5   6 C        2.928    -0.038    28.933     8.821
     6   6 C        2.917    -0.045    29.125     8.850
     7   6 C        2.920    -0.034    28.847     8.808
     8   6 C        2.924    -0.059    29.479     8.904
     9   6 C        2.931     0.057    26.719     8.477
    10   7 N        2.756    -0.072    22.643     7.067
    11   6 C        2.929     0.071    26.403     8.427
    12   6 C        2.922    -0.037    28.923     8.819
    13   6 C        2.920    -0.028    28.694     8.784
    14   6 C        2.920    -0.030    28.759     8.794
    15   6 C        2.920    -0.028    28.694     8.784
    16   6 C        2.922    -0.037    28.923     8.819
    17   6 C        2.922     0.057    26.714     8.476
    18   6 C        2.920    -0.055    29.365     8.886
    19   6 C        2.919    -0.039    28.974     8.827
    20   6 C        2.990     0.002    27.971     8.676
    21   6 C        2.924    -0.035    28.878     8.813
    22   6 C        2.914    -0.036    28.886     8.813
    23   6 C        2.917    -0.034    28.846     8.807
    24   6 C        2.918    -0.045    29.130     8.851
    25   6 C        2.979     0.006    27.874     8.660
    26   6 C        2.969    -0.028    28.685     8.785
    27   1 H        0.925     0.044     2.401     2.423
    28   1 H        0.925     0.031     2.568     2.506
    29   1 H        0.925     0.035     2.520     2.483
    30   1 H        0.925     0.044     2.401     2.423
    31   1 H        0.925     0.031     2.568     2.506
    32   1 H        0.925     0.035     2.520     2.483
    33   1 H        0.926     0.032     2.556     2.500
    34   1 H        0.926     0.025     2.664     2.552
    35   1 H        0.926     0.025     2.657     2.549
    36   1 H        0.926     0.022     2.705     2.572
    37   1 H        0.926     0.041     2.435     2.440
    38   1 H        0.926     0.038     2.479     2.462
    39   1 H        0.926     0.037     2.492     2.469
    40   1 H        0.926     0.038     2.479     2.462
    41   1 H        0.926     0.041     2.435     2.440
    42   1 H        0.926     0.026     2.648     2.545
    43   1 H        0.926     0.029     2.606     2.524
    44   1 H        0.926     0.025     2.652     2.547
    45   1 H        0.926     0.023     2.681     2.560
    46   1 H        0.926     0.023     2.683     2.561
    47   1 H        0.926     0.044     2.397     2.421

molecular dipole:
                 x           y           z       tot (Debye)
 q only:        0.452       0.212      -0.000
   full:        0.518       0.268      -0.000       1.482

 projected vibrational frequencies (cm⁻¹)
eigval :       -0.00    -0.00    -0.00     0.00     0.00     0.00
eigval :      -91.75    20.87    41.05    49.78    62.75    73.57
eigval :       91.79   119.37   154.76   169.89   173.27   212.56
eigval :      227.53   244.36   281.93   285.65   307.31   337.85
eigval :      348.91   350.17   375.60   390.56   397.58   423.58
eigval :      444.41   476.28   479.96   500.17   507.17   537.60
eigval :      555.17   562.63   564.60   587.14   591.25   618.30
eigval :      635.80   650.49   673.82   695.34   700.39   725.33
eigval :      757.70   769.61   777.71   790.92   811.29   828.87
eigval :      855.78   863.86   876.89   886.24   900.38   907.85
eigval :      910.35   915.62   917.97   920.30   924.66   929.62
eigval :      933.43   942.60   968.00   972.93   995.75  1031.53
eigval :     1063.37  1078.39  1082.25  1099.25  1111.52  1112.98
eigval :     1141.23  1150.35  1157.42  1178.42  1180.66  1185.15
eigval :     1186.82  1193.65  1205.31  1229.56  1232.14  1249.17
eigval :     1263.14  1272.97  1273.53  1307.94  1310.64  1321.12
eigval :     1334.81  1349.46  1381.36  1393.89  1409.10  1418.13
eigval :     1429.70  1432.68  1440.68  1463.74  1473.65  1489.76
eigval :     1493.54  1498.97  1506.90  1512.11  1521.40  1556.36
eigval :     1582.61  1588.23  1594.34  1596.05  1606.26  1615.25
eigval :     3016.56  3018.36  3029.81  3033.99  3065.21  3068.04
eigval :     3068.63  3070.56  3075.03  3076.93  3079.09  3081.43
eigval :     3086.45  3087.25  3089.09  3093.27  3096.57  3098.69
eigval :     3100.22  3101.53  3134.89

   temp. (K)  partition function   enthalpy   heat capacity  entropy
                                   cal/mol     cal/K/mol   cal/K/mol   J/K/mol
 298.15  VIB  0.195E+08            11156.709     76.704     66.524
         ROT  0.103E+08              888.752      2.981     35.070
         INT  0.201E+15            12045.461     79.685    101.594
         TR   0.594E+28             1481.254      4.968     43.306
         TOT                       13526.7152    84.6531   144.8996   606.2599

       T/K    H(0)-H(T)+PV         H(T)/Eh          T*S/Eh         G(T)/Eh
   ------------------------------------------------------------------------
    298.15    0.215562E-01    0.399468E+00    0.688465E-01    0.330621E+00
   ------------------------------------------------------------------------

         :::::::::::::::::::::::::::::::::::::::::::::::::::::
         ::                  THERMODYNAMIC                  ::
         :::::::::::::::::::::::::::::::::::::::::::::::::::::
         :: total free energy         -66.853232531464 Eh   ::
         ::.................................................::
         :: total energy              -67.183853867154 Eh   ::
         :: zero point energy           0.377911616364 Eh   ::
         :: G(RRHO) w/o ZPVE           -0.047290280674 Eh   ::
         :: G(RRHO) contrib.            0.330621335690 Eh   ::
         :::::::::::::::::::::::::::::::::::::::::::::::::::::

           -------------------------------------------------
          | TOTAL ENERGY              -67.183853867154 Eh   |
          | TOTAL ENTHALPY            -66.784386058052 Eh   |
          | TOTAL FREE ENERGY         -66.853232531464 Eh   |
          | GRADIENT NORM               0.000041749293 Eh/α |
          | HOMO-LUMO GAP               2.427406242384 eV   |
           -------------------------------------------------

 * finished run on 2025/07/18 at 12:46:01.641
