   * xtb version 6.7.1 (edcfbbe) compiled by 'albert@albert-system' on 2024-07-22

   ID    Z sym.   atoms
    1    6 C      1-9, 11-26
    2    7 N      10
    3    1 H      27-47

          program call               : xtb data2507/gas/BACH/BACH_gas_T1_crest.xyz --gfn 2 --spinpol --tblite --uhf 2 --ohess vtight --parallel 40 --molden --ceasefiles --namespace data2507/gas/BACH/BACH_gas_T1_finalOpt
 * total energy  :   -67.0979618 Eh     change        0.9340596E-08 Eh
 * total energy  :   -67.0980146 Eh     change       -0.5276701E-04 Eh
 * total energy  :   -67.0980349 Eh     change       -0.2028231E-04 Eh
 * total energy  :   -67.0980369 Eh     change       -0.1993743E-05 Eh
 * total energy  :   -67.0980375 Eh     change       -0.5957119E-06 Eh
 * total energy  :   -67.0980377 Eh     change       -0.2025131E-06 Eh
 * total energy  :   -67.0980380 Eh     change       -0.3005777E-06 Eh
 * total energy  :   -67.0980383 Eh     change       -0.3122865E-06 Eh
 * total energy  :   -67.0980385 Eh     change       -0.1774695E-06 Eh
 * total energy  :   -67.0980385 Eh     change       -0.7788863E-07 Eh
   *** GEOMETRY OPTIMIZATION CONVERGED AFTER 10 ITERATIONS ***

 final structure:
================
47
 xtb: 6.7.1 (edcfbbe)
C           -1.50446109188844       -2.21106769118908       -1.46748444282464
C           -1.06512264090976       -1.73870983175042       -0.05697337353955
C           -1.82590649829288       -2.46888790450556        1.08160510145631
C            0.38875904487765       -2.14540170290666        0.03569970297916
C            0.71864824867201       -3.49262071173863        0.07007466527735
C            2.03300170353633       -3.92183886226843        0.08925907648952
C            3.05789888308718       -2.98419091016363        0.05837484487621
C            2.76222992418228       -1.64241677239505        0.02792398746803
C            1.42759949089471       -1.20256878884656        0.03041432592155
N            1.13805151911307        0.14039446549200        0.02762330878634
C            2.22483242182443        1.06176313321247       -0.01470129231404
C            2.88819343536641        1.40929355380845        1.15550093977569
C            3.94728387747591        2.29834214153090        1.10386172322855
C            4.34376892665337        2.83890739544660       -0.10798554711998
C            3.68000002495074        2.49102751294253       -1.27328717104449
C            2.61995628418242        1.60267259659114       -1.23048755743061
C           -0.13921467562101        0.64894148165993        0.08025860838093
C           -0.32410880482089        2.01363402424098        0.18520938435554
C           -1.59687509594078        2.55822803601766        0.21114211880676
C           -2.74735052213432        1.73625549039137        0.10841811467152
C           -4.01522061288000        2.30625990267219        0.10876343031646
C           -5.17758052409299        1.51478833174882        0.00657709097928
C           -5.04900065493290        0.15902372539417       -0.09583193547408
C           -3.77752742890208       -0.44222797952872       -0.09669554676046
C           -2.58949039132649        0.31515572099490        0.00779216697427
C           -1.28788545726677       -0.24842485835012        0.02561323664289
H           -2.50426160869274       -1.87023532159053       -1.71379805848854
H           -0.82001237273047       -1.80114373819896       -2.20899665115334
H           -1.47002695269320       -3.29536959686186       -1.53654053335478
H           -2.54067746493797       -1.80968862244639        1.56385477091763
H           -1.12170163754895       -2.79784395114198        1.84347780076531
H           -2.35480499112285       -3.34227230819309        0.70805147556889
H           -0.07024304996113       -4.22904774291736        0.08357281160408
H            2.25874369917474       -4.97650899351547        0.11954983594750
H            4.08876063615597       -3.30514434253035        0.05873095170853
H            3.56216251313213       -0.91878481534930        0.00170324533918
H            2.56855434534562        0.98131309343362        2.09392825429039
H            4.46268046239118        2.56963038313064        2.01293654849636
H            5.17021143859626        3.53245815271969       -0.14467465799878
H            3.98812353884010        2.91142251972895       -2.21867188082028
H            2.09254692948385        1.32585334260240       -2.13112959952544
H            0.52826489399297        2.67221295448187        0.24923970053794
H           -1.72378016667284        3.62571989044332        0.30011613315096
H           -4.10610022069906        3.37930032652824        0.19114246946895
H           -6.14865169539157        1.98717067477783        0.01047335307841
H           -5.92028950885216       -0.47488209134913       -0.17666059738808
H           -3.75301157761704       -1.51355332805344       -0.17819444292323

 projected vibrational frequencies (cm⁻¹)
eigval :       -0.00    -0.00     0.00     0.00     0.00     0.00
eigval :       13.67    30.79    48.72    63.24    66.67    96.00
eigval :      118.73   134.01   156.37   169.19   192.38   205.93
eigval :      225.57   244.96   266.18   277.93   305.88   326.32
eigval :      336.58   348.96   371.61   375.88   388.77   407.65
eigval :      437.10   456.00   475.34   492.32   502.28   506.88
eigval :      530.64   546.86   553.50   579.51   590.57   596.19
eigval :      614.27   641.38   670.90   686.65   690.82   694.70
eigval :      725.21   741.30   755.52   768.59   786.15   794.71
eigval :      808.46   840.27   843.16   850.10   859.51   873.56
eigval :      890.28   898.68   912.18   914.03   915.94   918.10
eigval :      926.34   931.77   950.41   971.45   992.15  1024.05
eigval :     1041.09  1073.00  1077.27  1086.29  1100.29  1113.05
eigval :     1113.83  1117.15  1135.19  1151.72  1176.95  1179.84
eigval :     1181.31  1184.22  1191.86  1199.07  1215.45  1228.34
eigval :     1249.32  1270.44  1273.03  1295.05  1301.67  1311.13
eigval :     1325.39  1345.19  1353.66  1365.81  1385.18  1400.09
eigval :     1411.40  1422.00  1430.99  1433.12  1449.14  1458.86
eigval :     1465.39  1472.23  1485.44  1496.62  1499.33  1503.53
eigval :     1514.45  1527.93  1550.19  1570.28  1579.36  1582.52
eigval :     3019.23  3024.16  3031.13  3035.92  3060.04  3066.05
eigval :     3067.89  3074.57  3081.93  3082.74  3085.01  3085.21
eigval :     3087.85  3088.97  3092.10  3096.59  3098.67  3098.81
eigval :     3101.73  3103.35  3143.13

   temp. (K)  partition function   enthalpy   heat capacity  entropy
                                   cal/mol     cal/K/mol   cal/K/mol   J/K/mol
 298.15  VIB  0.104E+09            11850.943     80.169     71.070
         ROT  0.103E+08              888.752      2.981     35.076
         INT  0.107E+16            12739.696     83.150    106.146
         TR   0.594E+28             1481.254      4.968     43.306
         TOT                       14220.9495    88.1183   149.4520   625.3070

       T/K    H(0)-H(T)+PV         H(T)/Eh          T*S/Eh         G(T)/Eh
   ------------------------------------------------------------------------
    298.15    0.226625E-01    0.396851E+00    0.710094E-01    0.325841E+00
   ------------------------------------------------------------------------

         :::::::::::::::::::::::::::::::::::::::::::::::::::::
         ::                  THERMODYNAMIC                  ::
         :::::::::::::::::::::::::::::::::::::::::::::::::::::
         :: total free energy         -66.772197496752 Eh   ::
         ::.................................................::
         :: total energy              -67.098038558691 Eh   ::
         :: zero point energy           0.374187982305 Eh   ::
         :: G(RRHO) w/o ZPVE           -0.048346920366 Eh   ::
         :: G(RRHO) contrib.            0.325841061938 Eh   ::
         :::::::::::::::::::::::::::::::::::::::::::::::::::::

           -------------------------------------------------
          | TOTAL ENERGY              -67.098038558691 Eh   |
          | TOTAL ENTHALPY            -66.701188050826 Eh   |
          | TOTAL FREE ENERGY         -66.772197496752 Eh   |
          | GRADIENT NORM               0.000041602614 Eh/α |
           -------------------------------------------------

 * finished run on 2025/07/18 at 12:48:58.617
