   * xtb version 6.7.1 (edcfbbe) compiled by 'albert@albert-system' on 2024-07-22

   ID    Z sym.   atoms
    1    6 C      1-9, 11-26
    2    7 N      10
    3    1 H      27-47

          program call               : xtb data2507/gas/BACH/BACH_gas_S0_crest.xyz --gfn 2 --ohess vtight --parallel 40 --molden --ceasefiles --namespace data2507/gas/BACH/BACH_gas_S0_finalOpt
          :  Hamiltonian                  GFN2-xTB          :
 * total energy  :   -67.1843437 Eh     change       -0.9384564E-09 Eh
 * total energy  :   -67.1843441 Eh     change       -0.3872123E-06 Eh
 * total energy  :   -67.1843444 Eh     change       -0.3239170E-06 Eh
 * total energy  :   -67.1843444 Eh     change       -0.1202496E-07 Eh
 * total energy  :   -67.1843446 Eh     change       -0.2163762E-06 Eh
 * total energy  :   -67.1843449 Eh     change       -0.2967486E-06 Eh
 * total energy  :   -67.1843449 Eh     change       -0.1620870E-07 Eh
 * total energy  :   -67.1843452 Eh     change       -0.2376083E-06 Eh
 * total energy  :   -67.1843454 Eh     change       -0.2537376E-06 Eh
 * total energy  :   -67.1843456 Eh     change       -0.1626522E-06 Eh
 * total energy  :   -67.1843457 Eh     change       -0.1303307E-06 Eh
 * total energy  :   -67.1843458 Eh     change       -0.1232415E-06 Eh
 * total energy  :   -67.1843460 Eh     change       -0.1096000E-06 Eh
 * total energy  :   -67.1843461 Eh     change       -0.1034996E-06 Eh
 * total energy  :   -67.1843462 Eh     change       -0.1124585E-06 Eh
 * total energy  :   -67.1843463 Eh     change       -0.1242268E-06 Eh
 * total energy  :   -67.1843464 Eh     change       -0.1159933E-06 Eh
 * total energy  :   -67.1843465 Eh     change       -0.9163492E-07 Eh
   *** GEOMETRY OPTIMIZATION CONVERGED AFTER 18 ITERATIONS ***

 final structure:
================
47
 xtb: 6.7.1 (edcfbbe)
C           -1.55115371393771       -2.25276861359081       -1.43902266619383
C           -1.06644238046575       -1.75248213859468       -0.05920953653820
C           -1.79560727868049       -2.44415751889873        1.12213393380842
C            0.39877652677436       -2.14745451598383        0.01659890209553
C            0.73150695341142       -3.49479422570473        0.04940421130674
C            2.04645780161716       -3.92108919718388        0.08191566309447
C            3.06310197721671       -2.98271751339181        0.07975994642517
C            2.75860654396409       -1.63788689729584        0.05109929209323
C            1.42911986216933       -1.20773981482427        0.02026545265411
N            1.13214813956636        0.14280667657106       -0.00545160845526
C            2.21257910100964        1.06996156909867       -0.01312392319125
C            2.77932370021797        1.48959866559761        1.18417350020942
C            3.83866801744711        2.37920854142367        1.16928156026442
C            4.33437198245128        2.85013410515370       -0.03542482659990
C            3.77027301079225        2.43069639161103       -1.22872558411902
C            2.71091755306264        1.54058491887092       -1.22121795184142
C           -0.17223858119697        0.60978956496512        0.01590466263597
C           -0.35432809228098        2.01256921212339        0.05729732884930
C           -1.59799802021897        2.55651152427455        0.07303255682148
C           -2.73941905724989        1.73306255122494        0.04736252365280
C           -4.02457653537204        2.31010152831657        0.05522714894888
C           -5.14767840163223        1.53534218413530        0.02583051914307
C           -5.00724638068056        0.14268231713597       -0.01152930952484
C           -3.77176975509190       -0.44324181205070       -0.01718985598773
C           -2.57664477157898        0.31893560911119        0.01107999397392
C           -1.26545878425239       -0.24331461014155        0.00105172135263
H           -2.55504629908745       -1.91447477629186       -1.67232486626626
H           -0.88404944180854       -1.86821977034217       -2.20958166053184
H           -1.52670958638548       -3.33879868424560       -1.48358506271979
H           -2.36967223585456       -1.72883438684803        1.70427857814740
H           -1.06921550970100       -2.89599602179620        1.79496411905580
H           -2.46389790022723       -3.22974486495604        0.77667891449912
H           -0.05632642649221       -4.23312366031646        0.05111337359523
H            2.27379565102651       -4.97602402141400        0.10547448397211
H            4.09657599238002       -3.29534696729789        0.10148659972390
H            3.55617214342338       -0.91070682667100        0.05081301644074
H            2.38422588978286        1.11432698113090        2.11672909860853
H            4.27836457890773        2.70524782942139        2.10014782068236
H            5.16147019943556        3.54413355428262       -0.04407992002755
H            4.15675775641431        2.79646268659413       -2.16838052891306
H            2.26275816604092        1.20568190659963       -2.14503853193867
H            0.51343517711077        2.65353556954230        0.07660592797967
H           -1.72515973517192        3.62896817676580        0.10394496546937
H           -4.09862192528039        3.38833371100805        0.08436179759000
H           -6.13155855392251        1.98048298318592        0.03109449909129
H           -5.89137838599651       -0.47865864812179       -0.03541643712380
H           -3.73293129635571       -1.51723218038255       -0.04117214131304

          :  Hamiltonian                  GFN2-xTB          :
         :: gradient norm              0.000017740988 Eh/a0 ::
         :: HOMO-LUMO gap              2.438897740425 eV    ::
         :: SCC energy               -68.430901505937 Eh    ::
         :: -> dispersion             -0.062527733057 Eh    ::
         :: repulsion energy           1.246555004544 Eh    ::

    * Orbital Energies and Occupations

         #    Occupation            Energy/Eh            Energy/eV
      -------------------------------------------------------------
         1        2.0000           -0.6665480             -18.1377
       ...           ...                  ...                  ...
        51        2.0000           -0.4337095             -11.8018
        52        2.0000           -0.4267082             -11.6113
        53        2.0000           -0.4245828             -11.5535
        54        2.0000           -0.4172509             -11.3540
        55        2.0000           -0.4159545             -11.3187
        56        2.0000           -0.4107396             -11.1768
        57        2.0000           -0.4100002             -11.1567
        58        2.0000           -0.4029178             -10.9640
        59        2.0000           -0.3962568             -10.7827
        60        2.0000           -0.3942570             -10.7283
        61        2.0000           -0.3895086             -10.5991
        62        2.0000           -0.3742538             -10.1840
        63        2.0000           -0.3388352              -9.2202 (HOMO)
        64                         -0.2492073              -6.7813 (LUMO)
        65                         -0.2363401              -6.4311
        66                         -0.2353299              -6.4037
        67                         -0.2210360              -6.0147
        68                         -0.2135501              -5.8110
        69                         -0.1963726              -5.3436
        70                         -0.1773693              -4.8265
        71                         -0.1305022              -3.5511
        72                         -0.1063497              -2.8939
        73                         -0.0784677              -2.1352
        74                         -0.0485729              -1.3217
       ...                                ...                  ...
       125                          0.7039549              19.1556
      -------------------------------------------------------------
                  HL-Gap            0.0896279 Eh            2.4389 eV

     #   Z          covCN         q      C6AA      α(0)
     1   6 C        3.764    -0.102    22.497     6.761
     2   6 C        3.905     0.022    20.146     6.380
     3   6 C        3.756    -0.106    22.583     6.776
     4   6 C        2.986    -0.015    28.371     8.737
     5   6 C        2.928    -0.038    28.950     8.824
     6   6 C        2.917    -0.046    29.131     8.851
     7   6 C        2.920    -0.034    28.841     8.807
     8   6 C        2.924    -0.059    29.479     8.904
     9   6 C        2.931     0.058    26.707     8.475
    10   7 N        2.756    -0.072    22.643     7.067
    11   6 C        2.929     0.071    26.404     8.427
    12   6 C        2.922    -0.037    28.921     8.819
    13   6 C        2.920    -0.028    28.696     8.785
    14   6 C        2.920    -0.030    28.759     8.794
    15   6 C        2.920    -0.028    28.693     8.784
    16   6 C        2.922    -0.037    28.924     8.819
    17   6 C        2.922     0.057    26.722     8.477
    18   6 C        2.920    -0.055    29.368     8.887
    19   6 C        2.919    -0.039    28.976     8.827
    20   6 C        2.991     0.002    27.970     8.675
    21   6 C        2.924    -0.035    28.881     8.813
    22   6 C        2.914    -0.036    28.884     8.813
    23   6 C        2.918    -0.034    28.844     8.807
    24   6 C        2.919    -0.045    29.109     8.848
    25   6 C        2.979     0.007    27.865     8.659
    26   6 C        2.969    -0.028    28.687     8.786
    27   1 H        0.925     0.043     2.415     2.430
    28   1 H        0.925     0.029     2.602     2.522
    29   1 H        0.925     0.037     2.496     2.470
    30   1 H        0.925     0.041     2.434     2.440
    31   1 H        0.925     0.036     2.502     2.474
    32   1 H        0.925     0.035     2.517     2.481
    33   1 H        0.926     0.032     2.559     2.502
    34   1 H        0.926     0.024     2.666     2.554
    35   1 H        0.926     0.025     2.655     2.548
    36   1 H        0.926     0.022     2.702     2.571
    37   1 H        0.926     0.041     2.432     2.439
    38   1 H        0.926     0.038     2.479     2.462
    39   1 H        0.926     0.037     2.492     2.469
    40   1 H        0.926     0.038     2.479     2.462
    41   1 H        0.926     0.041     2.438     2.442
    42   1 H        0.926     0.026     2.649     2.545
    43   1 H        0.926     0.029     2.607     2.525
    44   1 H        0.926     0.025     2.654     2.548
    45   1 H        0.926     0.023     2.682     2.561
    46   1 H        0.926     0.023     2.686     2.563
    47   1 H        0.926     0.043     2.408     2.427

molecular dipole:
                 x           y           z       tot (Debye)
 q only:        0.440       0.238      -0.011
   full:        0.495       0.306      -0.020       1.481

 projected vibrational frequencies (cm⁻¹)
eigval :       -0.00    -0.00     0.00     0.00     0.00     0.00
eigval :       13.45    26.75    48.42    62.97    72.32   113.13
eigval :      120.20   147.37   153.27   171.07   185.81   214.25
eigval :      229.36   244.66   276.96   280.31   308.31   345.62
eigval :      348.40   349.92   373.63   388.39   398.55   420.24
eigval :      443.28   477.04   480.10   500.11   507.03   534.54
eigval :      554.30   560.92   564.59   587.81   592.16   617.61
eigval :      636.45   650.06   673.74   693.53   700.79   725.22
eigval :      758.18   767.89   778.46   791.07   811.46   828.59
eigval :      855.42   865.49   876.56   883.16   900.45   907.62
eigval :      915.65   915.93   917.51   922.90   924.79   929.31
eigval :      933.42   936.97   968.52   973.60   995.75  1032.29
eigval :     1063.25  1078.43  1081.58  1098.98  1111.77  1113.16
eigval :     1142.10  1147.09  1157.55  1178.72  1180.68  1185.19
eigval :     1187.01  1193.14  1205.23  1230.16  1232.46  1249.13
eigval :     1261.82  1272.51  1273.13  1308.32  1310.33  1321.32
eigval :     1336.21  1349.80  1381.47  1392.97  1409.43  1417.96
eigval :     1425.46  1432.97  1440.45  1463.72  1473.55  1490.49
eigval :     1493.93  1502.48  1506.34  1512.29  1520.01  1556.02
eigval :     1582.63  1588.21  1594.41  1596.14  1606.59  1615.46
eigval :     3018.08  3021.61  3027.68  3036.00  3050.69  3065.05
eigval :     3067.98  3070.35  3075.11  3076.89  3079.08  3081.43
eigval :     3083.06  3087.13  3089.02  3093.21  3093.27  3098.60
eigval :     3099.00  3100.69  3149.08

   temp. (K)  partition function   enthalpy   heat capacity  entropy
                                   cal/mol     cal/K/mol   cal/K/mol   J/K/mol
 298.15  VIB  0.734E+08            11562.842     78.345     69.271
         ROT  0.103E+08              888.752      2.981     35.070
         INT  0.756E+15            12451.594     81.326    104.341
         TR   0.594E+28             1481.254      4.968     43.306
         TOT                       13932.8480    86.2945   147.6470   617.7551

       T/K    H(0)-H(T)+PV         H(T)/Eh          T*S/Eh         G(T)/Eh
   ------------------------------------------------------------------------
    298.15    0.222034E-01    0.400422E+00    0.701519E-01    0.330270E+00
   ------------------------------------------------------------------------

         :::::::::::::::::::::::::::::::::::::::::::::::::::::
         ::                  THERMODYNAMIC                  ::
         :::::::::::::::::::::::::::::::::::::::::::::::::::::
         :: total free energy         -66.854076652937 Eh   ::
         ::.................................................::
         :: total energy              -67.184346501392 Eh   ::
         :: zero point energy           0.378218303249 Eh   ::
         :: G(RRHO) w/o ZPVE           -0.047948454794 Eh   ::
         :: G(RRHO) contrib.            0.330269848454 Eh   ::
         :::::::::::::::::::::::::::::::::::::::::::::::::::::

           -------------------------------------------------
          | TOTAL ENERGY              -67.184346501392 Eh   |
          | TOTAL ENTHALPY            -66.783924791614 Eh   |
          | TOTAL FREE ENERGY         -66.854076652937 Eh   |
          | GRADIENT NORM               0.000017745367 Eh/α |
          | HOMO-LUMO GAP               2.438898665427 eV   |
           -------------------------------------------------

 * finished run on 2025/07/18 at 12:47:24.418
