   * xtb version 6.7.1 (edcfbbe) compiled by 'albert@albert-system' on 2024-07-22

   ID    Z sym.   atoms
    1    6 C      1-9, 11-26
    2    7 N      10
    3    1 H      27-47

          program call               : xtb data2507/gas/BACH/BACH_gas_S0_finalOpt.xtbopt.xyz --gfn 2 --spinpol --tblite --uhf 2 --ohess vtight --parallel 40 --molden --ceasefiles --namespace data2507/gas/BACH/BACH_gas_T1_preOpt
 * total energy  :   -67.0896955 Eh     change       -0.4978290E-08 Eh
 * total energy  :   -67.0962186 Eh     change       -0.6523174E-02 Eh
 * total energy  :   -67.0978534 Eh     change       -0.1634752E-02 Eh
 * total energy  :   -67.0979480 Eh     change       -0.9457976E-04 Eh
 * total energy  :   -67.0979780 Eh     change       -0.3003618E-04 Eh
 * total energy  :   -67.0979895 Eh     change       -0.1151316E-04 Eh
 * total energy  :   -67.0980000 Eh     change       -0.1049333E-04 Eh
 * total energy  :   -67.0980124 Eh     change       -0.1240690E-04 Eh
 * total energy  :   -67.0980185 Eh     change       -0.6053919E-05 Eh
 * total energy  :   -67.0980238 Eh     change       -0.5369944E-05 Eh
 * total energy  :   -67.0980304 Eh     change       -0.6013707E-06 Eh
 * total energy  :   -67.0980308 Eh     change       -0.4278993E-06 Eh
 * total energy  :   -67.0980312 Eh     change       -0.4059212E-06 Eh
 * total energy  :   -67.0980317 Eh     change       -0.4517661E-06 Eh
 * total energy  :   -67.0980321 Eh     change       -0.4040788E-06 Eh
 * total energy  :   -67.0980323 Eh     change       -0.2347167E-06 Eh
 * total energy  :   -67.0980325 Eh     change       -0.1907005E-06 Eh
 * total energy  :   -67.0980327 Eh     change       -0.2031212E-06 Eh
 * total energy  :   -67.0980328 Eh     change       -0.5121414E-07 Eh
   *** GEOMETRY OPTIMIZATION CONVERGED AFTER 22 ITERATIONS ***

 final structure:
================
47
 xtb: 6.7.1 (edcfbbe)
C           -1.54116828514432       -2.23897960218875       -1.42907599842373
C           -1.06483873957804       -1.73994375225318       -0.04024248513846
C           -1.79491855739318       -2.44926996083172        1.13200039379247
C            0.39124337100040       -2.14346490462320        0.02824223856255
C            0.72437222926230       -3.48982845927564        0.06314780225950
C            2.03979159744204       -3.91606269564835        0.08121201002485
C            3.06269833357895       -2.97594529033281        0.05712793955816
C            2.76390722053818       -1.63494914858923        0.02725690123580
C            1.42798257936158       -1.19852607422827        0.01884012422419
N            1.13693917039034        0.14369405472085        0.00752367341903
C            2.22582544316092        1.06418050517102       -0.00908331241294
C            2.79933300723841        1.47989225422624        1.18547344996687
C            3.86092370292680        2.36728170718119        1.16282468997673
C            4.34885181223070        2.83758295091907       -0.04508684891191
C            3.77497923813253        2.42099762895570       -1.23491179788213
C            2.71268264796488        1.53402393016587       -1.22111357058699
C           -0.14092390001553        0.65235262095606        0.03508247774134
C           -0.32760376756466        2.01999981833739        0.07982862600207
C           -1.60125894997969        2.56333287861562        0.09740784263436
C           -2.75113358819114        1.73551933961816        0.05612672336717
C           -4.02033777698432        2.30271897019770        0.05854052467197
C           -5.18248156325431        1.50551856771484        0.01255249730273
C           -5.05227073298180        0.14711734120447       -0.03810953004198
C           -3.77926450700989       -0.45134154789728       -0.04051264134971
C           -2.59140182651804        0.31183248959778        0.00946870680198
C           -1.28818669570256       -0.24841872744503        0.01800035374895
H           -2.54434892271791       -1.89539131299343       -1.65760100505323
H           -0.87216186707264       -1.84982250616039       -2.19540855418954
H           -1.51686785775572       -3.32463885140257       -1.47649295495588
H           -2.48467738983771       -1.77616829393218        1.63130782027968
H           -1.06928140112766       -2.77958982390505        1.87290855960098
H           -2.34636831940626       -3.32013495506025        0.78623068651661
H           -0.06276373009933       -4.22808530715212        0.08052974412085
H            2.26792410102337       -4.97024965818741        0.11004353581400
H            4.09430159355581       -3.29446894802511        0.06343578970360
H            3.56186190956356       -0.90875635865280        0.01037103406256
H            2.40838463790089        1.10640280754579        2.12012218691089
H            4.30686344085510        2.69187304591867        2.09090699493274
H            5.17696683838348        3.52999733226969       -0.05925024687986
H            4.15454319917069        2.78673675230784       -2.17705830896232
H            2.25515591356032        1.20311268550102       -2.14148118271442
H            0.52368943072195        2.68262288111945        0.10219641681651
H           -1.72906377434185        3.63371921824920        0.13593549767940
H           -4.11241329989948        3.37812793176564        0.09653401281803
H           -6.15446484365301        1.97606203152075        0.01724385242686
H           -5.92319588043368       -0.49131975265479       -0.07556994312347
H           -3.75358538660335       -1.52497459377650       -0.07876233410592

 projected vibrational frequencies (cm⁻¹)
eigval :       -0.00    -0.00     0.00     0.00     0.00     0.00
eigval :       11.33    29.62    48.46    62.90    66.46    94.32
eigval :      118.71   133.80   155.38   167.99   193.32   206.14
eigval :      225.27   244.58   266.49   277.73   306.36   325.95
eigval :      336.25   349.36   371.24   376.22   388.18   407.62
eigval :      436.80   455.69   475.84   491.90   502.47   506.19
eigval :      530.90   547.00   553.38   579.63   590.62   596.31
eigval :      614.16   641.48   671.22   686.33   690.77   694.66
eigval :      725.02   740.91   755.66   768.37   786.19   794.14
eigval :      808.88   840.49   842.20   849.65   858.93   873.54
eigval :      890.22   898.77   912.48   913.90   915.94   917.94
eigval :      926.40   932.22   949.71   971.30   992.35  1024.72
eigval :     1041.54  1072.92  1077.49  1086.22  1100.05  1113.05
eigval :     1113.62  1116.87  1135.04  1151.77  1176.89  1179.83
eigval :     1181.20  1184.15  1191.79  1198.77  1215.20  1228.45
eigval :     1248.94  1270.62  1272.76  1294.91  1302.06  1310.34
eigval :     1326.03  1345.47  1354.37  1365.98  1385.20  1400.28
eigval :     1411.39  1421.73  1431.10  1432.88  1449.53  1458.65
eigval :     1465.70  1472.59  1485.86  1496.70  1499.56  1503.53
eigval :     1514.50  1527.50  1550.23  1571.67  1581.63  1582.16
eigval :     3019.59  3023.71  3031.15  3036.47  3059.19  3064.95
eigval :     3067.76  3074.69  3081.79  3082.70  3085.24  3085.49
eigval :     3087.68  3088.64  3092.22  3096.71  3098.20  3099.09
eigval :     3101.72  3103.03  3144.44

   temp. (K)  partition function   enthalpy   heat capacity  entropy
                                   cal/mol     cal/K/mol   cal/K/mol   J/K/mol
 298.15  VIB  0.133E+09            11861.795     80.143     71.329
         ROT  0.103E+08              888.752      2.981     35.077
         INT  0.138E+16            12750.548     83.124    106.406
         TR   0.594E+28             1481.254      4.968     43.306
         TOT                       14231.8015    88.0917   149.7117   626.3938

       T/K    H(0)-H(T)+PV         H(T)/Eh          T*S/Eh         G(T)/Eh
   ------------------------------------------------------------------------
    298.15    0.226798E-01    0.396851E+00    0.711329E-01    0.325718E+00
   ------------------------------------------------------------------------

         :::::::::::::::::::::::::::::::::::::::::::::::::::::
         ::                  THERMODYNAMIC                  ::
         :::::::::::::::::::::::::::::::::::::::::::::::::::::
         :: total free energy         -66.772314614412 Eh   ::
         ::.................................................::
         :: total energy              -67.098032753504 Eh   ::
         :: zero point energy           0.374171181655 Eh   ::
         :: G(RRHO) w/o ZPVE           -0.048453042562 Eh   ::
         :: G(RRHO) contrib.            0.325718139092 Eh   ::
         :::::::::::::::::::::::::::::::::::::::::::::::::::::

           -------------------------------------------------
          | TOTAL ENERGY              -67.098032753504 Eh   |
          | TOTAL ENTHALPY            -66.701181752580 Eh   |
          | TOTAL FREE ENERGY         -66.772314614412 Eh   |
          | GRADIENT NORM               0.000076664725 Eh/α |
           -------------------------------------------------

 * finished run on 2025/07/18 at 12:47:26.900
