   * xtb version 6.7.1 (edcfbbe) compiled by 'albert@albert-system' on 2024-07-22

   ID    Z sym.   atoms
    1    6 C      1-9, 11-17, 19-33, 35, 37-42
    2    7 N      10, 18, 34, 36
    3    1 H      43-74

          program call               : xtb data2507/gas/DMAC-ND/DMAC-ND_gas_T1_crest.xyz --gfn 2 --spinpol --tblite --uhf 2 --ohess vtight --parallel 40 --molden --ceasefiles --namespace data2507/gas/DMAC-ND/DMAC-ND_gas_T1_finalOpt
 * total energy  :  -109.3985900 Eh     change       -0.1639037E-07 Eh
 * total energy  :  -109.3986115 Eh     change       -0.2147686E-04 Eh
 * total energy  :  -109.3986219 Eh     change       -0.1040964E-04 Eh
 * total energy  :  -109.3986244 Eh     change       -0.2511388E-05 Eh
 * total energy  :  -109.3986262 Eh     change       -0.1795343E-05 Eh
 * total energy  :  -109.3986283 Eh     change       -0.2042682E-05 Eh
 * total energy  :  -109.3986311 Eh     change       -0.2829014E-05 Eh
 * total energy  :  -109.3986341 Eh     change       -0.3047814E-05 Eh
 * total energy  :  -109.3986372 Eh     change       -0.3027148E-05 Eh
 * total energy  :  -109.3986404 Eh     change       -0.3262934E-05 Eh
 * total energy  :  -109.3986976 Eh     change       -0.2887930E-06 Eh
 * total energy  :  -109.3986979 Eh     change       -0.2266795E-06 Eh
 * total energy  :  -109.3986981 Eh     change       -0.2540593E-06 Eh
 * total energy  :  -109.3986984 Eh     change       -0.2695210E-06 Eh
 * total energy  :  -109.3986986 Eh     change       -0.2394462E-06 Eh
 * total energy  :  -109.3986993 Eh     change       -0.6794141E-06 Eh
 * total energy  :  -109.3986996 Eh     change       -0.2506703E-06 Eh
 * total energy  :  -109.3986995 Eh     change        0.2937598E-07 Eh
 * total energy  :  -109.3986996 Eh     change       -0.5996088E-07 Eh
   *** GEOMETRY OPTIMIZATION CONVERGED AFTER 45 ITERATIONS ***

 final structure:
================
74
 xtb: 6.7.1 (edcfbbe)
C            5.82024238190432        0.82686766037281       -1.81551906158461
C            6.03311732044350        0.91237432504228       -0.28794572766662
C            7.40802683558815        1.52906879975273       -0.03206603913813
C            4.89720051866701        1.73676426167405        0.28782432229714
C            5.03100269472416        3.06248714475979        0.66687487864139
C            3.93870369813085        3.80443132235064        1.08459740720028
C            2.68334355549173        3.22342893732666        1.11771939837325
C            2.52725310409495        1.89837917459936        0.76442852592508
C            3.62763046298182        1.14277858145455        0.36876087503339
N            3.51154600937437       -0.22230797902303        0.08425075280139
C            2.36035219876148       -0.80854879625641       -0.43936714827492
C            2.47458088457208       -1.78660529865214       -1.41836100589136
C            1.31716651922254       -2.32258459744500       -1.97217511355289
C            0.05811315103022       -1.86025533823227       -1.57129116931103
C           -1.17899476570191       -2.31859784239727       -2.05209422920198
C           -2.36277426923869       -1.78261736393665       -1.55967170987556
C           -2.29915153613003       -0.81033299318349       -0.57696464497726
N           -3.48977803193134       -0.23157445547899       -0.08977670560234
C           -3.74459517712327        1.11841232513065       -0.28986093363339
C           -2.70279628302716        1.97881875659843       -0.65358066685150
C           -2.93320521382255        3.31911795200006       -0.87205090346260
C           -4.21547363526911        3.82694276988730       -0.75074927234077
C           -5.24785213565173        2.98040474293423       -0.39270765481821
C           -5.04192267565722        1.62925967418073       -0.14711106435853
C           -6.22059034079068        0.75546135805516        0.23307436498472
C           -7.18987125639466        0.69259080950836       -0.96199127920108
C           -6.92423868361234        1.37004283682488        1.45753561466813
C           -5.78506336983154       -0.65222243304696        0.58209614614082
C           -6.71559711037558       -1.56453474383040        1.06205999411246
C           -6.35990507799095       -2.84801820992252        1.43139345512971
C           -5.03222552484732       -3.23594424231905        1.34884431147377
C           -4.09279284476941       -2.35745206671522        0.85826324859054
C           -4.45722164729424       -1.07228407252905        0.43648649474626
N           -1.12415064013457       -0.37438878196109       -0.09456525880539
C            0.02803535525053       -0.83857933359270       -0.55029320764703
N            1.15761751675157       -0.38444140223770       -0.02924882747781
C            4.61618273497527       -1.02461546471178        0.37044947936287
C            4.43275262620346       -2.33060453952020        0.82508408293840
C            5.51939733562323       -3.10453061405980        1.17385194714445
C            6.79700943986370       -2.57602076354376        1.09242498191677
C            6.98143416410350       -1.27586877554503        0.65314490301674
C            5.90621626523951       -0.48631459516602        0.27806799484245
H            5.87538950898373        1.82110177014047       -2.25397722224895
H            4.84786229128851        0.40245681918727       -2.05273806261935
H            6.58943851454811        0.20117175757297       -2.26407053252755
H            7.60559631508520        1.61173139347149        1.03432622194090
H            8.18347084328686        0.92103566982361       -0.49104689708409
H            7.46794480247126        2.51631552201773       -0.48268223419773
H            5.99572457551927        3.54195349178778        0.63104697108797
H            4.06958411931081        4.83845596190066        1.36684332212133
H            1.82303981293706        3.79874560895587        1.42507467421098
H            1.55561678979737        1.42959330851135        0.79398299969724
H            3.45006834860034       -2.09490671358688       -1.76072344354631
H            1.38166689073464       -3.08337720933963       -2.73444955211265
H           -1.19922093815144       -3.07534033629611       -2.82023583888086
H           -3.32201505326745       -2.09356314146396       -1.94343601002109
H           -1.70363042323238        1.58762770207325       -0.74664421892688
H           -2.11225856344083        3.96457596759673       -1.14565125248090
H           -4.41265956354673        4.87187859592435       -0.93636315840295
H           -6.24345936228735        3.38942879138105       -0.31209973860736
H           -7.53581097210043        1.68750880099357       -1.22942369202071
H           -6.68811451836365        0.26010769588235       -1.82568186805394
H           -8.05440051394159        0.07855732972089       -0.72351257190958
H           -6.23189505657087        1.41414888131824        2.29586963026012
H           -7.78418401014150        0.77635916280221        1.75286411534538
H           -7.27103322326683        2.37678131950878        1.24492840266732
H           -7.75106771627816       -1.27222856593304        1.14816049233685
H           -7.10968964624544       -3.53424300639678        1.79435167915898
H           -4.72986529944106       -4.22240047628447        1.66633414056854
H           -3.05712025070759       -2.65433316608315        0.80303848739277
H            3.43089037240259       -2.72300821098700        0.91339056784173
H            5.36856790169907       -4.11507946816269        1.52257070982551
H            7.65129563081425       -3.17443563568678        1.37070014469802
H            7.98520792620890       -0.88683151550154        0.59942140801882

 projected vibrational frequencies (cm⁻¹)
eigval :       -0.00    -0.00    -0.00     0.00     0.00     0.00
eigval :        6.76    10.95    17.08    30.28    41.71    52.69
eigval :       60.60    65.85    88.75    95.73   100.88   113.92
eigval :      117.51   122.05   137.98   145.97   169.94   195.70
eigval :      196.30   204.67   205.76   217.01   229.04   237.94
eigval :      259.45   266.78   274.24   285.01   297.27   302.58
eigval :      312.96   326.67   338.97   345.45   349.23   365.20
eigval :      372.39   382.19   386.36   403.82   407.94   411.81
eigval :      415.91   442.03   451.54   457.17   468.64   483.78
eigval :      498.04   507.19   510.34   526.25   528.45   538.42
eigval :      545.12   551.22   553.36   574.27   577.43   584.28
eigval :      585.63   594.20   618.45   624.76   650.74   659.65
eigval :      686.06   687.47   689.09   700.81   708.54   714.86
eigval :      725.22   731.51   755.00   774.34   776.18   778.41
eigval :      779.46   786.62   814.12   824.60   829.20   832.32
eigval :      841.85   849.59   866.11   873.52   874.65   875.33
eigval :      906.61   907.75   911.35   912.47   912.74   914.39
eigval :      921.41   921.98   923.16   924.97   938.07   938.54
eigval :      957.09   964.93   977.07  1007.85  1012.94  1027.74
eigval :     1074.52  1076.26  1087.61  1093.34  1101.48  1104.28
eigval :     1109.59  1110.30  1117.39  1123.89  1137.99  1138.91
eigval :     1149.24  1155.93  1170.21  1171.47  1181.86  1184.71
eigval :     1186.22  1189.33  1196.98  1199.67  1218.64  1235.25
eigval :     1243.02  1244.99  1255.93  1257.62  1272.51  1273.81
eigval :     1280.39  1285.81  1294.08  1298.25  1303.62  1311.14
eigval :     1317.93  1319.29  1325.42  1329.26  1331.98  1334.90
eigval :     1349.09  1390.74  1395.85  1400.27  1409.65  1411.33
eigval :     1418.05  1428.83  1431.86  1433.49  1436.82  1453.76
eigval :     1462.02  1463.90  1473.95  1480.56  1486.86  1488.38
eigval :     1491.46  1492.83  1497.53  1500.00  1501.57  1505.24
eigval :     1515.21  1525.83  1562.28  1566.69  1575.86  1576.14
eigval :     1581.58  1583.51  1593.78  1594.18  3024.01  3027.08
eigval :     3027.85  3031.53  3032.85  3035.52  3038.19  3043.89
eigval :     3045.52  3046.38  3047.90  3058.34  3078.41  3080.12
eigval :     3080.71  3080.91  3081.86  3083.93  3084.32  3087.20
eigval :     3087.65  3088.48  3092.91  3093.23  3095.24  3096.76
eigval :     3097.17  3097.57  3104.16  3110.91  3111.99  3123.14

   temp. (K)  partition function   enthalpy   heat capacity  entropy
                                   cal/mol     cal/K/mol   cal/K/mol   J/K/mol
 298.15  VIB  0.861E+15            20324.271    132.623    124.308
         ROT  0.530E+08              888.752      2.981     38.327
         INT  0.457E+23            21213.024    135.604    162.636
         TR   0.123E+29             1481.254      4.968     44.750
         TOT                       22694.2776   140.5720   207.3858   867.7022

       T/K    H(0)-H(T)+PV         H(T)/Eh          T*S/Eh         G(T)/Eh
   ------------------------------------------------------------------------
    298.15    0.361656E-01    0.622215E+00    0.985357E-01    0.523679E+00
   ------------------------------------------------------------------------

         :::::::::::::::::::::::::::::::::::::::::::::::::::::
         ::                  THERMODYNAMIC                  ::
         :::::::::::::::::::::::::::::::::::::::::::::::::::::
         :: total free energy        -108.875020096265 Eh   ::
         ::.................................................::
         :: total energy             -109.398699578126 Eh   ::
         :: zero point energy           0.586049530246 Eh   ::
         :: G(RRHO) w/o ZPVE           -0.062370048386 Eh   ::
         :: G(RRHO) contrib.            0.523679481860 Eh   ::
         :::::::::::::::::::::::::::::::::::::::::::::::::::::

           -------------------------------------------------
          | TOTAL ENERGY             -109.398699578126 Eh   |
          | TOTAL ENTHALPY           -108.776484414446 Eh   |
          | TOTAL FREE ENERGY        -108.875020096265 Eh   |
          | GRADIENT NORM               0.000089808613 Eh/α |
           -------------------------------------------------

 * finished run on 2025/09/07 at 22:35:15.929
