   * xtb version 6.7.1 (edcfbbe) compiled by 'albert@albert-system' on 2024-07-22

   ID    Z sym.   atoms
    1    6 C      1-9, 11-17, 19-33, 35, 37-42
    2    7 N      10, 18, 34, 36
    3    1 H      43-74

          program call               : xtb data2507/gas/DMAC-ND/DMAC-ND_gas_S0_finalOpt.xtbopt.xyz --gfn 2 --spinpol --tblite --uhf 2 --ohess vtight --parallel 40 --molden --ceasefiles --namespace data2507/gas/DMAC-ND/DMAC-ND_gas_T1_preOpt
 * total energy  :  -109.3912452 Eh     change       -0.2975767E-08 Eh
 * total energy  :  -109.3953703 Eh     change       -0.4125010E-02 Eh
 * total energy  :  -109.3969537 Eh     change       -0.1583462E-02 Eh
 * total energy  :  -109.3971883 Eh     change       -0.2346100E-03 Eh
 * total energy  :  -109.3973587 Eh     change       -0.1704175E-03 Eh
 * total energy  :  -109.3974147 Eh     change       -0.5591848E-04 Eh
 * total energy  :  -109.3974702 Eh     change       -0.5558424E-04 Eh
 * total energy  :  -109.3975212 Eh     change       -0.5095984E-04 Eh
 * total energy  :  -109.3975717 Eh     change       -0.5045849E-04 Eh
 * total energy  :  -109.3976271 Eh     change       -0.5541594E-04 Eh
 * total energy  :  -109.3986221 Eh     change       -0.2865345E-05 Eh
 * total energy  :  -109.3986249 Eh     change       -0.2764417E-05 Eh
 * total energy  :  -109.3986275 Eh     change       -0.2638046E-05 Eh
 * total energy  :  -109.3986300 Eh     change       -0.2496227E-05 Eh
 * total energy  :  -109.3986323 Eh     change       -0.2310196E-05 Eh
 * total energy  :  -109.3986345 Eh     change       -0.2185828E-05 Eh
 * total energy  :  -109.3986365 Eh     change       -0.1954397E-05 Eh
 * total energy  :  -109.3986384 Eh     change       -0.1888647E-05 Eh
 * total energy  :  -109.3986384 Eh     change       -0.6523791E-08 Eh
   *** GEOMETRY OPTIMIZATION CONVERGED AFTER 152 ITERATIONS ***

 final structure:
================
74
 xtb: 6.7.1 (edcfbbe)
C            7.35707846887214       -1.05343283273059        1.37789294927177
C            5.98202310414027       -0.43677398147919        1.12315617914898
C            5.69131739788654        0.57507644714382        2.25309752578320
C            5.90834722158043        0.30063453616880       -0.19729293136574
C            7.01402100866246        0.69358155653971       -0.93423325879390
C            6.87360015550631        1.42249520903175       -2.10308251339120
C            5.61044541522545        1.75806379690267       -2.56159972798751
C            4.49510463952412        1.36229140758579       -1.85389348135466
C            4.63370173938638        0.64329500951656       -0.66674284960546
N            3.50431052282942        0.18914939306436        0.01772394742278
C            2.34356680195967        0.95932682492800        0.01097856910872
C            2.42185891624682        2.34330711579827        0.08549687715630
C            1.24829044409027        3.08738992830405        0.06668349776118
C            0.00032974185483        2.45075661882339        0.01186002114433
C           -1.25222652850415        3.07889262869943       -0.03229658085872
C           -2.42031887369273        2.32663722345582       -0.06552920654649
C           -2.33176052087566        0.94210181523130       -0.01582144486647
N           -3.48596345941857        0.16283929496428       -0.03836167465116
C           -4.62337676402529        0.59871838649038        0.64499320717051
C           -4.49838193567329        1.30041345280400        1.84388280783157
C           -5.62160335302344        1.67751076763923        2.54937467278049
C           -6.87899890195571        1.34008553385380        2.07663272347320
C           -7.00584618572265        0.62796022571061        0.89594718382448
C           -5.89209507859731        0.25409821162266        0.16124183980197
C           -5.95068681679426       -0.46441859855565       -1.17034483161792
C           -5.65765252723137        0.56534859943879       -2.28333256065430
C           -7.31966110104381       -1.08608149201345       -1.44486688684013
C           -4.82620395969396       -1.48239307011891       -1.17449495580348
C           -4.94652705546268       -2.75467672916586       -1.70876419341776
C           -3.85938378367685       -3.60957449282669       -1.78168255713483
C           -2.62225085906771       -3.19077159465285       -1.32491218707492
C           -2.48273920501455       -1.93618736849043       -0.76698174199658
C           -3.57777712515656       -1.08251659192868       -0.67107027929440
N           -1.13322071350370        0.33851766432780        0.02145645305359
C            0.00573458279469        1.00600717488311       -0.00123462949672
N            1.14953223833650        0.34742044330300       -0.03653638828481
C            3.60915344946695       -1.06331019143603        0.63374508433014
C            2.51998544359300       -1.92475409005629        0.72785215419421
C            2.67173616293805       -3.18569323830595        1.26790462783803
C            3.91515604828673       -3.60282151939293        1.70892123119576
C            4.99642614999770       -2.74027976900411        1.63850898163199
C            4.86403850249806       -1.46187047582501        1.12202335463927
H            7.37476172621434       -1.54667142544524        2.34629538258578
H            8.11788076210618       -0.27727035074145        1.40025376099813
H            7.60942801857558       -1.77627865658677        0.60528974072766
H            4.71725610061078        1.03984408458950        2.12309439804505
H            5.70291352364648        0.06873896099987        3.21604934864181
H            6.44913544436030        1.35608046814549        2.25701285445487
H            8.00686395505708        0.44083033504214       -0.59932550086728
H            7.75032119931907        1.72574239599830       -2.65504739827180
H            5.49359054287978        2.31676053861647       -3.47798106148398
H            3.50591744837411        1.59420520569215       -2.21906865000648
H            3.38418430578473        2.82533068970018        0.15694116873588
H            1.28606894311865        4.16488693529432        0.10513000130386
H           -1.29801941359268        4.15660885943466       -0.05137138833536
H           -3.38600556625416        2.80296397562317       -0.12908174104004
H           -3.51350085526294        1.53370710742604        2.21969356733250
H           -5.51534052487682        2.22300922404106        3.47495490656067
H           -7.76179594301432        1.62876323080562        2.62672916070809
H           -7.99441209661425        0.37324007351420        0.55004668631684
H           -6.42057471405602        1.34137864974305       -2.28222799217164
H           -4.68777141492681        1.03457768521057       -2.13895376902432
H           -5.65826404944264        0.07275707923631       -3.25345830232747
H           -7.57341532438531       -1.82162828056109       -0.68480944576394
H           -7.32646840429714       -1.56537368912772       -2.42039004663494
H           -8.08526521204188       -0.31451445125320       -1.46208455122743
H           -5.89602312254618       -3.09528235514049       -2.08862829374561
H           -3.97904987912225       -4.59410401884388       -2.20857394901527
H           -1.76510867342677       -3.84356691040160       -1.39358273555158
H           -1.52603576011172       -1.59765566764522       -0.39926139695202
H            1.55827516989876       -1.58732463488173        0.37229398948586
H            1.81914548619288       -3.84456524363566        1.33516758947150
H            4.04432276040380       -4.59208407292307        2.12186756253938
H            5.95103011513298       -3.07996881252987        2.00619018455866

 projected vibrational frequencies (cm⁻¹)
eigval :       -0.00    -0.00    -0.00    -0.00    -0.00     0.00
eigval :        7.38     9.76    28.23    30.65    44.32    61.65
eigval :       62.29    69.24    96.52    96.63    99.10   115.66
eigval :      122.86   128.03   151.52   168.42   172.15   192.78
eigval :      203.99   204.92   205.02   239.12   250.75   253.46
eigval :      269.58   276.34   276.65   280.18   296.95   303.60
eigval :      311.11   313.68   336.02   351.27   363.26   367.18
eigval :      375.96   390.70   403.35   406.32   411.08   413.33
eigval :      415.98   424.14   441.31   441.84   468.13   481.36
eigval :      484.55   498.64   503.08   523.11   525.71   543.67
eigval :      548.17   552.45   554.09   565.78   575.26   578.02
eigval :      582.36   587.20   613.70   615.96   648.36   660.12
eigval :      673.96   686.73   686.84   707.64   713.55   715.34
eigval :      723.18   730.79   745.70   771.83   772.15   776.19
eigval :      777.77   784.83   813.60   813.67   828.95   829.45
eigval :      833.11   846.40   868.47   870.53   876.49   876.77
eigval :      905.39   905.78   906.95   907.19   911.69   912.23
eigval :      921.58   921.96   923.67   923.83   938.96   939.16
eigval :      964.75   966.16   978.38  1008.22  1008.39  1025.42
eigval :     1074.30  1074.38  1086.28  1090.51  1100.47  1101.12
eigval :     1103.51  1108.72  1110.23  1124.68  1137.20  1138.19
eigval :     1149.44  1149.85  1167.61  1171.83  1181.05  1181.87
eigval :     1188.94  1189.10  1196.25  1200.10  1218.43  1233.31
eigval :     1234.59  1254.20  1256.09  1270.58  1271.88  1272.89
eigval :     1274.10  1276.91  1283.29  1294.95  1307.73  1308.04
eigval :     1316.01  1320.62  1326.17  1326.94  1331.67  1331.84
eigval :     1353.89  1396.17  1396.44  1396.81  1412.33  1412.53
eigval :     1413.47  1431.41  1432.71  1435.64  1436.84  1452.44
eigval :     1452.92  1463.36  1470.71  1476.49  1492.32  1492.58
eigval :     1493.07  1494.12  1499.03  1506.33  1506.47  1507.84
eigval :     1526.32  1526.51  1565.60  1565.80  1574.24  1575.00
eigval :     1580.91  1581.15  1592.39  1593.49  3024.45  3024.79
eigval :     3028.11  3028.19  3031.55  3031.63  3035.21  3035.24
eigval :     3045.26  3045.47  3047.85  3048.04  3073.98  3078.03
eigval :     3079.79  3080.79  3080.84  3080.98  3082.05  3084.23
eigval :     3088.16  3088.35  3092.19  3092.82  3094.95  3095.81
eigval :     3097.09  3097.71  3110.92  3111.07  3112.00  3112.33

   temp. (K)  partition function   enthalpy   heat capacity  entropy
                                   cal/mol     cal/K/mol   cal/K/mol   J/K/mol
 298.15  VIB  0.266E+15            20190.983    133.105    122.610
         ROT  0.260E+08              888.752      2.981     36.910
         INT  0.692E+22            21079.736    136.086    159.520
         TR   0.123E+29             1481.254      4.968     44.750
         TOT                       22560.9897   141.0543   204.2702   854.6667

       T/K    H(0)-H(T)+PV         H(T)/Eh          T*S/Eh         G(T)/Eh
   ------------------------------------------------------------------------
    298.15    0.359532E-01    0.621877E+00    0.970554E-01    0.524822E+00
   ------------------------------------------------------------------------

         :::::::::::::::::::::::::::::::::::::::::::::::::::::
         ::                  THERMODYNAMIC                  ::
         :::::::::::::::::::::::::::::::::::::::::::::::::::::
         :: total free energy        -108.873816820025 Eh   ::
         ::.................................................::
         :: total energy             -109.398638365265 Eh   ::
         :: zero point energy           0.585923703521 Eh   ::
         :: G(RRHO) w/o ZPVE           -0.061102158281 Eh   ::
         :: G(RRHO) contrib.            0.524821545240 Eh   ::
         :::::::::::::::::::::::::::::::::::::::::::::::::::::

           -------------------------------------------------
          | TOTAL ENERGY             -109.398638365265 Eh   |
          | TOTAL ENTHALPY           -108.776761436065 Eh   |
          | TOTAL FREE ENERGY        -108.873816820025 Eh   |
          | GRADIENT NORM               0.000071167338 Eh/α |
           -------------------------------------------------

 * finished run on 2025/09/07 at 22:30:06.205
