   * xtb version 6.7.1 (edcfbbe) compiled by 'albert@albert-system' on 2024-07-22

   ID    Z sym.   atoms
    1    6 C      1-9, 11-17, 19-33, 35, 37-42
    2    7 N      10, 18, 34, 36
    3    1 H      43-74

          program call               : xtb data2507/gas/DMAC-ND/DMAC-ND.xyz --gfn 2 --ohess vtight --parallel 40 --molden --ceasefiles --namespace data2507/gas/DMAC-ND/DMAC-ND_gas_S0_preOpt
          :  Hamiltonian                  GFN2-xTB          :
 * total energy  :  -109.4255805 Eh     change       -0.3292129E-08 Eh
 * total energy  :  -109.4453813 Eh     change       -0.1980074E-01 Eh
 * total energy  :  -109.4527913 Eh     change       -0.7410019E-02 Eh
 * total energy  :  -109.4545382 Eh     change       -0.1746909E-02 Eh
 * total energy  :  -109.4557582 Eh     change       -0.1219980E-02 Eh
 * total energy  :  -109.4562848 Eh     change       -0.5266169E-03 Eh
 * total energy  :  -109.4566079 Eh     change       -0.3230677E-03 Eh
 * total energy  :  -109.4568744 Eh     change       -0.2665429E-03 Eh
 * total energy  :  -109.4571036 Eh     change       -0.2292282E-03 Eh
 * total energy  :  -109.4573586 Eh     change       -0.2549860E-03 Eh
 * total energy  :  -109.4725741 Eh     change       -0.6774687E-06 Eh
 * total energy  :  -109.4725747 Eh     change       -0.6685127E-06 Eh
 * total energy  :  -109.4725754 Eh     change       -0.6656987E-06 Eh
 * total energy  :  -109.4725761 Eh     change       -0.6586371E-06 Eh
 * total energy  :  -109.4725767 Eh     change       -0.6554560E-06 Eh
 * total energy  :  -109.4725774 Eh     change       -0.6497102E-06 Eh
 * total energy  :  -109.4725780 Eh     change       -0.6469241E-06 Eh
 * total energy  :  -109.4725787 Eh     change       -0.6399291E-06 Eh
 * total energy  :  -109.4725787 Eh     change       -0.6513858E-08 Eh
   *** GEOMETRY OPTIMIZATION CONVERGED AFTER 500 ITERATIONS ***

 final structure:
================
74
 xtb: 6.7.1 (edcfbbe)
C            7.12834416441801       -1.62893929692929        0.33970734434587
C            5.77338979628274       -0.92657115854072        0.42131984261672
C            5.27524547686211       -1.01250792912487        1.87920318890290
C            5.85318242322370        0.53396007587984        0.02739474797997
C            7.03108956894053        1.25462022228137       -0.09575447256604
C            7.01329442672438        2.59915558549540       -0.42544729706082
C            5.80941117561815        3.24126630631059       -0.65768881071458
C            4.62610581121762        2.53666604479825       -0.56032153431404
C            4.64149070288817        1.19183517872348       -0.20208637619186
N            3.44765712264298        0.45483504146806       -0.16205186506385
C            2.29213286239607        1.00724384999484        0.34547759142500
C            2.39437499658167        2.01886113599348        1.34273937402657
C            1.25077468547214        2.54517261181254        1.86668407641820
C            0.00043208839644        2.08388549462705        1.41281542939977
C           -1.24980053473269        2.54589518417534        1.86625151645342
C           -2.39352233299914        2.02024547931035        1.34190626071867
C           -2.29151750407623        1.00852730829505        0.34472431372347
N           -3.44721263911237        0.45682362339704       -0.16320823992805
C           -3.53775949861010       -0.84280884558259       -0.70381386332134
C           -2.51903757285935       -1.39750155066856       -1.46821139597137
C           -2.67081337595448       -2.66251734668866       -2.00497390553435
C           -3.84405792265390       -3.36549447349236       -1.80587680442022
C           -4.86154793816497       -2.80953879056691       -1.04914556018609
C           -4.72429435508487       -1.55396822723475       -0.47904304554789
C           -5.77439697925246       -0.92265829451481        0.41898960237115
C           -5.27722509454038       -1.00875881654259        1.87719520114510
C           -7.12985507303577       -1.62396854951139        0.33664323735377
C           -5.85279185991114        0.53787611382368        0.02480032975322
C           -7.03005409240564        1.25945070299815       -0.09915896714188
C           -7.01099965634926        2.60392742679058       -0.42901889275108
C           -5.80646792003972        3.24505516377193       -0.66061056657771
C           -4.62377990071046        2.53953221026431       -0.56243662334199
C           -4.64044009430183        1.19475791037795       -0.20403896978683
N           -1.13358558508282        0.53872937943316       -0.06084209019882
C            0.00030356161266        1.04639733602053        0.43854198970522
N            1.13406764002994        0.53813581626693       -0.06051801563373
C            3.53750858672832       -0.84477725138015       -0.70282996544703
C            2.51882232883746       -1.39851378496522       -1.46796431369480
C            2.66992920473106       -2.66355157146675       -2.00486525469006
C            3.84249227439494       -3.36749499036848       -1.80516579956967
C            4.85995816376396       -2.81248444989825       -1.04770787138360
C            4.72334400055087       -1.55690968120403       -0.47746193298124
H            7.03469984370553       -2.66495314658150        0.65491302597661
H            7.83824871200299       -1.15180101295471        1.01103573222874
H            7.52264157544268       -1.59976647979223       -0.67359229086876
H            4.30384645887854       -0.53883462352217        1.99417266810194
H            5.18297350265358       -2.05484003740032        2.17696317734038
H            5.98173670224131       -0.51861495726468        2.54377723224089
H            7.98187772029011        0.77486164501542        0.07056213304730
H            7.94220228386261        3.14326272733461       -0.50692945874222
H            5.79147181530722        4.28586597796259       -0.93003993766123
H            3.68276780517742        3.01911584436842       -0.77033627843833
H            3.36467399285407        2.33488272899933        1.69277141034252
H            1.28979716485820        3.30560899172471        2.63551033214145
H           -1.28864968692451        3.30636443114394        2.63505399957417
H           -3.36376508061173        2.33685817169354        1.69156197670399
H           -1.61196860570488       -0.83977691207782       -1.61934990837694
H           -1.87212788661497       -3.09094136528907       -2.59155648818430
H           -3.97223155528474       -4.34879876722667       -2.23383544335388
H           -5.76596085789789       -3.37733633089584       -0.90205728021113
H           -5.18596945067474       -2.05111537028143        2.17518272251466
H           -4.30551975552789       -0.53584051278136        1.99268560590024
H           -5.98373331164754       -0.51419295853931        2.54125075689153
H           -7.52348814844208       -1.59465737638159       -0.67691077050174
H           -7.83980675566486       -1.14615487523133        1.00744078342262
H           -7.03722983501344       -2.66000186695985        0.65208588232838
H           -7.98132115764396        0.78046479200214        0.06664405976381
H           -7.93942825130006        3.14875636267826       -0.51113844477899
H           -5.78753712302032        4.28960477674648       -0.93308697711053
H           -3.67993755152597        3.02121405360835       -0.77194691492683
H            1.61229132638515       -0.84004216695572       -1.61956709494620
H            1.87127244090815       -3.09123545177801       -2.59202658104413
H            3.97014974984124       -4.35082357955942       -2.23322292762204
H            5.76383278659806       -3.38102190521730       -0.90016831419560

          :  Hamiltonian                  GFN2-xTB          :
         :: gradient norm              0.000064460250 Eh/a0 ::
         :: HOMO-LUMO gap              2.098596857432 eV    ::
         :: SCC energy              -111.409761644062 Eh    ::
         :: -> dispersion             -0.104570246264 Eh    ::
         :: repulsion energy           1.937182987141 Eh    ::

    * Orbital Energies and Occupations

         #    Occupation            Energy/Eh            Energy/eV
      -------------------------------------------------------------
         1        2.0000           -0.6673282             -18.1589
       ...           ...                  ...                  ...
        90        2.0000           -0.4096311             -11.1466
        91        2.0000           -0.4066010             -11.0642
        92        2.0000           -0.4033227             -10.9750
        93        2.0000           -0.3990973             -10.8600
        94        2.0000           -0.3985433             -10.8449
        95        2.0000           -0.3955984             -10.7648
        96        2.0000           -0.3954763             -10.7615
        97        2.0000           -0.3897154             -10.6047
        98        2.0000           -0.3894493             -10.5975
        99        2.0000           -0.3721219             -10.1260
       100        2.0000           -0.3590562              -9.7704
       101        2.0000           -0.3509125              -9.5488
       102        2.0000           -0.3462838              -9.4229 (HOMO)
       103                         -0.2691618              -7.3243 (LUMO)
       104                         -0.2369235              -6.4470
       105                         -0.2240851              -6.0977
       106                         -0.2239213              -6.0932
       107                         -0.2205545              -6.0016
       108                         -0.2184989              -5.9457
       109                         -0.2114077              -5.7527
       110                         -0.2113659              -5.7516
       111                         -0.2071175              -5.6360
       112                         -0.2069592              -5.6316
       113                         -0.1900098              -5.1704
       ...                                ...                  ...
       200                          0.6888833              18.7455
      -------------------------------------------------------------
                  HL-Gap            0.0771220 Eh            2.0986 eV

     #   Z          covCN         q      C6AA      α(0)
     1   6 C        3.759    -0.106    22.575     6.774
     2   6 C        3.911     0.022    20.144     6.379
     3   6 C        3.763    -0.098    22.423     6.750
     4   6 C        2.987    -0.007    28.187     8.709
     5   6 C        2.923    -0.039    28.958     8.825
     6   6 C        2.919    -0.039    28.964     8.825
     7   6 C        2.919    -0.033    28.827     8.805
     8   6 C        2.921    -0.047    29.158     8.855
     9   6 C        2.946     0.056    26.733     8.480
    10   7 N        2.759    -0.062    22.434     7.035
    11   6 C        2.894     0.154    24.661     8.142
    12   6 C        2.915    -0.065    29.623     8.925
    13   6 C        2.919    -0.023    28.567     8.765
    14   6 C        2.984    -0.029    28.727     8.792
    15   6 C        2.919    -0.023    28.567     8.765
    16   6 C        2.915    -0.065    29.623     8.925
    17   6 C        2.894     0.154    24.661     8.142
    18   7 N        2.759    -0.062    22.434     7.035
    19   6 C        2.938     0.059    26.678     8.471
    20   6 C        2.919    -0.049    29.224     8.865
    21   6 C        2.921    -0.031    28.781     8.798
    22   6 C        2.918    -0.039    28.967     8.826
    23   6 C        2.923    -0.041    29.008     8.832
    24   6 C        2.987    -0.010    28.260     8.720
    25   6 C        3.911     0.022    20.144     6.379
    26   6 C        3.763    -0.098    22.423     6.750
    27   6 C        3.759    -0.106    22.575     6.774
    28   6 C        2.987    -0.007    28.187     8.709
    29   6 C        2.923    -0.039    28.958     8.825
    30   6 C        2.919    -0.039    28.964     8.825
    31   6 C        2.919    -0.033    28.827     8.805
    32   6 C        2.921    -0.047    29.158     8.855
    33   6 C        2.946     0.056    26.733     8.480
    34   7 N        1.858    -0.275    27.997     7.843
    35   6 C        2.943     0.171    24.319     8.088
    36   7 N        1.858    -0.275    27.997     7.843
    37   6 C        2.938     0.059    26.678     8.471
    38   6 C        2.919    -0.049    29.223     8.865
    39   6 C        2.921    -0.031    28.780     8.798
    40   6 C        2.918    -0.039    28.967     8.826
    41   6 C        2.923    -0.041    29.008     8.832
    42   6 C        2.987    -0.010    28.260     8.720
    43   1 H        0.925     0.041     2.439     2.442
    44   1 H        0.925     0.039     2.461     2.453
    45   1 H        0.925     0.038     2.471     2.458
    46   1 H        0.925     0.035     2.517     2.481
    47   1 H        0.925     0.039     2.463     2.454
    48   1 H        0.925     0.036     2.500     2.473
    49   1 H        0.926     0.039     2.464     2.454
    50   1 H        0.926     0.031     2.566     2.505
    51   1 H        0.926     0.033     2.549     2.497
    52   1 H        0.926     0.032     2.552     2.498
    53   1 H        0.926     0.033     2.544     2.494
    54   1 H        0.925     0.030     2.592     2.517
    55   1 H        0.925     0.030     2.591     2.517
    56   1 H        0.926     0.033     2.544     2.494
    57   1 H        0.926     0.077     2.012     2.218
    58   1 H        0.926     0.034     2.530     2.487
    59   1 H        0.926     0.029     2.605     2.524
    60   1 H        0.926     0.035     2.514     2.480
    61   1 H        0.925     0.039     2.463     2.454
    62   1 H        0.925     0.035     2.517     2.481
    63   1 H        0.925     0.036     2.500     2.473
    64   1 H        0.925     0.038     2.471     2.458
    65   1 H        0.925     0.039     2.461     2.453
    66   1 H        0.925     0.041     2.439     2.442
    67   1 H        0.926     0.039     2.464     2.454
    68   1 H        0.926     0.031     2.566     2.505
    69   1 H        0.926     0.033     2.549     2.497
    70   1 H        0.926     0.032     2.552     2.498
    71   1 H        0.926     0.077     2.012     2.218
    72   1 H        0.926     0.034     2.529     2.487
    73   1 H        0.926     0.029     2.605     2.524
    74   1 H        0.926     0.035     2.514     2.480

molecular dipole:
                 x           y           z       tot (Debye)
 q only:        0.000      -0.194       0.254
   full:        0.000       0.489       0.877       2.551

 projected vibrational frequencies (cm⁻¹)
eigval :       -0.00    -0.00     0.00     0.00     0.00     0.00
eigval :        9.40    11.49    28.38    34.50    55.86    59.83
eigval :       65.31    72.31    91.02   103.26   105.05   118.90
eigval :      128.13   137.53   149.36   171.18   176.99   199.52
eigval :      199.89   203.53   231.93   239.53   252.56   264.27
eigval :      274.22   281.51   283.72   284.83   306.99   311.69
eigval :      313.80   327.07   338.76   347.84   361.95   365.17
eigval :      381.19   394.50   409.44   410.59   411.04   413.58
eigval :      422.50   432.99   444.32   446.42   467.35   486.83
eigval :      488.53   501.73   505.58   537.27   538.85   555.75
eigval :      556.41   569.99   572.41   577.57   578.30   590.47
eigval :      596.48   618.37   627.96   650.23   656.79   667.79
eigval :      690.99   690.99   709.86   719.07   720.00   729.34
eigval :      741.84   774.46   775.78   781.77   782.60   797.20
eigval :      812.83   813.17   815.55   835.72   844.77   869.11
eigval :      873.19   880.54   881.38   889.42   906.96   907.21
eigval :      909.60   909.71   914.30   916.39   917.24   920.45
eigval :      923.46   924.37   928.20   928.60   942.14   942.23
eigval :      966.08   966.65   987.73  1009.48  1009.49  1033.25
eigval :     1073.16  1073.59  1086.85  1089.61  1102.74  1103.44
eigval :     1110.51  1110.79  1137.91  1138.36  1142.10  1151.61
eigval :     1152.34  1162.62  1173.07  1175.47  1182.78  1184.46
eigval :     1190.66  1191.05  1201.73  1201.92  1234.60  1235.54
eigval :     1240.06  1257.69  1258.20  1272.29  1273.30  1273.99
eigval :     1274.23  1284.07  1298.47  1305.45  1310.83  1324.82
eigval :     1325.36  1329.31  1329.59  1333.62  1363.35  1370.63
eigval :     1397.65  1397.78  1414.30  1414.31  1429.59  1437.02
eigval :     1439.64  1440.28  1444.22  1446.46  1456.56  1460.27
eigval :     1479.40  1481.76  1483.65  1493.88  1494.03  1495.90
eigval :     1496.29  1507.99  1508.03  1525.94  1525.95  1527.32
eigval :     1567.59  1577.20  1577.98  1585.73  1586.04  1589.17
eigval :     1589.20  1596.75  1599.80  1602.46  3022.60  3022.64
eigval :     3029.18  3029.24  3030.52  3030.58  3035.18  3035.20
eigval :     3046.23  3046.31  3048.79  3048.80  3050.76  3054.38
eigval :     3077.09  3077.43  3078.41  3078.46  3084.49  3084.57
eigval :     3089.86  3090.60  3094.23  3094.42  3095.12  3095.69
eigval :     3109.66  3109.77  3111.64  3111.75  3144.67  3146.32

   temp. (K)  partition function   enthalpy   heat capacity  entropy
                                   cal/mol     cal/K/mol   cal/K/mol   J/K/mol
 298.15  VIB  0.733E+14            19812.750    131.392    119.868
         ROT  0.508E+08              888.752      2.981     38.243
         INT  0.372E+22            20701.503    134.373    158.111
         TR   0.123E+29             1481.254      4.968     44.750
         TOT                       22182.7564   139.3410   202.8613   848.7719

       T/K    H(0)-H(T)+PV         H(T)/Eh          T*S/Eh         G(T)/Eh
   ------------------------------------------------------------------------
    298.15    0.353505E-01    0.625666E+00    0.963860E-01    0.529280E+00
   ------------------------------------------------------------------------

         :::::::::::::::::::::::::::::::::::::::::::::::::::::
         ::                  THERMODYNAMIC                  ::
         :::::::::::::::::::::::::::::::::::::::::::::::::::::
         :: total free energy        -108.943298490068 Eh   ::
         ::.................................................::
         :: total energy             -109.472578656917 Eh   ::
         :: zero point energy           0.590315665354 Eh   ::
         :: G(RRHO) w/o ZPVE           -0.061035498505 Eh   ::
         :: G(RRHO) contrib.            0.529280166848 Eh   ::
         :::::::::::::::::::::::::::::::::::::::::::::::::::::

           -------------------------------------------------
          | TOTAL ENERGY             -109.472578656917 Eh   |
          | TOTAL ENTHALPY           -108.846912519008 Eh   |
          | TOTAL FREE ENERGY        -108.943298490068 Eh   |
          | GRADIENT NORM               0.000064460558 Eh/α |
          | HOMO-LUMO GAP               2.098596855758 eV   |
           -------------------------------------------------

 * finished run on 2025/09/07 at 22:26:24.791
