   * xtb version 6.7.1 (edcfbbe) compiled by 'albert@albert-system' on 2024-07-22

   ID    Z sym.   atoms
    1    6 C      1-9, 11-17, 19-33, 35, 37-42
    2    7 N      10, 18, 34, 36
    3    1 H      43-74

          program call               : xtb data2507/gas/DMAC-ND/DMAC-ND_gas_S0_crest.xyz --gfn 2 --ohess vtight --parallel 40 --molden --ceasefiles --namespace data2507/gas/DMAC-ND/DMAC-ND_gas_S0_finalOpt
          :  Hamiltonian                  GFN2-xTB          :
 * total energy  :  -109.4728164 Eh     change       -0.3588070E-08 Eh
 * total energy  :  -109.4728182 Eh     change       -0.1828775E-05 Eh
 * total energy  :  -109.4728208 Eh     change       -0.2610174E-05 Eh
 * total energy  :  -109.4728243 Eh     change       -0.3417264E-05 Eh
 * total energy  :  -109.4728280 Eh     change       -0.3744729E-05 Eh
 * total energy  :  -109.4728314 Eh     change       -0.3428380E-05 Eh
 * total energy  :  -109.4728347 Eh     change       -0.3268808E-05 Eh
 * total energy  :  -109.4728386 Eh     change       -0.3863586E-05 Eh
 * total energy  :  -109.4728434 Eh     change       -0.4854631E-05 Eh
 * total energy  :  -109.4728486 Eh     change       -0.5139890E-05 Eh
 * total energy  :  -109.4729001 Eh     change       -0.2616589E-06 Eh
 * total energy  :  -109.4729003 Eh     change       -0.1867787E-06 Eh
 * total energy  :  -109.4729005 Eh     change       -0.1873742E-06 Eh
 * total energy  :  -109.4729007 Eh     change       -0.2096153E-06 Eh
 * total energy  :  -109.4729009 Eh     change       -0.2356529E-06 Eh
 * total energy  :  -109.4729012 Eh     change       -0.2501989E-06 Eh
 * total energy  :  -109.4729014 Eh     change       -0.2547294E-06 Eh
 * total energy  :  -109.4729017 Eh     change       -0.2607507E-06 Eh
 * total energy  :  -109.4729017 Eh     change       -0.1936044E-08 Eh
   *** GEOMETRY OPTIMIZATION CONVERGED AFTER 44 ITERATIONS ***

 final structure:
================
74
 xtb: 6.7.1 (edcfbbe)
C            7.09461524802561       -1.06262231140348        1.48773068447713
C            5.74424921512210       -0.46852178102500        1.08852355855229
C            5.24226908240427        0.40808201989886        2.25478317911465
C            5.83423569941833        0.39116687860345       -0.15598858300867
C            7.01707993747108        0.85238903491473       -0.71271663914166
C            7.00801303443600        1.66031262936124       -1.83707541146614
C            5.80869516440228        2.00305341389406       -2.43681543643575
C            4.62017871465199        1.53835436426719       -1.90933483571968
C            4.62698970824266        0.75086675095100       -0.76214006421060
N            3.42966356091143        0.22430614918546       -0.25255007522759
C            2.28218273194776        0.98054806867415       -0.18003302492426
C            2.38378010170871        2.40015615728378       -0.12748914810846
C            1.24150143613760        3.13761689577425       -0.02046984674550
C           -0.00543673153335        2.48730428828847        0.04217425838482
C           -1.25641733714733        3.12842846910966        0.11728973034699
C           -2.39500987200008        2.38230357895153        0.20178746044234
C           -2.28522011137891        0.96253177404164        0.22128259563251
N           -3.42549416131178        0.19448065262479        0.26501856643972
C           -4.64491248167135        0.70316212369369        0.73957259654815
C           -4.68667757424270        1.47488625378621        1.89655356597150
C           -5.89779752025859        1.92257183003823        2.38626165676870
C           -7.07130718025962        1.57817714065690        1.73841029374866
C           -7.03242274340127        0.78470065041965        0.60441692701558
C           -5.82610497826936        0.34047598965250        0.08555446406269
C           -5.68383704388847       -0.50363163555561       -1.16493260582175
C           -5.14851122895715        0.39081863710712       -2.30243422748917
C           -7.01353873668551       -1.10487318503240       -1.61907224787931
C           -4.63446142925876       -1.55662010142566       -0.85154356531600
C           -4.74001066517617       -2.88391534125793       -1.23569463228285
C           -3.72408732885231       -3.78603733709175       -0.96870510492279
C           -2.58745200793181       -3.36816207596435       -0.30220903321745
C           -2.46796279355866       -2.05430348572850        0.11161973796171
C           -3.48243701871629       -1.14784543105117       -0.16771021260150
N           -1.12799376187131        0.34802347648788        0.11875133855964
C           -0.00129839163287        1.06382768682179        0.02596525420592
N            1.12960728547408        0.35678583772192       -0.08551073390070
C            3.51315913931298       -1.12154709592910        0.16367348472566
C            2.49641341581002       -2.03441847318337       -0.08569845392024
C            2.64270782642605       -3.35122824487568        0.30978128542725
C            3.80739002175200       -3.76601385723958        0.92795191108005
C            4.82447505870676       -2.85725406765751        1.16642356657442
C            4.69316590555343       -1.52708021837915        0.80071034744511
H            6.99258412379947       -1.65115356010857        2.39587958640758
H            7.80593276687367       -0.26752972395831        1.69796970225486
H            7.49196559408456       -1.69507248018540        0.69702828310948
H            4.27444024532137        0.84906790517459        2.03148170174927
H            5.14150419998939       -0.19641995767595        3.15370960075108
H            5.95124998039564        1.21076667644433        2.44905019070931
H            7.96466809222067        0.59033237299561       -0.27081463521209
H            7.94059650030839        2.01603815523693       -2.24859936438320
H            5.79828413198771        2.61888699520163       -3.32358111096519
H            3.67999384800570        1.77244440746148       -2.38679130522775
H            3.35249690246727        2.87440294838214       -0.14038214322486
H            1.28103968455946        4.21773948999416        0.03257225351236
H           -1.30218432430138        4.20925873499208        0.08975878038254
H           -3.36611461284633        2.85125011387289        0.22019363141159
H           -3.76663985038124        1.71006912395633        2.41124177201554
H           -5.92527485198436        2.52659036938397        3.28075112894044
H           -8.02134652588052        1.92107021835127        2.11980250811144
H           -7.96096683971042        0.52055833377541        0.12493026551231
H           -5.85628879508908        1.19091503063517       -2.51122424676245
H           -4.19214446711242        0.83574756325821       -2.04091043293008
H           -5.01257051781665       -0.20183598024192       -3.20460335420445
H           -7.43334385304546       -1.74962311102176       -0.85020760174419
H           -6.87334211184460       -1.68233683512302       -2.52923499136855
H           -7.72405697771989       -0.31377147136073       -1.84634807316074
H           -5.61686724224784       -3.23132426560496       -1.75770655647967
H           -3.82554999906875       -4.81376325422653       -1.28497268751878
H           -1.79305282351389       -4.06751774143708       -0.08921799745513
H           -1.58885340062704       -1.72046937714289        0.63367750427835
H            1.59528125584012       -1.70277481116113       -0.57037598002440
H            1.84663046077388       -4.05529993360787        0.11972701765705
H            3.92987222978621       -4.79607380217895        1.22882301536397
H            5.72322656606202       -3.20192183559396        1.65172066912325

          :  Hamiltonian                  GFN2-xTB          :
         :: gradient norm              0.000033131432 Eh/a0 ::
         :: HOMO-LUMO gap              2.113503408640 eV    ::
         :: SCC energy              -111.410391224195 Eh    ::
         :: -> dispersion             -0.104644046938 Eh    ::
         :: repulsion energy           1.937489531277 Eh    ::

    * Orbital Energies and Occupations

         #    Occupation            Energy/Eh            Energy/eV
      -------------------------------------------------------------
         1        2.0000           -0.6669920             -18.1498
       ...           ...                  ...                  ...
        90        2.0000           -0.4097862             -11.1508
        91        2.0000           -0.4060183             -11.0483
        92        2.0000           -0.4019820             -10.9385
        93        2.0000           -0.3992846             -10.8651
        94        2.0000           -0.3981510             -10.8342
        95        2.0000           -0.3955115             -10.7624
        96        2.0000           -0.3952743             -10.7560
        97        2.0000           -0.3899525             -10.6111
        98        2.0000           -0.3895964             -10.6015
        99        2.0000           -0.3704092             -10.0793
       100        2.0000           -0.3595666              -9.7843
       101        2.0000           -0.3495981              -9.5130
       102        2.0000           -0.3449736              -9.3872 (HOMO)
       103                         -0.2673037              -7.2737 (LUMO)
       104                         -0.2355131              -6.4086
       105                         -0.2244134              -6.1066
       106                         -0.2240540              -6.0968
       107                         -0.2207112              -6.0059
       108                         -0.2179524              -5.9308
       109                         -0.2116313              -5.7588
       110                         -0.2113124              -5.7501
       111                         -0.2077595              -5.6534
       112                         -0.2062985              -5.6137
       113                         -0.1888249              -5.1382
       ...                                ...                  ...
       200                          0.6905141              18.7898
      -------------------------------------------------------------
                  HL-Gap            0.0776698 Eh            2.1135 eV

     #   Z          covCN         q      C6AA      α(0)
     1   6 C        3.759    -0.106    22.575     6.774
     2   6 C        3.911     0.022    20.143     6.379
     3   6 C        3.763    -0.098    22.421     6.750
     4   6 C        2.987    -0.007    28.184     8.708
     5   6 C        2.923    -0.038    28.957     8.825
     6   6 C        2.919    -0.039    28.960     8.825
     7   6 C        2.919    -0.033    28.829     8.805
     8   6 C        2.921    -0.046    29.154     8.854
     9   6 C        2.946     0.056    26.735     8.480
    10   7 N        2.760    -0.061    22.428     7.034
    11   6 C        2.893     0.154    24.667     8.143
    12   6 C        2.914    -0.067    29.661     8.931
    13   6 C        2.919    -0.023    28.568     8.765
    14   6 C        2.984    -0.031    28.757     8.797
    15   6 C        2.919    -0.023    28.567     8.765
    16   6 C        2.914    -0.067    29.669     8.932
    17   6 C        2.893     0.154    24.667     8.143
    18   7 N        2.760    -0.061    22.424     7.033
    19   6 C        2.946     0.056    26.737     8.481
    20   6 C        2.921    -0.046    29.153     8.854
    21   6 C        2.919    -0.033    28.830     8.805
    22   6 C        2.919    -0.039    28.957     8.824
    23   6 C        2.923    -0.038    28.956     8.824
    24   6 C        2.987    -0.007    28.181     8.708
    25   6 C        3.911     0.022    20.143     6.379
    26   6 C        3.763    -0.098    22.420     6.749
    27   6 C        3.759    -0.106    22.576     6.774
    28   6 C        2.987    -0.009    28.246     8.718
    29   6 C        2.923    -0.040    29.006     8.832
    30   6 C        2.918    -0.038    28.956     8.824
    31   6 C        2.921    -0.031    28.779     8.797
    32   6 C        2.919    -0.046    29.138     8.852
    33   6 C        2.941     0.060    26.663     8.469
    34   7 N        1.859    -0.278    28.062     7.852
    35   6 C        2.942     0.171    24.317     8.088
    36   7 N        1.859    -0.277    28.049     7.850
    37   6 C        2.940     0.059    26.666     8.469
    38   6 C        2.919    -0.047    29.165     8.856
    39   6 C        2.921    -0.031    28.781     8.798
    40   6 C        2.918    -0.039    28.961     8.825
    41   6 C        2.923    -0.041    29.008     8.832
    42   6 C        2.987    -0.010    28.251     8.719
    43   1 H        0.925     0.041     2.438     2.442
    44   1 H        0.925     0.039     2.461     2.453
    45   1 H        0.925     0.038     2.472     2.459
    46   1 H        0.925     0.035     2.513     2.479
    47   1 H        0.925     0.039     2.461     2.453
    48   1 H        0.925     0.036     2.501     2.473
    49   1 H        0.926     0.039     2.463     2.454
    50   1 H        0.926     0.031     2.565     2.505
    51   1 H        0.926     0.033     2.549     2.497
    52   1 H        0.926     0.033     2.540     2.492
    53   1 H        0.926     0.032     2.551     2.498
    54   1 H        0.925     0.029     2.604     2.523
    55   1 H        0.925     0.029     2.604     2.523
    56   1 H        0.926     0.033     2.549     2.497
    57   1 H        0.926     0.034     2.535     2.490
    58   1 H        0.926     0.033     2.547     2.496
    59   1 H        0.926     0.032     2.563     2.504
    60   1 H        0.926     0.039     2.461     2.453
    61   1 H        0.925     0.036     2.500     2.473
    62   1 H        0.925     0.035     2.513     2.479
    63   1 H        0.925     0.039     2.459     2.452
    64   1 H        0.925     0.038     2.472     2.459
    65   1 H        0.925     0.041     2.437     2.441
    66   1 H        0.925     0.039     2.461     2.453
    67   1 H        0.926     0.035     2.510     2.478
    68   1 H        0.926     0.029     2.598     2.521
    69   1 H        0.926     0.034     2.524     2.484
    70   1 H        0.926     0.074     2.039     2.233
    71   1 H        0.926     0.075     2.027     2.226
    72   1 H        0.926     0.034     2.528     2.486
    73   1 H        0.926     0.029     2.602     2.522
    74   1 H        0.926     0.035     2.512     2.479

molecular dipole:
                 x           y           z       tot (Debye)
 q only:       -0.019      -0.060      -0.008
   full:       -0.022       0.872       0.001       2.218

 projected vibrational frequencies (cm⁻¹)
eigval :       -0.00    -0.00    -0.00     0.00     0.00     0.00
eigval :       11.46    11.56    27.46    36.69    56.06    63.53
eigval :       63.64    66.86    97.11   101.67   102.85   123.39
eigval :      127.80   131.91   154.92   173.08   181.00   197.59
eigval :      198.49   202.61   226.53   235.81   259.45   262.76
eigval :      272.90   279.11   282.86   284.61   304.67   314.30
eigval :      316.57   328.32   341.67   346.58   360.13   364.74
eigval :      379.69   400.66   409.26   410.02   412.81   413.25
eigval :      417.07   432.14   445.21   448.27   466.43   487.61
eigval :      488.47   501.29   505.17   538.55   539.26   555.96
eigval :      556.62   569.07   575.89   578.48   578.82   586.94
eigval :      603.23   613.82   625.46   647.65   657.14   668.41
eigval :      691.40   691.74   709.99   720.13   720.89   728.95
eigval :      740.98   774.84   775.27   781.54   783.08   796.63
eigval :      812.29   812.39   816.11   836.15   842.04   869.26
eigval :      872.56   881.89   882.54   888.99   906.94   907.35
eigval :      908.82   911.10   913.38   917.11   917.99   920.01
eigval :      924.03   924.37   929.90   930.75   942.44   942.53
eigval :      966.44   966.98   987.98  1009.65  1009.68  1033.50
eigval :     1073.37  1073.61  1086.74  1089.64  1102.27  1102.75
eigval :     1110.05  1110.21  1138.12  1138.66  1142.41  1151.83
eigval :     1152.37  1163.64  1173.69  1175.24  1182.88  1184.13
eigval :     1190.82  1191.11  1202.54  1202.82  1234.12  1234.77
eigval :     1241.18  1258.23  1258.32  1271.68  1272.76  1274.05
eigval :     1274.20  1283.34  1298.13  1308.38  1311.30  1325.32
eigval :     1325.76  1328.95  1329.21  1334.65  1365.77  1372.11
eigval :     1397.77  1397.92  1414.52  1414.65  1432.12  1436.74
eigval :     1439.80  1440.41  1444.34  1447.73  1455.92  1459.70
eigval :     1479.49  1482.08  1484.13  1493.88  1494.03  1495.84
eigval :     1496.18  1508.05  1508.12  1525.43  1525.48  1526.74
eigval :     1568.74  1577.32  1578.18  1585.72  1586.00  1589.09
eigval :     1589.16  1596.59  1599.70  1602.60  3022.78  3022.85
eigval :     3029.15  3029.27  3030.50  3030.60  3035.12  3035.15
eigval :     3045.94  3046.02  3049.92  3050.01  3050.29  3053.65
eigval :     3076.83  3077.21  3078.46  3078.57  3084.62  3084.71
eigval :     3089.65  3090.41  3094.45  3094.55  3096.56  3097.70
eigval :     3109.29  3109.39  3111.41  3111.54  3143.77  3144.52

   temp. (K)  partition function   enthalpy   heat capacity  entropy
                                   cal/mol     cal/K/mol   cal/K/mol   J/K/mol
 298.15  VIB  0.581E+14            19805.047    131.400    119.648
         ROT  0.504E+08              888.752      2.981     38.225
         INT  0.293E+22            20693.799    134.381    157.873
         TR   0.123E+29             1481.254      4.968     44.750
         TOT                       22175.0530   139.3491   202.6232   847.7754

       T/K    H(0)-H(T)+PV         H(T)/Eh          T*S/Eh         G(T)/Eh
   ------------------------------------------------------------------------
    298.15    0.353382E-01    0.625712E+00    0.962728E-01    0.529439E+00
   ------------------------------------------------------------------------

         :::::::::::::::::::::::::::::::::::::::::::::::::::::
         ::                  THERMODYNAMIC                  ::
         :::::::::::::::::::::::::::::::::::::::::::::::::::::
         :: total free energy        -108.943462312378 Eh   ::
         ::.................................................::
         :: total energy             -109.472901692916 Eh   ::
         :: zero point energy           0.590373998346 Eh   ::
         :: G(RRHO) w/o ZPVE           -0.060934617808 Eh   ::
         :: G(RRHO) contrib.            0.529439380538 Eh   ::
         :::::::::::::::::::::::::::::::::::::::::::::::::::::

           -------------------------------------------------
          | TOTAL ENERGY             -109.472901692916 Eh   |
          | TOTAL ENTHALPY           -108.847189498254 Eh   |
          | TOTAL FREE ENERGY        -108.943462312378 Eh   |
          | GRADIENT NORM               0.000033142683 Eh/α |
          | HOMO-LUMO GAP               2.113503572944 eV   |
           -------------------------------------------------

 * finished run on 2025/09/07 at 22:29:48.686
