   * xtb version 6.7.1 (edcfbbe) compiled by 'albert@albert-system' on 2024-07-22

   ID    Z sym.   atoms
    1    8 O      1, 5, 17, 37
    2    6 C      2-4, 6-9, 11-16, 18-29, 31-36, 38-45
    3    7 N      10, 30
    4    1 H      46-71

          program call               : xtb data2507/gas/PXZPDO/PXZPDO_gas_S0_crest.xyz --gfn 2 --ohess vtight --parallel 40 --molden --ceasefiles --namespace data2507/gas/PXZPDO/PXZPDO_gas_S0_finalOpt
          :  Hamiltonian                  GFN2-xTB          :
 * total energy  :  -118.8976041 Eh     change       -0.1957247E-08 Eh
 * total energy  :  -118.8976047 Eh     change       -0.5621543E-06 Eh
 * total energy  :  -118.8976052 Eh     change       -0.5454767E-06 Eh
 * total energy  :  -118.8976065 Eh     change       -0.1228175E-05 Eh
 * total energy  :  -118.8976075 Eh     change       -0.1034632E-05 Eh
 * total energy  :  -118.8976077 Eh     change       -0.2411694E-06 Eh
 * total energy  :  -118.8976081 Eh     change       -0.3342683E-06 Eh
 * total energy  :  -118.8976085 Eh     change       -0.4318226E-06 Eh
 * total energy  :  -118.8976090 Eh     change       -0.5004479E-06 Eh
 * total energy  :  -118.8976092 Eh     change       -0.2408099E-06 Eh
 * total energy  :  -118.8976095 Eh     change       -0.2732642E-06 Eh
 * total energy  :  -118.8976098 Eh     change       -0.3163694E-06 Eh
 * total energy  :  -118.8976101 Eh     change       -0.3201441E-06 Eh
 * total energy  :  -118.8976105 Eh     change       -0.3494375E-06 Eh
 * total energy  :  -118.8976109 Eh     change       -0.3797848E-06 Eh
 * total energy  :  -118.8976112 Eh     change       -0.3243075E-06 Eh
 * total energy  :  -118.8976114 Eh     change       -0.1855109E-06 Eh
 * total energy  :  -118.8976115 Eh     change       -0.1043273E-06 Eh
 * total energy  :  -118.8976116 Eh     change       -0.7348885E-07 Eh
   *** GEOMETRY OPTIMIZATION CONVERGED AFTER 19 ITERATIONS ***

 final structure:
================
71
 xtb: 6.7.1 (edcfbbe)
O            1.48958183577910       -4.23810339585332       -1.53569870961285
C            1.31607891722095       -3.12721331801675       -1.06863714429527
C           -0.03087795941053       -2.61835431693003       -0.80242045648742
C           -0.41949332708257       -1.32692520985284       -0.81783152376641
O            0.46193332549462       -0.32012615941478       -1.03187634975208
C           -1.82453604471923       -0.94828205334298       -0.59976223265155
C           -2.13082535549719        0.22274394527143        0.09740380044264
C           -3.44118771626815        0.58884235423018        0.32547838070063
C           -4.48323244317966       -0.19943867467414       -0.15700083419412
N           -5.81980462600591        0.17514842307571        0.06674010925614
C           -6.31370455663777        1.38570501115145       -0.43061818187993
C           -5.54475507070810        2.23710157970913       -1.21388864112540
C           -6.06655509548311        3.42919420149659       -1.69303514145486
C           -7.36898175300649        3.78492769456097       -1.40824312063505
C           -8.16151444846403        2.92925675011047       -0.65804582652535
C           -7.64660100912854        1.73823858083616       -0.18037134001771
O           -8.50357415120351        0.92959001766074        0.52147596958724
C           -8.00983207445732       -0.26143629369273        0.99118775673800
C           -8.88406831337612       -1.06322852166906        1.70157925293889
C           -8.45126762793685       -2.26505086914321        2.24117871668465
C           -7.13463729584216       -2.64623610279972        2.08145688854091
C           -6.25474723641369       -1.84705346512507        1.36740154070657
C           -6.68120293328377       -0.65772316136991        0.79021516570605
C           -4.18462842781958       -1.36310218440540       -0.86458443197291
C           -2.87395147364617       -1.73376262061169       -1.07786592799064
C            2.45933159060686       -2.23560579100153       -0.73863373471614
C            2.49854833994208       -1.53432786392762        0.46326599817358
C            3.57809556027973       -0.73014268687724        0.76355196329515
C            4.62910518807320       -0.60404401052787       -0.14147119333085
N            5.71082159921370        0.25429096176947        0.15267778859770
C            5.50475921248622        1.62944272637320        0.26780190142235
C            4.26354760638761        2.21413323697322        0.04870037928466
C            4.09379681455571        3.58524785173310        0.17079406729826
C            5.16085806205496        4.39458708819166        0.50229878206936
C            6.41335503203382        3.82927690401290        0.69427791263081
C            6.58918395917173        2.46389348962153        0.57219640109737
O            7.86246908885884        1.98210853643584        0.74675737138500
C            8.05146987733977        0.62776021501723        0.61193349374830
C            9.33772560186383        0.15424578392212        0.78820647386371
C            9.60193713970206       -1.20484069064719        0.69789553682973
C            8.56787845208919       -2.08337054245442        0.44707496543989
C            7.27564517991429       -1.61328918825213        0.26725043974173
C            6.99996939367766       -0.25319310280639        0.32567339391891
C            4.60377105835673       -1.32090898229242       -1.33364178374517
C            3.53209004330187       -2.14298241954770       -1.61934676205864
H           -0.78564312084692       -3.37871697918206       -0.67443128176506
H           -0.00956034935717        0.51910119636235       -1.11425717406779
H           -1.33842227751526        0.83275961945208        0.51114068899939
H           -3.66641449830099        1.48305866026114        0.88723556053546
H           -4.53136723465424        1.96338606911367       -1.46261387129446
H           -5.44334462170157        4.07269730714994       -2.29472186360907
H           -7.77838659473247        4.71319434009997       -1.77374504115739
H           -9.18988891433137        3.16502945926629       -0.43605181454958
H           -9.89985038089957       -0.72390370762013        1.82615060609372
H           -9.14103427759184       -2.88549410504160        2.79087638012314
H           -6.77598469637254       -3.56751964980799        2.51370247987321
H           -5.22425766780885       -2.14996559867561        1.26812047422190
H           -4.99059137781024       -1.96653950022112       -1.25434883770010
H           -2.65657109229961       -2.62265691681584       -1.64882636675996
H            1.68802009445747       -1.63588447514995        1.16991133915388
H            3.61764911097900       -0.18982500133942        1.69824691486694
H            3.42583874041409        1.59279172156642       -0.22746032488063
H            3.11766975261029        4.01321688228301       -0.00047396718991
H            5.03309493392383        5.46090658861304        0.60255631203622
H            7.27199258528217        4.43520495505777        0.93562857884551
H           10.11938277201134        0.86590938367259        1.00114218833671
H           10.60941657327331       -1.56492210567381        0.83431549788202
H            8.75411936008243       -3.14485251839546        0.39166606592807
H            6.47336472882506       -2.31150640023984        0.08735875148187
H            5.42426034782174       -1.22537761521708       -2.02952864974669
H            3.50301186750864       -2.70676865123681       -2.53957882484366

          :  Hamiltonian                  GFN2-xTB          :
         :: gradient norm              0.000029102693 Eh/a0 ::
         :: HOMO-LUMO gap              1.331085257771 eV    ::
         :: SCC energy              -120.880376730312 Eh    ::
         :: -> dispersion             -0.095518156312 Eh    ::
         :: repulsion energy           1.982765170221 Eh    ::

    * Orbital Energies and Occupations

         #    Occupation            Energy/Eh            Energy/eV
      -------------------------------------------------------------
         1        2.0000           -0.7370614             -20.0565
       ...           ...                  ...                  ...
        96        2.0000           -0.4234069             -11.5215
        97        2.0000           -0.4221310             -11.4868
        98        2.0000           -0.4191933             -11.4068
        99        2.0000           -0.4148361             -11.2883
       100        2.0000           -0.4125397             -11.2258
       101        2.0000           -0.4098543             -11.1527
       102        2.0000           -0.4090156             -11.1299
       103        2.0000           -0.4022769             -10.9465
       104        2.0000           -0.3961248             -10.7791
       105        2.0000           -0.3867824             -10.5249
       106        2.0000           -0.3849955             -10.4763
       107        2.0000           -0.3506564              -9.5418
       108        2.0000           -0.3393365              -9.2338 (HOMO)
       109                         -0.2904200              -7.9027 (LUMO)
       110                         -0.2560205              -6.9667
       111                         -0.2544548              -6.9241
       112                         -0.2447263              -6.6593
       113                         -0.2360693              -6.4238
       114                         -0.2353124              -6.4032
       115                         -0.2334460              -6.3524
       116                         -0.2268095              -6.1718
       117                         -0.2260782              -6.1519
       118                         -0.2190765              -5.9614
       119                         -0.2100801              -5.7166
       ...                                ...                  ...
       206                          0.6825129              18.5721
      -------------------------------------------------------------
                  HL-Gap            0.0489166 Eh            1.3311 eV

     #   Z          covCN         q      C6AA      α(0)
     1   8 O        0.858    -0.380    21.287     6.186
     2   6 C        2.823     0.236    23.067     7.870
     3   6 C        2.898    -0.100    30.526     9.059
     4   6 C        2.825     0.150    24.742     8.150
     5   8 O        1.660    -0.377    20.415     6.099
     6   6 C        2.975    -0.014    28.361     8.736
     7   6 C        2.923    -0.036    28.898     8.816
     8   6 C        2.920    -0.041    29.015     8.833
     9   6 C        2.921     0.070    26.443     8.433
    10   7 N        2.751    -0.070    22.594     7.060
    11   6 C        2.921     0.042    27.067     8.532
    12   6 C        2.924    -0.060    29.498     8.907
    13   6 C        2.919    -0.039    28.966     8.826
    14   6 C        2.919    -0.039    28.974     8.827
    15   6 C        2.920    -0.056    29.380     8.889
    16   6 C        2.884     0.126    25.243     8.237
    17   8 O        1.709    -0.253    18.189     5.758
    18   6 C        2.884     0.125    25.251     8.238
    19   6 C        2.920    -0.055    29.376     8.888
    20   6 C        2.919    -0.039    28.967     8.826
    21   6 C        2.919    -0.038    28.949     8.823
    22   6 C        2.924    -0.060    29.485     8.905
    23   6 C        2.922     0.041    27.070     8.532
    24   6 C        2.920    -0.038    28.947     8.823
    25   6 C        2.922    -0.031    28.782     8.798
    26   6 C        2.973    -0.003    28.106     8.696
    27   6 C        2.922    -0.020    28.514     8.757
    28   6 C        2.921    -0.040    28.987     8.829
    29   6 C        2.922     0.068    26.476     8.438
    30   7 N        2.752    -0.071    22.611     7.062
    31   6 C        2.923     0.043    27.035     8.527
    32   6 C        2.923    -0.062    29.544     8.914
    33   6 C        2.919    -0.040    28.993     8.830
    34   6 C        2.919    -0.042    29.033     8.836
    35   6 C        2.920    -0.057    29.415     8.894
    36   6 C        2.883     0.125    25.263     8.240
    37   8 O        1.709    -0.257    18.250     5.768
    38   6 C        2.884     0.124    25.282     8.243
    39   6 C        2.920    -0.056    29.403     8.892
    40   6 C        2.919    -0.041    29.012     8.833
    41   6 C        2.919    -0.038    28.955     8.824
    42   6 C        2.924    -0.060    29.494     8.906
    43   6 C        2.922     0.043    27.044     8.528
    44   6 C        2.920    -0.040    28.986     8.829
    45   6 C        2.924    -0.018    28.467     8.750
    46   1 H        0.926     0.064     2.147     2.292
    47   1 H        0.805     0.311     0.689     1.304
    48   1 H        0.925     0.038     2.473     2.459
    49   1 H        0.926     0.047     2.362     2.403
    50   1 H        0.926     0.032     2.565     2.504
    51   1 H        0.926     0.036     2.496     2.471
    52   1 H        0.926     0.040     2.447     2.446
    53   1 H        0.926     0.052     2.289     2.366
    54   1 H        0.926     0.052     2.290     2.367
    55   1 H        0.926     0.041     2.442     2.444
    56   1 H        0.926     0.038     2.471     2.458
    57   1 H        0.926     0.035     2.517     2.481
    58   1 H        0.926     0.050     2.316     2.380
    59   1 H        0.926     0.052     2.297     2.370
    60   1 H        0.926     0.039     2.468     2.456
    61   1 H        0.926     0.042     2.420     2.433
    62   1 H        0.926     0.035     2.519     2.482
    63   1 H        0.926     0.031     2.573     2.509
    64   1 H        0.926     0.036     2.504     2.474
    65   1 H        0.926     0.049     2.328     2.386
    66   1 H        0.926     0.049     2.329     2.386
    67   1 H        0.926     0.037     2.485     2.465
    68   1 H        0.926     0.037     2.495     2.470
    69   1 H        0.926     0.037     2.490     2.468
    70   1 H        0.926     0.045     2.382     2.413
    71   1 H        0.926     0.054     2.265     2.353

molecular dipole:
                 x           y           z       tot (Debye)
 q only:       -1.210       1.066       0.220
   full:       -1.395       1.295       0.258       4.883

 projected vibrational frequencies (cm⁻¹)
eigval :       -0.00    -0.00    -0.00     0.00     0.00     0.00
eigval :        7.64     9.08    10.54    23.74    25.53    32.09
eigval :       36.79    47.22    51.32    52.77    69.96    81.89
eigval :       92.04   112.38   116.66   119.79   132.50   149.35
eigval :      169.75   180.73   187.22   203.32   222.92   247.11
eigval :      249.87   253.68   272.19   274.19   275.78   285.67
eigval :      297.14   350.70   371.40   375.10   378.91   381.21
eigval :      382.82   396.39   398.63   417.05   421.44   426.61
eigval :      429.85   430.98   444.96   446.80   449.43   462.91
eigval :      500.11   509.94   510.54   516.58   522.76   522.88
eigval :      545.61   548.53   575.00   586.12   586.57   594.80
eigval :      602.20   606.55   622.09   626.57   646.53   660.06
eigval :      660.69   661.37   661.64   668.24   674.98   690.67
eigval :      699.75   722.82   752.81   778.55   778.64   779.30
eigval :      779.46   794.32   804.55   811.95   820.76   833.17
eigval :      840.29   854.78   855.98   863.57   863.75   865.80
eigval :      866.61   877.37   877.67   895.90   897.61   897.63
eigval :      899.08   912.91   914.00   914.51   915.40   917.37
eigval :      917.50   918.03   921.98   924.25   927.14   932.30
eigval :      935.29  1003.50  1014.89  1045.60  1090.15  1090.86
eigval :     1091.79  1091.92  1107.95  1108.80  1119.20  1121.92
eigval :     1125.06  1132.48  1139.90  1171.02  1171.89  1175.59
eigval :     1175.95  1181.66  1182.41  1185.52  1190.63  1197.29
eigval :     1201.30  1202.46  1221.46  1225.86  1243.29  1243.39
eigval :     1247.47  1258.12  1262.21  1262.71  1263.05  1270.52
eigval :     1309.42  1310.29  1311.04  1313.64  1315.51  1318.18
eigval :     1328.93  1338.12  1341.14  1356.92  1357.20  1402.59
eigval :     1404.67  1424.22  1424.68  1442.81  1443.39  1477.50
eigval :     1480.03  1487.91  1490.13  1505.51  1507.23  1551.87
eigval :     1562.10  1567.16  1568.45  1580.87  1580.96  1582.49
eigval :     1586.19  1591.25  1591.40  1603.13  1604.15  1625.61
eigval :     1682.96  3058.62  3077.17  3084.18  3085.12  3088.78
eigval :     3089.26  3089.49  3091.06  3092.11  3093.90  3097.17
eigval :     3097.65  3098.78  3099.46  3100.36  3101.72  3103.67
eigval :     3105.64  3105.67  3106.79  3107.17  3112.15  3112.77
eigval :     3114.41  3114.98  3489.28

   temp. (K)  partition function   enthalpy   heat capacity  entropy
                                   cal/mol     cal/K/mol   cal/K/mol   J/K/mol
 298.15  VIB  0.138E+18            21018.045    131.983    131.339
         ROT  0.958E+08              888.752      2.981     39.502
         INT  0.133E+26            21906.797    134.964    170.841
         TR   0.137E+29             1481.254      4.968     44.971
         TOT                       23388.0514   139.9324   215.8119   902.9572

       T/K    H(0)-H(T)+PV         H(T)/Eh          T*S/Eh         G(T)/Eh
   ------------------------------------------------------------------------
    298.15    0.372712E-01    0.569052E+00    0.102539E+00    0.466513E+00
   ------------------------------------------------------------------------

         :::::::::::::::::::::::::::::::::::::::::::::::::::::
         ::                  THERMODYNAMIC                  ::
         :::::::::::::::::::::::::::::::::::::::::::::::::::::
         :: total free energy        -118.431098877137 Eh   ::
         ::.................................................::
         :: total energy             -118.897611560086 Eh   ::
         :: zero point energy           0.531780667232 Eh   ::
         :: G(RRHO) w/o ZPVE           -0.065267984283 Eh   ::
         :: G(RRHO) contrib.            0.466512682949 Eh   ::
         :::::::::::::::::::::::::::::::::::::::::::::::::::::

           -------------------------------------------------
          | TOTAL ENERGY             -118.897611560086 Eh   |
          | TOTAL ENTHALPY           -118.328559660554 Eh   |
          | TOTAL FREE ENERGY        -118.431098877137 Eh   |
          | GRADIENT NORM               0.000029074392 Eh/α |
          | HOMO-LUMO GAP               1.331087294870 eV   |
           -------------------------------------------------

 * finished run on 2025/09/14 at 06:06:25.118
