   * xtb version 6.7.1 (edcfbbe) compiled by 'albert@albert-system' on 2024-07-22

   ID    Z sym.   atoms
    1    8 O      1, 5, 17, 37
    2    6 C      2-4, 6-9, 11-16, 18-29, 31-36, 38-45
    3    7 N      10, 30
    4    1 H      46-71

          program call               : xtb data2507/gas/PXZPDO/PXZPDO_gas_S0_finalOpt.xtbopt.xyz --gfn 2 --spinpol --tblite --uhf 2 --ohess vtight --parallel 40 --molden --ceasefiles --namespace data2507/gas/PXZPDO/PXZPDO_gas_T1_preOpt
 * total energy  :  -118.8188030 Eh     change       -0.5575643E-07 Eh
 * total energy  :  -118.8236480 Eh     change       -0.4845001E-02 Eh
 * total energy  :  -118.8260895 Eh     change       -0.2441469E-02 Eh
 * total energy  :  -118.8267163 Eh     change       -0.6268151E-03 Eh
 * total energy  :  -118.8273592 Eh     change       -0.6428982E-03 Eh
 * total energy  :  -118.8277012 Eh     change       -0.3420651E-03 Eh
 * total energy  :  -118.8278889 Eh     change       -0.1876714E-03 Eh
 * total energy  :  -118.8279782 Eh     change       -0.8933908E-04 Eh
 * total energy  :  -118.8280553 Eh     change       -0.7701678E-04 Eh
 * total energy  :  -118.8281373 Eh     change       -0.8200432E-04 Eh
 * total energy  :  -118.8287149 Eh     change       -0.6680429E-06 Eh
 * total energy  :  -118.8287155 Eh     change       -0.6088334E-06 Eh
 * total energy  :  -118.8287161 Eh     change       -0.5590352E-06 Eh
 * total energy  :  -118.8287167 Eh     change       -0.6227398E-06 Eh
 * total energy  :  -118.8287174 Eh     change       -0.7318695E-06 Eh
 * total energy  :  -118.8287183 Eh     change       -0.8746447E-06 Eh
 * total energy  :  -118.8287193 Eh     change       -0.9952422E-06 Eh
 * total energy  :  -118.8287193 Eh     change        0.3965130E-07 Eh
 * total energy  :  -118.8287193 Eh     change       -0.4440020E-07 Eh
   *** GEOMETRY OPTIMIZATION CONVERGED AFTER 95 ITERATIONS ***

 final structure:
================
71
 xtb: 6.7.1 (edcfbbe)
O            1.54740918331275       -3.97113225601104       -2.00035848507188
C            1.31112782561045       -2.88687146717555       -1.41854971062755
C           -0.01084054438033       -2.45454476286848       -1.17938441220445
C           -0.45833355725805       -1.17289908764897       -0.83036395336760
O            0.48480943106855       -0.17530121573927       -0.72715507085287
C           -1.81974953628699       -0.86511592564379       -0.57267719349236
C           -2.20346964692429        0.37437654921557        0.01681247079702
C           -3.51538826085227        0.70220034316201        0.22966156964265
C           -4.53718753605558       -0.18656536833582       -0.11986052362705
N           -5.89039434334232        0.15665590371333        0.09330549881688
C           -6.45497458331673        1.24028532831034       -0.56672692913199
C           -5.74288028460080        1.99694917735778       -1.49517494295105
C           -6.33290691913650        3.07576314232253       -2.12878098057569
C           -7.64662463050111        3.41626479892774       -1.85874282806599
C           -8.38157958040949        2.65571911297204       -0.96388890753084
C           -7.79889075230406        1.57334568263845       -0.32759323711214
O           -8.59100551079739        0.84595785287053        0.51744478487170
C           -8.02789811220806       -0.23173383911894        1.14474423991277
C           -8.83972214005777       -0.96125569729506        1.99597007253461
C           -8.32581817514452       -2.04470640214034        2.68969279620916
C           -6.99163101126704       -2.38137811285201        2.54286821189152
C           -6.17429176612103       -1.65839095713625        1.69273172425990
C           -6.68087242175553       -0.58635913133082        0.96085181731189
C           -4.19082548195964       -1.42552581331660       -0.67772482304552
C           -2.88242341450877       -1.75494664749134       -0.89424656358481
C            2.46261495096832       -2.04734003931134       -0.99652834996433
C            2.54460809953071       -1.54049691640613        0.29885593345041
C            3.63849271004660       -0.79362406908357        0.68421502844651
C            4.66539204168485       -0.55011574509633       -0.22146413908898
N            5.77386794071288        0.25005468607516        0.16799430311963
C            5.61607501059619        1.61607971197274        0.34709711532217
C            4.39636673111568        2.25340076211681        0.13580635941322
C            4.27589132629585        3.61923377701326        0.32439457072933
C            5.36666434271463        4.37285906874211        0.71959116556744
C            6.59248997354729        3.75714418637097        0.91704192411553
C            6.72264853287941        2.39236624711196        0.72983361007503
O            7.96370009509007        1.84750314602048        0.92282181508830
C            8.10325504015352        0.49840029588951        0.73126871470948
C            9.36101462822940       -0.04384648437869        0.92693497774122
C            9.56443456783725       -1.40528608915943        0.76566242869338
C            8.50292602008555       -2.22188998602957        0.41843180098457
C            7.24186383410067       -1.68752641125950        0.21984577341532
C            7.02344287509578       -0.31990772339329        0.35994899937876
C            4.60867439297396       -1.08357835696521       -1.50428876611341
C            3.51762208853301       -1.83945469577170       -1.88101460583192
H           -0.75735375720673       -3.19504328170723       -1.41712056974323
H            0.03531493151534        0.67559555361454       -0.67041482699702
H           -1.45199845640031        1.07331968526130        0.36099391695743
H           -3.77181362159414        1.64387615708679        0.69493765910581
H           -4.72467896262201        1.72695467520256       -1.72465434429440
H           -5.75908719403656        3.64786467689600       -2.84121163617809
H           -8.10606340626200        4.25978818163854       -2.34885131058890
H           -9.41372725375643        2.88036083260880       -0.74801901175057
H           -9.86904145694029       -0.65915643510135        2.10401598160411
H           -8.96471277399790       -2.61086983967224        3.34855851229410
H           -6.57671252894193       -3.21028195010199        3.09482369132743
H           -5.13223829436532       -1.91739077759715        1.59654348614199
H           -4.97733585925818       -2.11165578049539       -0.95790266854086
H           -2.66050253832360       -2.70383171657274       -1.35227476207577
H            1.75188899246354       -1.74084079813701        1.00275694982476
H            3.70807233544809       -0.39367864983855        1.68586994916813
H            3.54580193842358        1.67103549353946       -0.18140878124793
H            3.32123709128026        4.09339015910093        0.15688818558367
H            5.27245800476861        5.43683281092376        0.86840562707111
H            7.46360976135857        4.31892510292220        1.21364179538432
H           10.16561194710544        0.61662000937266        1.20784051969676
H           10.54779331242828       -1.82078884475605        0.91831008914918
H            8.65006825741164       -3.28421407312745        0.30178479695543
H            6.41577246307598       -2.32935409496015       -0.04190577875877
H            5.41753112703988       -0.89698303453645       -2.19602709291669
H            3.46092214551261       -2.26490778991735       -2.87136526619882

 projected vibrational frequencies (cm⁻¹)
eigval :       -0.00    -0.00    -0.00    -0.00    -0.00     0.00
eigval :        5.56     8.12    10.26    21.72    28.14    34.86
eigval :       38.92    44.87    55.61    57.06    61.81    81.81
eigval :       96.74   112.00   116.52   120.02   145.15   154.52
eigval :      156.33   170.49   191.25   205.11   221.00   246.34
eigval :      246.90   258.03   262.58   275.17   277.25   288.46
eigval :      309.70   324.21   352.29   365.80   377.95   378.14
eigval :      383.98   391.92   396.47   398.75   413.13   419.65
eigval :      429.98   432.97   441.49   444.36   454.91   462.34
eigval :      474.10   503.07   503.95   507.90   517.41   525.93
eigval :      527.59   538.26   546.44   567.63   577.57   583.97
eigval :      585.01   595.31   607.13   609.84   621.45   640.29
eigval :      655.18   664.85   665.64   667.89   669.02   674.32
eigval :      686.62   700.15   736.58   754.50   775.01   778.29
eigval :      778.85   779.25   780.79   792.13   805.57   813.93
eigval :      818.21   824.64   855.37   856.07   864.89   865.78
eigval :      867.13   867.34   869.06   896.40   898.95   899.52
eigval :      900.57   902.79   904.67   911.49   912.18   914.71
eigval :      916.51   917.05   917.40   917.66   918.92   919.67
eigval :      925.61   984.35  1001.15  1013.78  1085.77  1086.32
eigval :     1087.16  1087.36  1111.48  1112.03  1112.63  1120.92
eigval :     1123.28  1127.98  1147.15  1161.50  1169.88  1172.32
eigval :     1174.24  1174.92  1178.91  1183.14  1190.16  1201.51
eigval :     1205.62  1207.42  1220.66  1233.17  1238.59  1239.56
eigval :     1255.40  1256.87  1258.38  1259.55  1263.11  1288.70
eigval :     1307.14  1311.23  1314.22  1315.24  1317.69  1318.58
eigval :     1329.16  1331.66  1341.12  1348.65  1351.29  1364.80
eigval :     1399.72  1417.88  1421.39  1423.96  1441.00  1442.24
eigval :     1453.18  1455.95  1457.89  1465.94  1470.24  1479.24
eigval :     1486.22  1495.20  1549.58  1557.52  1560.44  1565.24
eigval :     1566.86  1568.50  1578.07  1580.55  1580.94  1589.19
eigval :     1591.82  3042.61  3071.65  3074.10  3075.56  3077.61
eigval :     3092.25  3093.72  3094.96  3095.13  3097.04  3099.10
eigval :     3102.06  3103.21  3103.40  3103.81  3107.66  3110.32
eigval :     3111.64  3112.76  3113.51  3114.64  3115.04  3115.50
eigval :     3115.81  3119.87  3514.88

   temp. (K)  partition function   enthalpy   heat capacity  entropy
                                   cal/mol     cal/K/mol   cal/K/mol   J/K/mol
 298.15  VIB  0.225E+18            21241.966    133.672    132.925
         ROT  0.970E+08              888.752      2.981     39.526
         INT  0.218E+26            22130.718    136.653    172.452
         TR   0.137E+29             1481.254      4.968     44.971
         TOT                       23611.9722   141.6212   217.4230   909.6979

       T/K    H(0)-H(T)+PV         H(T)/Eh          T*S/Eh         G(T)/Eh
   ------------------------------------------------------------------------
    298.15    0.376281E-01    0.565951E+00    0.103305E+00    0.462646E+00
   ------------------------------------------------------------------------

         :::::::::::::::::::::::::::::::::::::::::::::::::::::
         ::                  THERMODYNAMIC                  ::
         :::::::::::::::::::::::::::::::::::::::::::::::::::::
         :: total free energy        -118.366072804745 Eh   ::
         ::.................................................::
         :: total energy             -118.828719273535 Eh   ::
         :: zero point energy           0.528323091651 Eh   ::
         :: G(RRHO) w/o ZPVE           -0.065676622861 Eh   ::
         :: G(RRHO) contrib.            0.462646468790 Eh   ::
         :::::::::::::::::::::::::::::::::::::::::::::::::::::

           -------------------------------------------------
          | TOTAL ENERGY             -118.828719273535 Eh   |
          | TOTAL ENTHALPY           -118.262768109106 Eh   |
          | TOTAL FREE ENERGY        -118.366072804745 Eh   |
          | GRADIENT NORM               0.000075047417 Eh/α |
           -------------------------------------------------

 * finished run on 2025/09/14 at 06:06:42.191
