   * xtb version 6.7.1 (edcfbbe) compiled by 'albert@albert-system' on 2024-07-22

   ID    Z sym.   atoms
    1    8 O      1, 5, 17, 37
    2    6 C      2-4, 6-9, 11-16, 18-29, 31-36, 38-45
    3    7 N      10, 30
    4    1 H      46-71

          program call               : xtb data2507/gas/PXZPDO/PXZPDO.xyz --gfn 2 --ohess vtight --parallel 40 --molden --ceasefiles --namespace data2507/gas/PXZPDO/PXZPDO_gas_S0_preOpt
          :  Hamiltonian                  GFN2-xTB          :
 * total energy  :  -118.8764587 Eh     change       -0.2218769E-08 Eh
 * total energy  :  -118.8872099 Eh     change       -0.1075118E-01 Eh
 * total energy  :  -118.8906163 Eh     change       -0.3406455E-02 Eh
 * total energy  :  -118.8915673 Eh     change       -0.9509428E-03 Eh
 * total energy  :  -118.8923104 Eh     change       -0.7431040E-03 Eh
 * total energy  :  -118.8927008 Eh     change       -0.3904209E-03 Eh
 * total energy  :  -118.8929811 Eh     change       -0.2802951E-03 Eh
 * total energy  :  -118.8932571 Eh     change       -0.2760290E-03 Eh
 * total energy  :  -118.8935491 Eh     change       -0.2919573E-03 Eh
 * total energy  :  -118.8938713 Eh     change       -0.3222064E-03 Eh
 * total energy  :  -118.8974786 Eh     change       -0.7349642E-06 Eh
 * total energy  :  -118.8974793 Eh     change       -0.7382756E-06 Eh
 * total energy  :  -118.8974800 Eh     change       -0.7404185E-06 Eh
 * total energy  :  -118.8974808 Eh     change       -0.7449970E-06 Eh
 * total energy  :  -118.8974815 Eh     change       -0.7477727E-06 Eh
 * total energy  :  -118.8974823 Eh     change       -0.7522191E-06 Eh
 * total energy  :  -118.8974830 Eh     change       -0.7541011E-06 Eh
 * total energy  :  -118.8974838 Eh     change       -0.7567891E-06 Eh
 * total energy  :  -118.8974838 Eh     change       -0.6403184E-08 Eh
   *** GEOMETRY OPTIMIZATION CONVERGED AFTER 221 ITERATIONS ***

 final structure:
================
71
 xtb: 6.7.1 (edcfbbe)
O            1.39491621288489       -4.48591605859659        0.47761715446846
C            1.24979907318592       -3.28801299315320        0.31093656792025
C           -0.08285665737704       -2.70004144795126        0.16800537416482
C           -0.45510836365796       -1.44725377362352        0.50486770037124
O            0.42469363973441       -0.56693198953528        1.03857826719865
C           -1.84920900419882       -1.00298301312681        0.35454021988675
C           -2.41449800188612       -0.10740893724425        1.26487279705419
C           -3.72221229233084        0.31104968592495        1.12768697969499
C           -4.49713039102186       -0.14675386590622        0.06503123324484
N           -5.82918004697402        0.27961407617288       -0.08005705498679
C           -6.12775076688278        1.63091053356324       -0.28174170447206
C           -5.14032252607112        2.60040774290162       -0.40214934066798
C           -5.47107809118969        3.93132797338215       -0.60784367446841
C           -6.79299097145784        4.31390474064508       -0.70845726078902
C           -7.78990235696258        3.35350989107489       -0.62439964897413
C           -7.46521072249380        2.02486750145259       -0.42185441829929
O           -8.50460716108982        1.13080142377871       -0.38603954009854
C           -8.19607218358750       -0.19343369254123       -0.20012067663243
C           -9.25439328892735       -1.08229978703850       -0.15964488291694
C           -9.02699027347240       -2.43246014410716        0.06029387227408
C           -7.73696277118909       -2.88096836332274        0.25801931738254
C           -6.67193108084857       -1.99402120035878        0.21569196744584
C           -6.87971519961391       -0.64412656442968       -0.03722067142078
C           -3.93712777415563       -1.03466622370220       -0.85270090560512
C           -2.63357888484791       -1.45755896152977       -0.70726098964443
C            2.42300184309822       -2.37812745425138        0.22296134993228
C            3.51770235072242       -2.60740436546936        1.05114298225963
C            4.63175725739710       -1.79550220891502        0.98244525952996
C            4.67357881145997       -0.75394453595179        0.06112593042775
N            5.80453130080764        0.08952357596365       -0.00955915466270
C            5.70176729648541        1.43533225791749        0.34129974005370
C            4.51791056401253        1.98931864154354        0.81184738847970
C            4.45162811504197        3.33087385130118        1.15787263053726
C            5.56658393062245        4.13615006670887        1.04882474369419
C            6.76313355375287        3.59126104731441        0.60491289570170
C            6.83594725040675        2.25508392447248        0.25991706612367
O            8.05910913970943        1.78122802525265       -0.14500595913396
C            8.14546031054938        0.44998610601468       -0.47492998936025
C            9.38031011208378       -0.01630789185003       -0.88388959223448
C            9.53856257322979       -1.34287803921996       -1.25894441889880
C            8.45075522095342       -2.19141157553155       -1.23447950662658
C            7.20952469788537       -1.72917870274712       -0.82339219274647
C            7.04087205658629       -0.41059144257419       -0.42111058972307
C            3.59616204869111       -0.54413544372379       -0.79544498645059
C            2.47894128609572       -1.34935271466798       -0.71319824007632
H           -0.85127573822895       -3.40028433942284       -0.12131211592305
H           -0.00645814458581        0.28433417678959        1.18880357072106
H           -1.84758657574789        0.23204560195399        2.12204459416127
H           -4.15595089633785        0.98661368266367        1.84977617216180
H           -4.10183187556041        2.31368401299619       -0.34596672366016
H           -4.68240096763798        4.66292737878991       -0.69303034017226
H           -7.05621073825640        5.34801973478470       -0.86407156663761
H           -8.83158750838797        3.61446777906529       -0.72041772417256
H          -10.25109339573115       -0.69465901198327       -0.29677101745582
H           -9.85834107981255       -3.11876403978944        0.08756445146804
H           -7.54475037694005       -3.92484689430506        0.45177692871892
H           -5.67143115837134       -2.35703703634541        0.39119984925079
H           -4.53202424038903       -1.37999924544521       -1.68489383223717
H           -2.20433337582102       -2.12607985165868       -1.43693337723411
H            3.47341126023226       -3.42137234331479        1.75895887605906
H            5.47404498819453       -1.95944719343391        1.63836475074114
H            3.64469784758460        1.36412536730201        0.91615177048883
H            3.51869370959384        3.73720303361883        1.51810017036062
H            5.51959092800721        5.18052713813931        1.31434160103652
H            7.65675300698694        4.18926686263240        0.52420089992131
H           10.20628805016613        0.67652775928513       -0.90690620940433
H           10.50661173358823       -1.69810643954206       -1.57516655680476
H            8.55447628124400       -3.22165532195810       -1.53836153189547
H            6.36305988899826       -2.39790281112229       -0.82202512743251
H            3.64701251795256        0.25278249564783       -1.52313887900308
H            1.65281602408375       -1.19385216961453       -1.39133667196730

          :  Hamiltonian                  GFN2-xTB          :
         :: gradient norm              0.000063870920 Eh/a0 ::
         :: HOMO-LUMO gap              1.264871908845 eV    ::
         :: SCC energy              -120.880013657243 Eh    ::
         :: -> dispersion             -0.095279129514 Eh    ::
         :: repulsion energy           1.982529852255 Eh    ::

    * Orbital Energies and Occupations

         #    Occupation            Energy/Eh            Energy/eV
      -------------------------------------------------------------
         1        2.0000           -0.7372446             -20.0614
       ...           ...                  ...                  ...
        96        2.0000           -0.4232190             -11.5164
        97        2.0000           -0.4221392             -11.4870
        98        2.0000           -0.4192563             -11.4085
        99        2.0000           -0.4154347             -11.3046
       100        2.0000           -0.4122936             -11.2191
       101        2.0000           -0.4104993             -11.1703
       102        2.0000           -0.4089460             -11.1280
       103        2.0000           -0.4016758             -10.9302
       104        2.0000           -0.3961129             -10.7788
       105        2.0000           -0.3866845             -10.5222
       106        2.0000           -0.3849102             -10.4739
       107        2.0000           -0.3507125              -9.5434
       108        2.0000           -0.3391187              -9.2279 (HOMO)
       109                         -0.2926355              -7.9630 (LUMO)
       110                         -0.2563578              -6.9759
       111                         -0.2549474              -6.9375
       112                         -0.2447315              -6.6595
       113                         -0.2360957              -6.4245
       114                         -0.2352846              -6.4024
       115                         -0.2337355              -6.3603
       116                         -0.2260329              -6.1507
       117                         -0.2257453              -6.1428
       118                         -0.2183912              -5.9427
       119                         -0.2099816              -5.7139
       ...                                ...                  ...
       206                          0.6818827              18.5550
      -------------------------------------------------------------
                  HL-Gap            0.0464832 Eh            1.2649 eV

     #   Z          covCN         q      C6AA      α(0)
     1   8 O        0.858    -0.381    21.308     6.189
     2   6 C        2.823     0.235    23.083     7.872
     3   6 C        2.898    -0.100    30.527     9.059
     4   6 C        2.824     0.150    24.734     8.149
     5   8 O        1.660    -0.377    20.401     6.097
     6   6 C        2.975    -0.014    28.350     8.734
     7   6 C        2.923    -0.035    28.876     8.812
     8   6 C        2.920    -0.040    29.002     8.831
     9   6 C        2.921     0.070    26.432     8.431
    10   7 N        2.751    -0.070    22.598     7.060
    11   6 C        2.922     0.042    27.066     8.532
    12   6 C        2.924    -0.060    29.502     8.907
    13   6 C        2.919    -0.039    28.966     8.826
    14   6 C        2.919    -0.039    28.976     8.827
    15   6 C        2.920    -0.056    29.380     8.889
    16   6 C        2.884     0.126    25.243     8.237
    17   8 O        1.709    -0.253    18.190     5.758
    18   6 C        2.884     0.125    25.252     8.238
    19   6 C        2.920    -0.055    29.376     8.888
    20   6 C        2.919    -0.039    28.966     8.826
    21   6 C        2.919    -0.038    28.946     8.823
    22   6 C        2.924    -0.060    29.482     8.904
    23   6 C        2.922     0.041    27.071     8.532
    24   6 C        2.920    -0.038    28.940     8.822
    25   6 C        2.923    -0.031    28.782     8.798
    26   6 C        2.973    -0.004    28.111     8.697
    27   6 C        2.925    -0.018    28.459     8.748
    28   6 C        2.920    -0.039    28.975     8.827
    29   6 C        2.922     0.069    26.464     8.436
    30   7 N        2.752    -0.071    22.626     7.065
    31   6 C        2.923     0.043    27.032     8.526
    32   6 C        2.923    -0.062    29.541     8.913
    33   6 C        2.919    -0.040    28.990     8.829
    34   6 C        2.919    -0.042    29.034     8.836
    35   6 C        2.920    -0.057    29.415     8.894
    36   6 C        2.883     0.125    25.266     8.241
    37   8 O        1.709    -0.257    18.254     5.768
    38   6 C        2.883     0.124    25.283     8.243
    39   6 C        2.920    -0.057    29.404     8.892
    40   6 C        2.919    -0.041    29.014     8.833
    41   6 C        2.919    -0.038    28.955     8.824
    42   6 C        2.923    -0.060    29.495     8.906
    43   6 C        2.923     0.043    27.042     8.528
    44   6 C        2.921    -0.040    28.991     8.830
    45   6 C        2.922    -0.021    28.529     8.759
    46   1 H        0.926     0.065     2.144     2.290
    47   1 H        0.805     0.311     0.689     1.303
    48   1 H        0.925     0.038     2.474     2.460
    49   1 H        0.926     0.047     2.357     2.401
    50   1 H        0.926     0.031     2.569     2.507
    51   1 H        0.926     0.036     2.497     2.471
    52   1 H        0.926     0.040     2.448     2.447
    53   1 H        0.926     0.052     2.289     2.366
    54   1 H        0.926     0.052     2.290     2.367
    55   1 H        0.926     0.041     2.440     2.443
    56   1 H        0.926     0.039     2.465     2.455
    57   1 H        0.926     0.035     2.514     2.480
    58   1 H        0.926     0.050     2.319     2.381
    59   1 H        0.926     0.050     2.322     2.383
    60   1 H        0.926     0.057     2.238     2.339
    61   1 H        0.926     0.045     2.378     2.411
    62   1 H        0.926     0.034     2.530     2.487
    63   1 H        0.926     0.031     2.568     2.506
    64   1 H        0.926     0.036     2.504     2.475
    65   1 H        0.926     0.049     2.329     2.386
    66   1 H        0.926     0.049     2.329     2.387
    67   1 H        0.926     0.037     2.486     2.466
    68   1 H        0.926     0.036     2.497     2.471
    69   1 H        0.926     0.036     2.500     2.473
    70   1 H        0.926     0.042     2.423     2.434
    71   1 H        0.926     0.038     2.475     2.460

molecular dipole:
                 x           y           z       tot (Debye)
 q only:       -1.199       1.170      -0.079
   full:       -1.383       1.406      -0.039       5.013

 projected vibrational frequencies (cm⁻¹)
eigval :       -0.00    -0.00    -0.00     0.00     0.00     0.00
eigval :        8.47     8.59    10.21    24.11    25.46    31.97
eigval :       39.82    43.51    49.39    50.92    69.44    81.67
eigval :       86.56   109.42   114.68   119.32   136.74   145.79
eigval :      172.12   177.76   188.18   209.91   217.71   248.68
eigval :      249.61   256.40   273.00   274.69   275.86   289.84
eigval :      296.69   354.48   368.14   374.88   376.86   380.86
eigval :      384.26   396.99   401.81   414.68   418.83   423.50
eigval :      428.78   430.48   443.96   445.67   449.28   464.42
eigval :      497.06   509.91   510.59   516.68   522.45   522.77
eigval :      542.97   551.43   575.76   585.37   587.91   594.24
eigval :      601.44   606.60   621.33   626.01   648.17   659.73
eigval :      660.69   661.09   661.57   663.57   675.73   692.36
eigval :      699.90   722.13   755.17   778.32   778.57   779.09
eigval :      779.56   795.61   804.63   812.56   824.83   829.25
eigval :      837.34   854.51   855.84   863.37   863.40   865.05
eigval :      866.36   875.88   876.81   895.49   897.30   897.40
eigval :      899.15   912.92   913.90   914.49   915.59   917.38
eigval :      917.53   918.10   921.96   923.94   926.35   932.02
eigval :      934.68  1004.16  1014.62  1046.29  1089.83  1090.70
eigval :     1091.35  1091.87  1107.84  1108.83  1119.22  1121.95
eigval :     1125.34  1132.67  1139.47  1170.88  1172.00  1175.59
eigval :     1175.96  1181.07  1182.23  1185.46  1190.28  1197.22
eigval :     1200.84  1202.21  1221.57  1225.64  1243.22  1243.35
eigval :     1247.85  1258.90  1262.07  1262.36  1262.81  1270.88
eigval :     1310.22  1310.46  1311.36  1314.52  1315.97  1318.47
eigval :     1329.90  1338.39  1341.92  1357.13  1357.57  1402.69
eigval :     1404.89  1424.25  1424.75  1442.81  1443.45  1477.32
eigval :     1480.11  1488.00  1490.57  1505.58  1507.48  1551.69
eigval :     1562.27  1567.14  1568.45  1580.83  1580.99  1581.99
eigval :     1586.02  1591.27  1591.43  1603.05  1604.26  1625.58
eigval :     1677.79  3056.82  3077.03  3084.58  3085.52  3088.67
eigval :     3089.19  3089.36  3091.11  3091.79  3093.97  3096.85
eigval :     3098.15  3098.52  3099.22  3100.32  3101.12  3103.19
eigval :     3104.75  3105.50  3106.27  3107.18  3112.05  3112.67
eigval :     3114.40  3114.96  3489.95

   temp. (K)  partition function   enthalpy   heat capacity  entropy
                                   cal/mol     cal/K/mol   cal/K/mol   J/K/mol
 298.15  VIB  0.155E+18            21034.018    131.889    131.479
         ROT  0.961E+08              888.752      2.981     39.508
         INT  0.149E+26            21922.771    134.870    170.987
         TR   0.137E+29             1481.254      4.968     44.971
         TOT                       23404.0247   139.8379   215.9580   903.5683

       T/K    H(0)-H(T)+PV         H(T)/Eh          T*S/Eh         G(T)/Eh
   ------------------------------------------------------------------------
    298.15    0.372967E-01    0.569013E+00    0.102609E+00    0.466404E+00
   ------------------------------------------------------------------------

         :::::::::::::::::::::::::::::::::::::::::::::::::::::
         ::                  THERMODYNAMIC                  ::
         :::::::::::::::::::::::::::::::::::::::::::::::::::::
         :: total free energy        -118.431079644247 Eh   ::
         ::.................................................::
         :: total energy             -118.897483804988 Eh   ::
         :: zero point energy           0.531716090020 Eh   ::
         :: G(RRHO) w/o ZPVE           -0.065311929279 Eh   ::
         :: G(RRHO) contrib.            0.466404160741 Eh   ::
         :::::::::::::::::::::::::::::::::::::::::::::::::::::

           -------------------------------------------------
          | TOTAL ENERGY             -118.897483804988 Eh   |
          | TOTAL ENTHALPY           -118.328471027606 Eh   |
          | TOTAL FREE ENERGY        -118.431079644247 Eh   |
          | GRADIENT NORM               0.000063871379 Eh/α |
          | HOMO-LUMO GAP               1.264871795001 eV   |
           -------------------------------------------------

 * finished run on 2025/09/14 at 06:01:19.317
