   * xtb version 6.7.1 (edcfbbe) compiled by 'albert@albert-system' on 2024-07-22

   ID    Z sym.   atoms
    1    8 O      1, 5, 17, 37
    2    6 C      2-4, 6-9, 11-16, 18-29, 31-36, 38-45
    3    7 N      10, 30
    4    1 H      46-71

          program call               : xtb data2507/gas/PXZPDO/PXZPDO_gas_T1_crest.xyz --gfn 2 --spinpol --tblite --uhf 2 --ohess vtight --parallel 40 --molden --ceasefiles --namespace data2507/gas/PXZPDO/PXZPDO_gas_T1_finalOpt
 * total energy  :  -118.8294728 Eh     change       -0.7497121E-08 Eh
 * total energy  :  -118.8294924 Eh     change       -0.1956332E-04 Eh
 * total energy  :  -118.8295005 Eh     change       -0.8168191E-05 Eh
 * total energy  :  -118.8295021 Eh     change       -0.1624233E-05 Eh
 * total energy  :  -118.8295050 Eh     change       -0.2892660E-05 Eh
 * total energy  :  -118.8295075 Eh     change       -0.2481611E-05 Eh
 * total energy  :  -118.8295099 Eh     change       -0.2334717E-05 Eh
 * total energy  :  -118.8295120 Eh     change       -0.2112269E-05 Eh
 * total energy  :  -118.8295141 Eh     change       -0.2115227E-05 Eh
 * total energy  :  -118.8295165 Eh     change       -0.2407591E-05 Eh
 * total energy  :  -118.8295488 Eh     change       -0.1585029E-06 Eh
 * total energy  :  -118.8295490 Eh     change       -0.2297880E-06 Eh
 * total energy  :  -118.8295494 Eh     change       -0.3438121E-06 Eh
 * total energy  :  -118.8295496 Eh     change       -0.2713201E-06 Eh
 * total energy  :  -118.8295499 Eh     change       -0.2430856E-06 Eh
 * total energy  :  -118.8295501 Eh     change       -0.1969756E-06 Eh
 * total energy  :  -118.8295502 Eh     change       -0.1155458E-06 Eh
 * total energy  :  -118.8295504 Eh     change       -0.1911029E-06 Eh
 * total energy  :  -118.8295504 Eh     change       -0.7589631E-07 Eh
   *** GEOMETRY OPTIMIZATION CONVERGED AFTER 54 ITERATIONS ***

 final structure:
================
71
 xtb: 6.7.1 (edcfbbe)
O            1.54374448435544       -4.32739132262952        1.17806917579180
C            1.30097807971975       -3.13402416123149        0.88913497478900
C           -0.02659589204833       -2.65645494802221        0.80623681334650
C           -0.46842202025154       -1.32285222813667        0.86622829541729
O            0.45318849911549       -0.36628419350540        1.21692453097104
C           -1.81041288421270       -0.94832308870237        0.60836276914980
C           -2.31290666210417        0.34400954393357        0.92783483045819
C           -3.61532001276225        0.69120679648714        0.68463154984962
C           -4.49382146064764       -0.21699171309063        0.08627308693802
N           -5.83609468965482        0.14718157212688       -0.16653175073015
C           -6.31602292224078        0.21807134513723       -1.46744666051383
C           -5.50061215270014       -0.01676428842092       -2.57236070797864
C           -6.01182537995913        0.05965436677841       -3.85559151042948
C           -7.34140773676472        0.38122303903053       -4.06377647008474
C           -8.16069399985371        0.64728368294058       -2.97861077550470
C           -7.65648162439329        0.57430984849957       -1.69173329549718
O           -8.51128928014945        0.87956708356104       -0.66798030481146
C           -8.02477821947516        0.80465281188753        0.60875223016999
C           -8.90218794603849        1.09991240968451        1.63766241687634
C           -8.48373162083786        1.01469631206334        2.95566956065914
C           -7.18974347363176        0.61464640204889        3.23902664379321
C           -6.30629834472974        0.31968534928937        2.21618456542246
C           -6.69930054438875        0.42933841856559        0.88415370930083
C           -4.02325303482131       -1.49264531360450       -0.25435238927229
C           -2.72844445471983       -1.84883133522645       -0.00004743748774
C            2.43643407661230       -2.20967479371188        0.64381605330060
C            3.57243665791154       -2.29849714608088        1.44464579840102
C            4.65378827885033       -1.47123534256966        1.22268807363838
C            4.61728849680376       -0.55798229786502        0.17464640942448
N            5.71913647550581        0.31099899279971       -0.05099739324632
C            5.60590080210112        1.66513321830071        0.22616626915939
C            4.44206758624201        2.21655841107280        0.75479741892580
C            4.36382579112247        3.57339166197056        1.01699167386175
C            5.44294135234461        4.40096404058544        0.76353977386518
C            6.61576605831539        3.86526831529184        0.25514051429537
C            6.70349747667722        2.50984807693043       -0.00858915185568
O            7.89513393940868        2.03965992411348       -0.49175110142128
C            7.99402300740234        0.69694967811410       -0.74466578193952
C            9.20342543206039        0.22938019331193       -1.22722908877880
C            9.36226774433600       -1.11585923660399       -1.52072765600527
C            8.30361103711368       -1.98778813589295       -1.33948327522458
C            7.09085638593226       -1.52852170055832       -0.85595250744561
C            6.91960282575335       -0.18415269382128       -0.53856723533651
C            3.50412153545620       -0.49073416500317       -0.65630139909908
C            2.42124835749175       -1.31283650962166       -0.42299708268496
H           -0.77829224734171       -3.42690819056246        0.88944747212693
H            0.06762649648918        0.50887704480599        1.09499776625471
H           -1.68011622943215        1.07633574745817        1.41255996812736
H           -3.97286837099978        1.67777545205105        0.94484716305727
H           -4.46013436760293       -0.25371016771643       -2.41851193958278
H           -5.36123519148910       -0.13078716571239       -4.69493311909429
H           -7.74166390135037        0.43718126931994       -5.06352940877025
H           -9.19600502051111        0.91930219045849       -3.10725055212348
H           -9.90941127274849        1.38861188305960        1.38354222484618
H           -9.17189115229023        1.24843173668553        3.75232164324563
H           -6.86074361357573        0.52491991453680        4.26259455055655
H           -5.30491769998881       -0.00794708251201        2.44490602938804
H           -4.70303001929993       -2.19710386294681       -0.71206090262567
H           -2.38941197610461       -2.83199596432374       -0.28150502106469
H            3.58597840045441       -3.01673724349258        2.25010838238030
H            5.52768894899451       -1.52127447626876        1.85612646121484
H            3.60236368966169        1.57298501952760        0.96455549515700
H            3.45199690655754        3.98070857777774        1.42550704634276
H            5.38159863050219        5.45852784138557        0.96559704310587
H            7.47795679678283        4.48216647864042        0.05899530676654
H           10.00594289229836        0.93538495201737       -1.36866871529947
H           10.30833001971680       -1.47349068789280       -1.89487033184450
H            8.41485227275563       -3.03442389417935       -1.57609537699438
H            6.26615693760022       -2.21082172141110       -0.72465084252858
H            3.49920127592899        0.20756206923934       -1.48135021592743
H            1.56355350175267       -1.27389110437822       -1.07733359096315

 projected vibrational frequencies (cm⁻¹)
eigval :       -0.00    -0.00     0.00     0.00     0.00     0.00
eigval :        7.26     9.26     9.85    23.12    28.55    34.87
eigval :       37.88    45.39    55.79    56.66    73.07    82.92
eigval :       88.55   111.99   112.13   119.63   144.43   146.62
eigval :      168.12   176.25   191.11   210.19   218.38   246.41
eigval :      246.89   262.64   268.35   275.03   278.29   292.27
eigval :      307.10   340.94   348.02   357.92   377.35   378.92
eigval :      383.35   390.80   397.66   403.08   408.49   417.75
eigval :      429.83   432.55   438.22   448.29   454.92   461.30
eigval :      471.97   503.30   504.11   507.91   517.71   525.76
eigval :      527.20   540.82   546.55   568.54   581.30   584.44
eigval :      587.07   596.14   606.38   613.51   620.10   641.27
eigval :      655.50   664.67   665.66   667.61   668.83   674.20
eigval :      686.72   700.82   751.31   757.00   775.73   778.24
eigval :      778.99   779.09   780.90   792.21   805.27   815.05
eigval :      824.60   825.13   855.44   855.86   865.53   866.54
eigval :      866.82   867.11   869.98   897.21   899.13   899.27
eigval :      900.44   903.12   905.98   912.94   913.23   915.17
eigval :      916.40   917.28   917.53   918.09   919.40   919.56
eigval :      927.85   985.51  1003.84  1015.00  1085.84  1086.11
eigval :     1087.24  1087.41  1111.84  1112.02  1113.81  1120.89
eigval :     1123.83  1127.99  1144.44  1164.90  1169.48  1172.60
eigval :     1174.33  1175.04  1178.67  1182.63  1190.13  1201.07
eigval :     1205.84  1207.03  1221.14  1232.28  1238.65  1239.78
eigval :     1255.78  1256.49  1257.51  1258.58  1262.75  1277.44
eigval :     1306.39  1312.36  1314.40  1315.30  1318.01  1319.50
eigval :     1330.07  1333.37  1343.54  1348.49  1354.67  1362.91
eigval :     1400.72  1418.39  1421.67  1422.31  1441.36  1442.56
eigval :     1454.13  1455.39  1458.89  1465.89  1473.04  1478.87
eigval :     1486.10  1495.41  1550.61  1558.41  1560.72  1566.33
eigval :     1566.93  1568.87  1578.61  1580.97  1581.23  1589.83
eigval :     1592.23  3042.92  3072.80  3073.18  3076.23  3079.08
eigval :     3088.63  3090.77  3092.68  3094.39  3094.85  3095.22
eigval :     3101.06  3102.18  3103.33  3103.63  3103.90  3110.26
eigval :     3111.95  3113.00  3113.39  3113.59  3114.84  3114.95
eigval :     3115.51  3115.65  3515.17

   temp. (K)  partition function   enthalpy   heat capacity  entropy
                                   cal/mol     cal/K/mol   cal/K/mol   J/K/mol
 298.15  VIB  0.132E+18            21201.936    133.646    132.293
         ROT  0.971E+08              888.752      2.981     39.529
         INT  0.128E+26            22090.689    136.627    171.822
         TR   0.137E+29             1481.254      4.968     44.971
         TOT                       23571.9426   141.5952   216.7935   907.0639

       T/K    H(0)-H(T)+PV         H(T)/Eh          T*S/Eh         G(T)/Eh
   ------------------------------------------------------------------------
    298.15    0.375643E-01    0.566029E+00    0.103006E+00    0.463024E+00
   ------------------------------------------------------------------------

         :::::::::::::::::::::::::::::::::::::::::::::::::::::
         ::                  THERMODYNAMIC                  ::
         :::::::::::::::::::::::::::::::::::::::::::::::::::::
         :: total free energy        -118.366526626524 Eh   ::
         ::.................................................::
         :: total energy             -118.829550490734 Eh   ::
         :: zero point energy           0.528465161550 Eh   ::
         :: G(RRHO) w/o ZPVE           -0.065441297341 Eh   ::
         :: G(RRHO) contrib.            0.463023864209 Eh   ::
         :::::::::::::::::::::::::::::::::::::::::::::::::::::

           -------------------------------------------------
          | TOTAL ENERGY             -118.829550490734 Eh   |
          | TOTAL ENTHALPY           -118.263521047610 Eh   |
          | TOTAL FREE ENERGY        -118.366526626524 Eh   |
          | GRADIENT NORM               0.000055543996 Eh/α |
           -------------------------------------------------

 * finished run on 2025/09/14 at 06:13:21.985
