   * xtb version 6.7.1 (edcfbbe) compiled by 'albert@albert-system' on 2024-07-22

   ID    Z sym.   atoms
    1    6 C      1-34, 36-48
    2    7 N      35
    3    1 H      49-107

          program call               : xtb data2507/toluene/TBAc/TBAc_toluene_S0_finalOpt.xtbopt.xyz --gfn 2 --uhf 2 --gbsa toluene --ohess vtight --parallel 40 --molden --ceasefiles --namespace data2507/toluene/TBAc/TBAc_toluene_T1_preOpt
      * Solvation model:               GBSA
        Solvent                        toluene
        Solvent mass                       9.2140E+01 g/mol
          :  Hamiltonian                  GFN2-xTB          :
 * total energy  :  -133.5297728 Eh     change       -0.9778176E-08 Eh
 * total energy  :  -133.5372661 Eh     change       -0.7493343E-02 Eh
 * total energy  :  -133.5489827 Eh     change       -0.1171657E-01 Eh
 * total energy  :  -133.5605046 Eh     change       -0.1152197E-01 Eh
 * total energy  :  -133.5649313 Eh     change       -0.4426652E-02 Eh
 * total energy  :  -133.5745317 Eh     change       -0.9600381E-02 Eh
 * total energy  :  -133.5781008 Eh     change       -0.3569121E-02 Eh
 * total energy  :  -133.5788034 Eh     change       -0.7025656E-03 Eh
 * total energy  :  -133.5799077 Eh     change       -0.1104301E-02 Eh
 * total energy  :  -133.5802926 Eh     change       -0.3849651E-03 Eh
 * total energy  :  -133.5827317 Eh     change       -0.3120505E-06 Eh
 * total energy  :  -133.5827319 Eh     change       -0.2181322E-06 Eh
 * total energy  :  -133.5827322 Eh     change       -0.2410781E-06 Eh
 * total energy  :  -133.5827324 Eh     change       -0.2469850E-06 Eh
 * total energy  :  -133.5827326 Eh     change       -0.2225386E-06 Eh
 * total energy  :  -133.5827329 Eh     change       -0.2263711E-06 Eh
 * total energy  :  -133.5827331 Eh     change       -0.1858367E-06 Eh
 * total energy  :  -133.5827330 Eh     change        0.3265123E-07 Eh
 * total energy  :  -133.5827331 Eh     change       -0.9959774E-07 Eh
   *** GEOMETRY OPTIMIZATION CONVERGED AFTER 56 ITERATIONS ***

 final structure:
================
107
 xtb: 6.7.1 (edcfbbe)
C           -3.51981689547767        3.79011887951566        1.29695266484997
C           -3.51712282045395        3.26484930551199       -0.15167982022202
C           -3.85313874181030        4.42269055314788       -1.10733157012660
C           -4.62992510273776        2.21908537785968       -0.27494197522831
C           -2.13776637762711        2.71184525206854       -0.44932204964670
C           -1.04914570754859        3.56376892018434       -0.49770175178318
C            0.23991187476727        3.12283590357481       -0.66543521299557
C            0.55460160458938        1.68555720148717       -0.75829644529032
C           -0.59775128201446        0.71162932072064       -1.06979347263373
C           -0.75645902499874        0.52477343756519       -2.63711273155729
C           -1.71568776519642       -0.59187571297333       -3.07688350743059
C            0.55163762503836        0.32616201627652       -3.42663215877393
C           -1.33099015083792        1.83825436033540       -3.21066844405100
C            0.09390665677559       -0.31868590405919       -0.00189659350977
C           -0.78391318623386       -1.20515785930184        1.01260483750038
C            0.03468458334800       -2.32765172263129        1.81797311706872
C            0.41071922810204       -3.62523743292813        1.08072426189915
C            1.34721787586642       -1.78124555851899        2.39106823744748
C           -0.84036551300329       -2.79524183669456        3.00161135544170
C           -1.32176227692248       -0.35740022318259        2.13977684492053
C           -2.60706666097517       -0.25199446726521        2.48613861291638
C           -3.65298139175790       -0.95619500406756        1.79203306075535
C           -3.36317551121446       -1.76066973629326        0.76474818357631
C           -4.45673362223880       -2.56732100644764        0.07243964303866
C           -3.94340440205739       -3.48116575153825       -1.04605565695044
C           -5.47886690334690       -1.59852481504019       -0.54213871545395
C           -5.15813250265658       -3.45467280296792        1.11371494103484
C           -1.96008457036983       -1.85791811863205        0.22958541045890
C            1.07719064207311       -1.17348436954408       -0.77709549723433
C            0.62931575628215       -2.25701897326690       -1.52967932094013
C            1.44457856368872       -2.98002464924103       -2.38356821260720
C            2.76606116582068       -2.60064453812941       -2.54275892807067
C            3.25814429649200       -1.55989356176501       -1.78747109098992
C            2.45198463597296       -0.87627425961900       -0.86641694066051
N            3.04442752536208        0.06927777824222       -0.04900866379933
C            4.45770882694126        0.20574298953178       -0.02912674315161
C            5.02993172026108        1.40983987026823       -0.42378266962080
C            6.40389202855324        1.56500674519992       -0.39346095319166
C            7.21377883945988        0.52334513847944        0.02971790347576
C            6.64472688143576       -0.67627211381083        0.42649804760638
C            5.27155226190265       -0.83801637341034        0.40082101686114
C            2.31076193465199        0.77862656403607        0.87847417559499
C            2.94255343159030        1.32397700143284        1.97529325149090
C            2.26023850960599        2.08033542467670        2.91807054352163
C            0.89060215577026        2.30359455805419        2.72827647892705
C            0.21843112798641        1.75555519059218        1.68385220960902
C            0.85784621932245        0.94649011281752        0.60498361367961
C           -1.94780510449969        1.22776590775017       -0.52415250625035
H           -2.74960636130393        4.54411643573527        1.43940844383080
H           -3.33100510214445        2.97368605758518        1.99123271160512
H           -4.48490237881316        4.23200661054557        1.53757132551880
H           -3.79121017372325        4.09154860883471       -2.14196796492653
H           -4.86432574236421        4.77827024974344       -0.91906907372582
H           -3.17332306910952        5.25963257655144       -0.97727942570754
H           -4.71655607377180        1.85708505622722       -1.29724256412949
H           -4.45667226425064        1.37586425206849        0.38791681478103
H           -5.58197624489868        2.67194057790781       -0.00384949572183
H           -1.20619487649146        4.63005133681885       -0.41206447780197
H            1.06054871214907        3.82485005760499       -0.69365423068013
H            1.40630201440798        1.52452849157662       -1.41832924580556
H           -2.66900707507469       -0.55108691577463       -2.55618071364033
H           -1.27251491822772       -1.57248796525225       -2.95096427970698
H           -1.93110169523912       -0.46962631513166       -4.13765601813268
H            1.14272707280341       -0.50993173833751       -3.08458602136682
H            1.16737879512659        1.22224509236483       -3.40824688745225
H            0.29718701484313        0.14039955035158       -4.46920861111811
H           -2.34476455497606        2.03419905150590       -2.87892551160885
H           -1.34555807603040        1.77234909945449       -4.29748725681578
H           -0.71211075844923        2.68703066580180       -2.93544298341437
H            0.91686068753576       -4.27548219312277        1.79317990590108
H            1.09354404082716       -3.46029779681793        0.25791205540520
H           -0.45550310089042       -4.17295539345595        0.71997440403656
H            1.73621458442964       -2.48046363692110        3.13025608181574
H            2.09395700434947       -1.67835863440446        1.61110188090318
H            1.22701851113626       -0.82018265529047        2.87997171521627
H           -0.89307400349467       -2.04979773353721        3.78950838176878
H           -0.41526567520044       -3.69835450039142        3.43597811627622
H           -1.85164146013104       -3.02135977269532        2.67515940050599
H           -0.58219078635917        0.10254809874326        2.77120371917898
H           -2.88583059876409        0.34411180035027        3.34516306063170
H           -4.65779093044830       -0.84875584714362        2.17243429364743
H           -3.27815386398787       -4.24951671974903       -0.65892073161107
H           -3.42718058327263       -2.91939496436450       -1.81908908965786
H           -4.78955047446532       -3.98482540793414       -1.51026026886940
H           -6.28744760834370       -2.15301929941950       -1.01413991110177
H           -5.90783759987375       -0.94765127764664        0.21431196005803
H           -5.00413158249083       -0.97687465581109       -1.29773355139614
H           -5.92803114700724       -4.05758583813143        0.63612645804056
H           -5.62753165320132       -2.85816782343983        1.89089143715297
H           -4.44132937391188       -4.12427602672360        1.58546887445887
H           -1.74920807936898       -2.91524746786276        0.09583924399852
H           -1.99253952925878       -1.41011982699177       -0.75952724200317
H           -0.39222192888118       -2.56806127652641       -1.44160905126882
H            1.04035621640675       -3.81519524750826       -2.93525531235429
H            3.41122766683406       -3.11243863422233       -3.24133612412676
H            4.28858017890107       -1.26242402938530       -1.90572765757008
H            4.39053941818810        2.21881318982468       -0.74553186595935
H            6.84312639398813        2.50165484070494       -0.70359303924914
H            8.28614663011610        0.64697856484345        0.05266261455961
H            7.27201990024957       -1.48842392059837        0.76325735162349
H            4.82187228897191       -1.76942467496833        0.71327139835534
H            4.00043036551217        1.15053078587211        2.11190094995852
H            2.77974526826068        2.49590365323489        3.76687441043818
H            0.35226456975254        2.92390083176409        3.43274042407211
H           -0.81018785025082        2.02900560933348        1.54840833588271
H           -2.09776336960119        0.83625601832183        0.48092476596709
H           -2.75637165050997        0.80192320025912       -1.11481072737069

          :  Hamiltonian                  GFN2-xTB          :
         :: gradient norm              0.000065366594 Eh/a0 ::
         :: HOMO-LUMO gap              1.302561189889 eV    ::
         :: SCC energy              -135.799274918401 Eh    ::
         :: -> dispersion             -0.163410894913 Eh    ::
         :: -> Gsolv                  -0.037817840975 Eh    ::
         :: repulsion energy           2.216541794232 Eh    ::

    * Orbital Energies and Occupations

         #    Occupation            Energy/Eh            Energy/eV
      -------------------------------------------------------------
         1        2.0000           -0.6668954             -18.1471
       ...           ...                  ...                  ...
       115        2.0000           -0.4084949             -11.1157
       116        2.0000           -0.4049313             -11.0187
       117        2.0000           -0.4044815             -11.0065
       118        2.0000           -0.4020561             -10.9405
       119        2.0000           -0.3934930             -10.7075
       120        2.0000           -0.3916672             -10.6578
       121        2.0000           -0.3888056             -10.5799
       122        2.0000           -0.3835741             -10.4376
       123        2.0000           -0.3775779             -10.2744
       124        2.0000           -0.3569170              -9.7122
       125        2.0000           -0.3453218              -9.3967
       126        1.0000           -0.2953920              -8.0380
       127        1.0000           -0.2812970              -7.6545 (HOMO)
       128                         -0.2334286              -6.3519 (LUMO)
       129                         -0.2333113              -6.3487
       130                         -0.2313439              -6.2952
       131                         -0.2177808              -5.9261
       132                         -0.2124764              -5.7818
       133                         -0.1825389              -4.9671
       134                         -0.1528731              -4.1599
       135                         -0.1307157              -3.5570
       136                         -0.1184849              -3.2241
       137                         -0.1032474              -2.8095
       138                         -0.0895925              -2.4379
       ...                                ...                  ...
       251                          0.6929575              18.8563
      -------------------------------------------------------------
                  HL-Gap            0.0478683 Eh            1.3026 eV

     #   Z          covCN         q      C6AA      α(0)
     1   6 C        3.762    -0.101    22.466     6.756
     2   6 C        3.902     0.026    20.085     6.370
     3   6 C        3.760    -0.103    22.515     6.764
     4   6 C        3.761    -0.106    22.575     6.773
     5   6 C        2.957    -0.008    28.221     8.713
     6   6 C        2.898    -0.042    29.046     8.837
     7   6 C        2.898    -0.057    29.408     8.891
     8   6 C        4.013    -0.013    20.725     6.467
     9   6 C        3.983     0.004    20.430     6.422
    10   6 C        3.892     0.022    20.160     6.383
    11   6 C        3.762    -0.107    22.582     6.774
    12   6 C        3.767    -0.109    22.621     6.779
    13   6 C        3.769    -0.107    22.575     6.771
    14   6 C        4.017     0.000    20.503     6.432
    15   6 C        3.880     0.012    20.329     6.410
    16   6 C        3.899     0.023    20.141     6.380
    17   6 C        3.767    -0.109    22.623     6.779
    18   6 C        3.763    -0.100    22.453     6.754
    19   6 C        3.765    -0.106    22.574     6.772
    20   6 C        2.913    -0.035    28.874     8.811
    21   6 C        2.902    -0.041    29.010     8.831
    22   6 C        2.907    -0.053    29.324     8.879
    23   6 C        2.957     0.004    27.929     8.668
    24   6 C        3.903     0.024    20.114     6.375
    25   6 C        3.761    -0.107    22.601     6.777
    26   6 C        3.762    -0.104    22.525     6.765
    27   6 C        3.762    -0.104    22.523     6.765
    28   6 C        3.810    -0.080    22.013     6.679
    29   6 C        2.964    -0.005    28.146     8.702
    30   6 C        2.930    -0.042    29.034     8.837
    31   6 C        2.917    -0.049    29.228     8.865
    32   6 C        2.917    -0.037    28.914     8.818
    33   6 C        2.925    -0.060    29.498     8.907
    34   6 C        2.930     0.056    26.734     8.480
    35   7 N        2.756    -0.063    22.457     7.038
    36   6 C        2.930     0.069    26.464     8.437
    37   6 C        2.922    -0.039    28.957     8.825
    38   6 C        2.919    -0.029    28.713     8.787
    39   6 C        2.919    -0.033    28.814     8.803
    40   6 C        2.919    -0.029    28.722     8.789
    41   6 C        2.921    -0.039    28.969     8.826
    42   6 C        2.922     0.045    26.997     8.521
    43   6 C        2.915    -0.061    29.528     8.911
    44   6 C        2.914    -0.058    29.443     8.898
    45   6 C        2.907    -0.047    29.170     8.856
    46   6 C        2.915    -0.052    29.279     8.873
    47   6 C        4.007     0.019    20.182     6.382
    48   6 C        3.809    -0.074    21.906     6.662
    49   1 H        0.925     0.032     2.556     2.500
    50   1 H        0.925     0.032     2.563     2.504
    51   1 H        0.925     0.036     2.502     2.474
    52   1 H        0.925     0.033     2.549     2.497
    53   1 H        0.925     0.036     2.508     2.476
    54   1 H        0.925     0.033     2.541     2.493
    55   1 H        0.925     0.032     2.561     2.503
    56   1 H        0.925     0.042     2.416     2.431
    57   1 H        0.925     0.034     2.535     2.490
    58   1 H        0.926     0.014     2.830     2.631
    59   1 H        0.926     0.001     3.035     2.724
    60   1 H        0.925     0.029     2.597     2.520
    61   1 H        0.925     0.033     2.551     2.498
    62   1 H        0.925     0.044     2.400     2.423
    63   1 H        0.925     0.034     2.529     2.487
    64   1 H        0.926     0.038     2.473     2.459
    65   1 H        0.925     0.024     2.668     2.554
    66   1 H        0.925     0.032     2.554     2.499
    67   1 H        0.925     0.038     2.474     2.460
    68   1 H        0.925     0.031     2.569     2.507
    69   1 H        0.925     0.033     2.549     2.497
    70   1 H        0.925     0.034     2.531     2.488
    71   1 H        0.925     0.040     2.449     2.447
    72   1 H        0.925     0.034     2.533     2.489
    73   1 H        0.925     0.030     2.589     2.516
    74   1 H        0.925     0.029     2.595     2.519
    75   1 H        0.925     0.030     2.582     2.513
    76   1 H        0.925     0.031     2.578     2.511
    77   1 H        0.925     0.032     2.555     2.500
    78   1 H        0.925     0.038     2.470     2.457
    79   1 H        0.926     0.037     2.490     2.468
    80   1 H        0.925     0.012     2.856     2.643
    81   1 H        0.926     0.016     2.801     2.617
    82   1 H        0.925     0.033     2.550     2.497
    83   1 H        0.925     0.041     2.437     2.441
    84   1 H        0.925     0.035     2.518     2.482
    85   1 H        0.925     0.036     2.503     2.474
    86   1 H        0.925     0.036     2.500     2.473
    87   1 H        0.925     0.033     2.540     2.492
    88   1 H        0.925     0.036     2.501     2.473
    89   1 H        0.925     0.034     2.531     2.488
    90   1 H        0.925     0.030     2.580     2.512
    91   1 H        0.925     0.061     2.187     2.313
    92   1 H        0.925     0.076     2.021     2.223
    93   1 H        0.926     0.058     2.227     2.334
    94   1 H        0.926     0.025     2.654     2.548
    95   1 H        0.926     0.022     2.697     2.568
    96   1 H        0.926     0.022     2.703     2.571
    97   1 H        0.926     0.037     2.491     2.468
    98   1 H        0.926     0.040     2.450     2.448
    99   1 H        0.926     0.040     2.453     2.449
   100   1 H        0.926     0.041     2.441     2.443
   101   1 H        0.926     0.039     2.461     2.453
   102   1 H        0.926     0.012     2.855     2.642
   103   1 H        0.926     0.009     2.911     2.668
   104   1 H        0.925     0.011     2.868     2.648
   105   1 H        0.926     0.041     2.437     2.441
   106   1 H        0.925     0.076     2.026     2.226
   107   1 H        0.925     0.056     2.245     2.343

molecular dipole:
                 x           y           z       tot (Debye)
 q only:       -0.475      -0.974      -0.739
   full:       -0.234      -0.807      -0.625       2.661

 projected vibrational frequencies (cm⁻¹)
eigval :       -0.00    -0.00     0.00     0.00     0.00     0.00
eigval :       20.04    29.72    33.28    36.10    36.67    44.98
eigval :       48.55    55.08    62.42    73.41    78.30    91.85
eigval :      100.53   102.37   108.08   112.78   129.27   146.85
eigval :      158.63   164.03   167.24   174.57   176.60   194.27
eigval :      201.88   203.98   210.95   223.12   224.14   225.82
eigval :      231.77   233.40   236.27   240.87   248.68   250.17
eigval :      259.71   265.29   269.84   283.89   289.91   297.63
eigval :      304.95   307.71   311.83   320.25   327.85   335.62
eigval :      344.71   349.53   351.54   353.28   356.88   362.48
eigval :      368.77   372.99   376.66   377.07   393.92   395.69
eigval :      402.36   410.07   421.85   426.62   436.61   441.31
eigval :      450.36   452.96   460.77   469.22   478.08   484.01
eigval :      486.21   492.86   504.46   506.55   515.20   523.12
eigval :      529.62   537.32   544.16   552.49   580.92   589.42
eigval :      594.48   598.18   609.35   614.20   632.37   647.93
eigval :      669.78   672.88   700.02   704.64   725.08   726.48
eigval :      736.90   747.41   757.29   771.24   777.43   810.35
eigval :      834.36   842.53   858.01   862.59   863.30   868.15
eigval :      872.43   877.64   880.54   881.35   883.30   888.10
eigval :      898.49   898.71   902.12   907.49   911.72   913.80
eigval :      916.78   922.32   930.99   936.31   936.43   937.53
eigval :      946.79   951.43   952.52   956.07   957.59   958.12
eigval :      959.30   959.95   960.20   960.90   961.58   962.83
eigval :      964.69   969.08   990.54  1004.20  1014.80  1018.71
eigval :     1027.16  1029.84  1030.30  1034.75  1037.07  1039.16
eigval :     1048.52  1052.92  1057.38  1069.66  1079.01  1085.02
eigval :     1089.29  1091.29  1096.31  1104.22  1113.04  1115.91
eigval :     1132.09  1148.26  1159.89  1167.67  1178.86  1180.32
eigval :     1185.36  1194.92  1199.47  1200.02  1206.15  1207.06
eigval :     1212.81  1217.75  1218.27  1220.13  1224.25  1225.15
eigval :     1227.56  1228.74  1236.45  1239.72  1242.66  1245.27
eigval :     1251.70  1264.40  1273.19  1275.10  1275.84  1292.55
eigval :     1298.18  1303.40  1310.61  1317.16  1322.20  1328.29
eigval :     1340.62  1342.72  1360.22  1370.26  1387.07  1397.70
eigval :     1402.31  1403.91  1405.06  1406.45  1409.22  1409.95
eigval :     1410.94  1414.74  1425.34  1426.47  1428.21  1434.28
eigval :     1434.91  1437.48  1453.47  1459.59  1466.54  1472.98
eigval :     1474.74  1485.14  1488.79  1489.99  1490.60  1492.18
eigval :     1492.68  1494.02  1494.73  1495.50  1499.20  1499.47
eigval :     1501.45  1502.26  1503.35  1503.44  1506.33  1513.57
eigval :     1516.09  1516.95  1517.32  1518.90  1519.66  1521.02
eigval :     1525.83  1528.57  1530.47  1556.42  1576.26  1578.77
eigval :     1581.58  1590.61  1627.31  1687.98  2979.19  2992.58
eigval :     3005.97  3006.38  3009.25  3009.68  3013.43  3015.03
eigval :     3015.54  3016.59  3016.64  3017.80  3020.67  3022.70
eigval :     3023.43  3023.82  3025.10  3025.79  3028.81  3030.07
eigval :     3031.24  3031.92  3033.56  3033.77  3038.17  3038.72
eigval :     3045.79  3046.48  3046.73  3047.56  3047.70  3049.53
eigval :     3050.48  3051.41  3051.61  3052.88  3056.41  3058.94
eigval :     3065.04  3065.87  3069.70  3071.76  3074.94  3075.24
eigval :     3076.18  3077.15  3077.73  3084.71  3086.24  3088.25
eigval :     3088.51  3093.21  3096.78  3098.81  3106.81  3123.98
eigval :     3152.84  3171.88  3198.15

   temp. (K)  partition function   enthalpy   heat capacity  entropy
                                   cal/mol     cal/K/mol   cal/K/mol   J/K/mol
 298.15  VIB  0.221E+19            27958.517    182.763    167.372
         ROT  0.465E+08              888.752      2.981     38.067
         INT  0.103E+27            28847.270    185.744    205.439
         TR   0.156E+29             1481.254      4.968     45.221
         TOT                       30328.5236   190.7122   250.6600  1048.7612

       T/K    H(0)-H(T)+PV         H(T)/Eh          T*S/Eh         G(T)/Eh
   ------------------------------------------------------------------------
    298.15    0.483316E-01    0.972381E+00    0.119097E+00    0.853284E+00
   ------------------------------------------------------------------------

         :::::::::::::::::::::::::::::::::::::::::::::::::::::
         ::                  THERMODYNAMIC                  ::
         :::::::::::::::::::::::::::::::::::::::::::::::::::::
         :: total free energy        -132.729449233574 Eh   ::
         ::.................................................::
         :: total energy             -133.582733121694 Eh   ::
         :: zero point energy           0.924048941295 Eh   ::
         :: G(RRHO) w/o ZPVE           -0.070765053176 Eh   ::
         :: G(RRHO) contrib.            0.853283888120 Eh   ::
         :::::::::::::::::::::::::::::::::::::::::::::::::::::

           -------------------------------------------------
          | TOTAL ENERGY             -133.582733121694 Eh   |
          | TOTAL ENTHALPY           -132.610352601549 Eh   |
          | TOTAL FREE ENERGY        -132.729449233574 Eh   |
          | GRADIENT NORM               0.000065377315 Eh/α |
          | HOMO-LUMO GAP               1.302563912324 eV   |
           -------------------------------------------------

 * finished run on 2025/09/10 at 00:37:38.741
