   * xtb version 6.7.1 (edcfbbe) compiled by 'albert@albert-system' on 2024-07-22

   ID    Z sym.   atoms
    1    6 C      1-34, 36-48
    2    7 N      35
    3    1 H      49-107

          program call               : xtb data2507/toluene/TBAc/TBAc.xyz --gfn 2 --gbsa toluene --ohess vtight --parallel 40 --molden --ceasefiles --namespace data2507/toluene/TBAc/TBAc_toluene_S0_preOpt
      * Solvation model:               GBSA
        Solvent                        toluene
        Solvent mass                       9.2140E+01 g/mol
          :  Hamiltonian                  GFN2-xTB          :
 * total energy  :  -133.5456807 Eh     change       -0.6879077E-08 Eh
 * total energy  :  -133.5744799 Eh     change       -0.2879925E-01 Eh
 * total energy  :  -133.5905744 Eh     change       -0.1609445E-01 Eh
 * total energy  :  -133.5985216 Eh     change       -0.7947201E-02 Eh
 * total energy  :  -133.6036472 Eh     change       -0.5125621E-02 Eh
 * total energy  :  -133.6064103 Eh     change       -0.2763094E-02 Eh
 * total energy  :  -133.6075050 Eh     change       -0.1094690E-02 Eh
 * total energy  :  -133.6081210 Eh     change       -0.6160175E-03 Eh
 * total energy  :  -133.6085762 Eh     change       -0.4552061E-03 Eh
 * total energy  :  -133.6088308 Eh     change       -0.2546385E-03 Eh
 * total energy  :  -133.6125122 Eh     change       -0.2486842E-06 Eh
 * total energy  :  -133.6125125 Eh     change       -0.2804262E-06 Eh
 * total energy  :  -133.6125128 Eh     change       -0.3154676E-06 Eh
 * total energy  :  -133.6125131 Eh     change       -0.2937950E-06 Eh
 * total energy  :  -133.6125128 Eh     change        0.2624251E-06 Eh
 * total energy  :  -133.6125135 Eh     change       -0.6114632E-06 Eh
 * total energy  :  -133.6125133 Eh     change        0.1163946E-06 Eh
 * total energy  :  -133.6125136 Eh     change       -0.2619158E-06 Eh
 * total energy  :  -133.6125137 Eh     change       -0.9976608E-07 Eh
   *** GEOMETRY OPTIMIZATION CONVERGED AFTER 104 ITERATIONS ***

 final structure:
================
107
 xtb: 6.7.1 (edcfbbe)
C           -4.74361261159962       -1.16324821468386        1.73534802761070
C           -4.99648637943623        0.23547107738633        1.15685241853833
C           -5.66025757208999        1.07304222368938        2.25824165935160
C           -5.99547333570931        0.11308453655121       -0.00650135323446
C           -3.71073242420436        0.87989803483658        0.64933230285574
C           -3.40103307409507        2.15494766871601        0.90345839516027
C           -2.20798849254608        2.76797165575918        0.37272083033911
C           -1.37550901541960        2.10562584033194       -0.42641416890585
C           -1.59843269758132        0.68778852733657       -0.90915009519576
C           -2.08121995721506        0.90058256773778       -2.42713282359214
C           -2.27386265088262       -0.39052286819482       -3.24494584429966
C           -1.24685967839073        1.90692946015454       -3.24429126590457
C           -3.47622653711847        1.57539165473047       -2.39584673964937
C           -0.17346926691497        0.01235136879223       -0.42659592464986
C            0.18784639856370       -1.61489123792996       -0.26389382996600
C           -0.65634386149478       -2.74041727768778        0.52185210639289
C           -1.04667768596607       -2.44195693538611        1.97871939700519
C           -1.91165234867674       -3.21633675687795       -0.23938027877337
C            0.21233555883069       -4.01725562078787        0.62781338643810
C            0.26634065749385       -2.23874148315653       -1.62944711766036
C            1.33725474790315       -2.86820187491854       -2.11180942058990
C            2.57789470946712       -2.96048277912517       -1.38163657837092
C            2.71004567945548       -2.40587765600788       -0.17462207210773
C            3.98910012420349       -2.48064094832686        0.64720433674639
C            3.76259953770493       -3.34680778043048        1.89681786797619
C            4.42206626140550       -1.07286078820298        1.08361463185237
C            5.14640652128400       -3.09856664502297       -0.14710167871497
C            1.59564762457987       -1.57216514112331        0.40884792308628
C            0.93641884634127        0.48483704649912       -1.38645868208809
C            0.99590322327766        0.02022526138869       -2.69655277839651
C            2.00799434540922        0.33104514892831       -3.58777655398516
C            3.02532497256751        1.17647493226604       -3.19349981005238
C            2.98766323960712        1.69697339183601       -1.92044515188738
C            1.97035792068156        1.36143437777436       -1.01899336063700
N            2.04262885113396        1.90339672069675        0.24993297562233
C            2.92225607543116        3.00207058964485        0.48252247558748
C            2.49734177817297        4.28851752170433        0.17540537023630
C            3.34035653526842        5.36462186788811        0.39073683027382
C            4.60711243220936        5.16176115881564        0.91284301260706
C            5.03083761230393        3.87929758371839        1.22118715952385
C            4.19286143097374        2.79879851895591        1.00761231239612
C            1.13126776642355        1.54741081639586        1.22758248885438
C            1.32456153859160        2.09820358441398        2.49874749762001
C            0.45348410040021        1.85411986807090        3.53484313961195
C           -0.64816805014621        1.06354169451928        3.28185185017173
C           -0.82529571020284        0.50956635077293        2.02736799526472
C            0.04895329931301        0.68557166041466        0.95797453318096
C           -2.79710877016727        0.01280967916390       -0.18827909095907
H           -4.35337608503593       -1.84470354939974        0.98594099992213
H           -5.67855457113329       -1.57933563196735        2.10633752248001
H           -4.04903828018420       -1.10798401433950        2.57119971403846
H           -4.96413221497939        1.26615733491707        3.07154493388904
H           -6.02200042170236        2.02184988248742        1.86999038202028
H           -6.51481511627219        0.53327324312622        2.66200153429690
H           -6.15994015159096        1.08340991006162       -0.47040716689367
H           -5.63995957081260       -0.58215559547732       -0.76326068713688
H           -6.94981990565009       -0.25654556051199        0.36357492630397
H           -4.03124129907461        2.78809735868965        1.50624039202670
H           -2.00160879279957        3.79109036736629        0.65910282583612
H           -0.49604988271513        2.59379637664783       -0.81823014979584
H           -3.11842379936507       -0.26596956407693       -3.92156231491032
H           -2.48780215035690       -1.24795193964892       -2.61447099940827
H           -1.41546247748310       -0.62206468993238       -3.86655126631408
H           -1.44381483829996        2.92191316327953       -2.90556717081006
H           -1.55258049314181        1.84428963062797       -4.28786595105347
H           -0.18049119391268        1.73771366957445       -3.20102744212275
H           -4.27395862408907        0.90147101867655       -2.10752820371174
H           -3.70502645991727        1.93243878191248       -3.39912336572936
H           -3.49145070252455        2.43132336691421       -1.72953357216494
H           -2.01913563068448       -1.97223667281186        2.06004722777431
H           -0.31339060095013       -1.82145841904994        2.48454149741317
H           -1.11434305427192       -3.38235273999688        2.52442200754521
H           -1.63961644125423       -3.92937222891053       -1.01459902655943
H           -2.57401640620585       -3.73012717935401        0.45578154151122
H           -2.46568298816661       -2.41468935230166       -0.70705063895863
H            0.63011521881512       -4.31445474017919       -0.32736447422976
H           -0.42182632799356       -4.83124529387679        0.97742354638982
H            1.02250114588318       -3.90580784993409        1.33879125373768
H           -0.65003850370009       -2.24915481448247       -2.19296880906511
H            1.29718285062333       -3.34381214729832       -3.08334825674638
H            3.37094330922339       -3.51961678114113       -1.85080809876843
H            4.68937743948167       -3.43152013403499        2.46106403466991
H            3.44266348830804       -4.34703882835891        1.61170646569087
H            3.01130506131567       -2.91204759977005        2.55177417442292
H            5.39579395001655       -1.11919499192424        1.56842220709934
H            4.50023115399393       -0.42274805960913        0.21365343502967
H            3.71615254524880       -0.64085942317432        1.78875104155546
H            6.05099291144680       -3.09010008388618        0.45815310260758
H            5.33873233558116       -2.53085252470603       -1.05484400523978
H            4.93305193921258       -4.13121387386614       -0.41231081532400
H            1.48577421445885       -1.80419213920052        1.46847919902436
H            1.98438290824181       -0.55924054462128        0.37854229350851
H            0.20698619797552       -0.59643552326387       -3.06544399883362
H            1.98545041310316       -0.08138759681195       -4.58549509621073
H            3.83114577904635        1.43715541470393       -3.86396489782697
H            3.76738336651399        2.37084032370177       -1.60005210963120
H            1.50700276281157        4.43701530771992       -0.23022715633252
H            3.00617871401730        6.36311992665113        0.15019527944991
H            5.26382120237407        6.00248044068256        1.07999950605626
H            6.01767171708713        3.71790617622159        1.62936599100151
H            4.51524288741202        1.79704927068732        1.24728894669057
H            2.17626468817912        2.73924156132519        2.66545764001505
H            0.62664276618555        2.28858401763951        4.50854330833098
H           -1.37895169441724        0.87214238423461        4.05379637214687
H           -1.72619142756655       -0.04354465743618        1.90364676622689
H           -2.41692499364936       -0.78157851618878        0.44017804137781
H           -3.41977653590232       -0.48415104829242       -0.93101074086802

          :  Hamiltonian                  GFN2-xTB          :
         :: gradient norm              0.000073497564 Eh/a0 ::
         :: HOMO-LUMO gap              2.800307040106 eV    ::
         :: SCC energy              -135.873771099055 Eh    ::
         :: -> dispersion             -0.163025235660 Eh    ::
         :: -> Gsolv                  -0.038362871861 Eh    ::
         :: repulsion energy           2.261257396821 Eh    ::

    * Orbital Energies and Occupations

         #    Occupation            Energy/Eh            Energy/eV
      -------------------------------------------------------------
         1        2.0000           -0.6644257             -18.0799
       ...           ...                  ...                  ...
       114        2.0000           -0.4067387             -11.0679
       115        2.0000           -0.4054687             -11.0334
       116        2.0000           -0.4031584             -10.9705
       117        2.0000           -0.3992392             -10.8639
       118        2.0000           -0.3958402             -10.7714
       119        2.0000           -0.3951271             -10.7520
       120        2.0000           -0.3941078             -10.7242
       121        2.0000           -0.3895760             -10.6009
       122        2.0000           -0.3856929             -10.4952
       123        2.0000           -0.3784956             -10.2994
       124        2.0000           -0.3500402              -9.5251
       125        2.0000           -0.3450942              -9.3905
       126        2.0000           -0.3383902              -9.2081 (HOMO)
       127                         -0.2354808              -6.4078 (LUMO)
       128                         -0.2328083              -6.3350
       129                         -0.2320528              -6.3145
       130                         -0.2283015              -6.2124
       131                         -0.2165023              -5.8913
       132                         -0.2091575              -5.6915
       133                         -0.2059563              -5.6044
       134                         -0.1833397              -4.9889
       135                         -0.1271221              -3.4592
       136                         -0.1230232              -3.3476
       137                         -0.1030064              -2.8029
       ...                                ...                  ...
       251                          0.7070604              19.2401
      -------------------------------------------------------------
                  HL-Gap            0.1029094 Eh            2.8003 eV

     #   Z          covCN         q      C6AA      α(0)
     1   6 C        3.761    -0.105    22.547     6.769
     2   6 C        3.902     0.024    20.115     6.375
     3   6 C        3.762    -0.106    22.569     6.772
     4   6 C        3.762    -0.101    22.475     6.758
     5   6 C        2.952     0.004    27.944     8.670
     6   6 C        2.907    -0.053    29.325     8.879
     7   6 C        2.900    -0.044    29.092     8.844
     8   6 C        2.929    -0.028    28.696     8.785
     9   6 C        3.872     0.010    20.370     6.418
    10   6 C        3.895     0.024    20.124     6.377
    11   6 C        3.759    -0.104    22.542     6.769
    12   6 C        3.767    -0.110    22.645     6.782
    13   6 C        3.772    -0.109    22.620     6.777
    14   6 C        3.857     0.001    20.522     6.443
    15   6 C        3.859     0.007    20.428     6.428
    16   6 C        3.902     0.025    20.100     6.373
    17   6 C        3.764    -0.108    22.597     6.776
    18   6 C        3.763    -0.110    22.644     6.783
    19   6 C        3.772    -0.110    22.632     6.779
    20   6 C        2.916    -0.035    28.865     8.810
    21   6 C        2.902    -0.043    29.076     8.841
    22   6 C        2.906    -0.056    29.393     8.890
    23   6 C        2.955     0.002    27.986     8.677
    24   6 C        3.902     0.023    20.140     6.379
    25   6 C        3.761    -0.100    22.457     6.756
    26   6 C        3.761    -0.099    22.430     6.751
    27   6 C        3.762    -0.106    22.567     6.772
    28   6 C        3.812    -0.068    21.799     6.646
    29   6 C        2.963    -0.008    28.205     8.711
    30   6 C        2.937    -0.042    29.050     8.839
    31   6 C        2.919    -0.050    29.249     8.869
    32   6 C        2.918    -0.036    28.904     8.816
    33   6 C        2.930    -0.065    29.618     8.925
    34   6 C        2.939     0.061    26.639     8.465
    35   7 N        2.760    -0.088    22.957     7.116
    36   6 C        2.927     0.073    26.377     8.422
    37   6 C        2.922    -0.037    28.929     8.820
    38   6 C        2.920    -0.028    28.707     8.786
    39   6 C        2.919    -0.031    28.775     8.797
    40   6 C        2.920    -0.029    28.726     8.789
    41   6 C        2.921    -0.041    29.012     8.833
    42   6 C        2.939     0.060    26.648     8.466
    43   6 C        2.932    -0.064    29.604     8.923
    44   6 C        2.917    -0.037    28.931     8.820
    45   6 C        2.921    -0.050    29.234     8.867
    46   6 C        2.937    -0.048    29.184     8.860
    47   6 C        2.969    -0.006    28.166     8.705
    48   6 C        3.810    -0.076    21.947     6.668
    49   1 H        0.925     0.043     2.411     2.428
    50   1 H        0.925     0.034     2.524     2.485
    51   1 H        0.925     0.031     2.575     2.509
    52   1 H        0.925     0.033     2.539     2.492
    53   1 H        0.925     0.033     2.548     2.496
    54   1 H        0.925     0.035     2.511     2.478
    55   1 H        0.925     0.032     2.552     2.498
    56   1 H        0.925     0.034     2.530     2.487
    57   1 H        0.925     0.037     2.491     2.468
    58   1 H        0.926     0.021     2.724     2.581
    59   1 H        0.925     0.005     2.970     2.695
    60   1 H        0.926     0.018     2.769     2.602
    61   1 H        0.925     0.035     2.520     2.483
    62   1 H        0.925     0.037     2.493     2.469
    63   1 H        0.925     0.038     2.480     2.463
    64   1 H        0.925     0.028     2.616     2.529
    65   1 H        0.925     0.031     2.570     2.507
    66   1 H        0.926     0.038     2.474     2.460
    67   1 H        0.925     0.040     2.455     2.450
    68   1 H        0.925     0.030     2.579     2.512
    69   1 H        0.925     0.032     2.560     2.502
    70   1 H        0.925     0.041     2.441     2.443
    71   1 H        0.925     0.034     2.531     2.488
    72   1 H        0.925     0.036     2.501     2.473
    73   1 H        0.925     0.033     2.546     2.495
    74   1 H        0.925     0.034     2.524     2.484
    75   1 H        0.926     0.042     2.416     2.431
    76   1 H        0.925     0.032     2.552     2.498
    77   1 H        0.925     0.031     2.566     2.505
    78   1 H        0.925     0.037     2.487     2.466
    79   1 H        0.926     0.042     2.417     2.431
    80   1 H        0.925     0.013     2.850     2.640
    81   1 H        0.926     0.019     2.742     2.590
    82   1 H        0.925     0.036     2.497     2.471
    83   1 H        0.925     0.034     2.535     2.490
    84   1 H        0.925     0.032     2.554     2.499
    85   1 H        0.925     0.035     2.516     2.480
    86   1 H        0.925     0.028     2.608     2.526
    87   1 H        0.925     0.033     2.539     2.492
    88   1 H        0.925     0.035     2.511     2.478
    89   1 H        0.925     0.033     2.538     2.491
    90   1 H        0.925     0.035     2.519     2.482
    91   1 H        0.924     0.040     2.454     2.450
    92   1 H        0.925     0.055     2.258     2.350
    93   1 H        0.927     0.060     2.201     2.320
    94   1 H        0.926     0.019     2.748     2.592
    95   1 H        0.926     0.019     2.750     2.593
    96   1 H        0.926     0.018     2.764     2.600
    97   1 H        0.926     0.035     2.515     2.480
    98   1 H        0.926     0.040     2.454     2.450
    99   1 H        0.926     0.040     2.447     2.446
   100   1 H        0.926     0.041     2.432     2.439
   101   1 H        0.926     0.047     2.361     2.403
   102   1 H        0.926     0.020     2.739     2.588
   103   1 H        0.926     0.019     2.753     2.595
   104   1 H        0.926     0.019     2.751     2.594
   105   1 H        0.927     0.061     2.190     2.314
   106   1 H        0.925     0.075     2.037     2.232
   107   1 H        0.925     0.052     2.299     2.371

molecular dipole:
                 x           y           z       tot (Debye)
 q only:       -0.266      -0.355       0.266
   full:       -0.096      -0.096       0.273       0.774

 projected vibrational frequencies (cm⁻¹)
eigval :       -0.00    -0.00    -0.00    -0.00     0.00     0.00
eigval :       21.48    23.87    24.83    30.12    34.16    41.27
eigval :       51.12    55.29    68.73    69.88    75.56    85.95
eigval :       97.02   115.21   118.68   128.79   136.06   142.02
eigval :      147.64   150.84   166.24   177.18   181.85   189.81
eigval :      195.89   202.75   205.07   205.58   226.05   240.29
eigval :      243.65   246.65   248.46   254.59   260.54   271.88
eigval :      279.28   285.91   290.17   296.49   301.86   308.23
eigval :      310.83   313.78   317.88   321.45   329.40   334.33
eigval :      335.94   348.90   353.53   357.94   361.57   367.22
eigval :      375.23   376.07   389.05   392.67   395.82   398.77
eigval :      406.90   410.17   423.76   433.72   441.56   447.09
eigval :      451.30   463.55   471.24   480.46   483.67   492.00
eigval :      494.40   499.60   502.50   512.96   518.15   523.96
eigval :      529.86   534.26   552.48   563.67   569.59   590.81
eigval :      594.77   598.59   603.49   610.21   616.83   639.34
eigval :      658.91   674.67   683.84   703.27   723.56   732.42
eigval :      745.93   754.44   764.38   772.27   780.28   810.92
eigval :      819.76   842.04   857.55   859.57   863.12   864.46
eigval :      865.77   873.36   875.91   876.26   878.68   883.29
eigval :      891.84   898.09   905.25   906.84   910.14   915.02
eigval :      915.71   926.15   929.46   929.70   931.60   933.42
eigval :      947.30   949.73   953.32   956.63   957.05   959.08
eigval :      959.53   960.59   962.37   968.38   970.26   972.76
eigval :      978.13   980.42   984.97   991.01   993.77  1007.19
eigval :     1019.03  1027.95  1030.01  1032.80  1034.34  1038.72
eigval :     1039.12  1045.10  1047.18  1076.69  1078.22  1082.55
eigval :     1091.47  1094.04  1107.77  1112.94  1114.81  1119.17
eigval :     1130.24  1150.53  1154.79  1175.95  1179.08  1181.62
eigval :     1184.84  1185.57  1190.83  1194.82  1202.23  1206.55
eigval :     1210.80  1214.78  1216.03  1218.86  1222.68  1223.71
eigval :     1226.42  1229.91  1230.35  1241.08  1246.51  1247.92
eigval :     1255.48  1267.00  1269.60  1272.67  1273.82  1299.68
eigval :     1306.30  1308.29  1311.84  1315.29  1327.99  1332.68
eigval :     1347.18  1349.26  1369.24  1369.85  1397.72  1398.89
eigval :     1401.62  1402.48  1406.65  1411.40  1413.95  1417.05
eigval :     1424.61  1426.14  1428.94  1429.70  1432.40  1435.07
eigval :     1437.35  1466.52  1468.67  1476.34  1486.96  1492.14
eigval :     1493.60  1494.13  1494.76  1496.13  1498.27  1498.67
eigval :     1501.08  1503.53  1503.93  1504.84  1509.09  1510.19
eigval :     1512.09  1513.46  1515.43  1518.49  1519.17  1523.04
eigval :     1523.98  1526.12  1529.68  1532.73  1536.10  1561.39
eigval :     1570.51  1579.61  1581.55  1589.40  1593.06  1600.14
eigval :     1642.92  1643.93  1698.25  1698.76  2978.99  2987.98
eigval :     3005.04  3008.39  3009.66  3009.74  3013.14  3013.55
eigval :     3013.89  3015.09  3015.62  3016.35  3018.40  3020.65
eigval :     3021.51  3025.48  3025.95  3027.59  3028.75  3030.32
eigval :     3031.11  3031.92  3032.90  3033.67  3035.37  3037.10
eigval :     3038.25  3043.75  3045.79  3050.48  3052.37  3057.89
eigval :     3060.30  3067.66  3068.15  3068.54  3069.77  3074.17
eigval :     3074.42  3078.19  3079.39  3080.14  3080.84  3081.54
eigval :     3081.83  3082.51  3084.54  3093.17  3096.95  3097.08
eigval :     3099.11  3103.49  3104.46  3105.49  3116.39  3127.81
eigval :     3129.33  3252.56  3288.21

   temp. (K)  partition function   enthalpy   heat capacity  entropy
                                   cal/mol     cal/K/mol   cal/K/mol   J/K/mol
 298.15  VIB  0.260E+19            27751.165    181.782    165.842
         ROT  0.469E+08              888.752      2.981     38.083
         INT  0.122E+27            28639.917    184.763    203.925
         TR   0.156E+29             1481.254      4.968     45.221
         TOT                       30121.1713   189.7309   249.1462  1042.4278

       T/K    H(0)-H(T)+PV         H(T)/Eh          T*S/Eh         G(T)/Eh
   ------------------------------------------------------------------------
    298.15    0.480011E-01    0.975393E+00    0.118377E+00    0.857016E+00
   ------------------------------------------------------------------------

         :::::::::::::::::::::::::::::::::::::::::::::::::::::
         ::                  THERMODYNAMIC                  ::
         :::::::::::::::::::::::::::::::::::::::::::::::::::::
         :: total free energy        -132.755497806068 Eh   ::
         ::.................................................::
         :: total energy             -133.612513700547 Eh   ::
         :: zero point energy           0.927392159904 Eh   ::
         :: G(RRHO) w/o ZPVE           -0.070376265426 Eh   ::
         :: G(RRHO) contrib.            0.857015894478 Eh   ::
         :::::::::::::::::::::::::::::::::::::::::::::::::::::

           -------------------------------------------------
          | TOTAL ENERGY             -133.612513700547 Eh   |
          | TOTAL ENTHALPY           -132.637120398704 Eh   |
          | TOTAL FREE ENERGY        -132.755497806068 Eh   |
          | GRADIENT NORM               0.000073490087 Eh/α |
          | HOMO-LUMO GAP               2.800306945758 eV   |
           -------------------------------------------------

 * finished run on 2025/09/10 at 00:25:20.864
