   * xtb version 6.7.1 (edcfbbe) compiled by 'albert@albert-system' on 2024-07-22

   ID    Z sym.   atoms
    1    6 C      1-34, 36-48
    2    7 N      35
    3    1 H      49-107

          program call               : xtb data2507/toluene/TBAc/TBAc_toluene_S0_crest.xyz --gfn 2 --gbsa toluene --ohess vtight --parallel 40 --molden --ceasefiles --namespace data2507/toluene/TBAc/TBAc_toluene_S0_finalOpt
      * Solvation model:               GBSA
        Solvent                        toluene
        Solvent mass                       9.2140E+01 g/mol
          :  Hamiltonian                  GFN2-xTB          :
 * total energy  :  -133.6337267 Eh     change       -0.1704157E-07 Eh
 * total energy  :  -133.6340962 Eh     change       -0.3695061E-03 Eh
 * total energy  :  -133.6342031 Eh     change       -0.1068543E-03 Eh
 * total energy  :  -133.6342571 Eh     change       -0.5405510E-04 Eh
 * total energy  :  -133.6343080 Eh     change       -0.5093590E-04 Eh
 * total energy  :  -133.6343606 Eh     change       -0.5258652E-04 Eh
 * total energy  :  -133.6344002 Eh     change       -0.3957655E-04 Eh
 * total energy  :  -133.6344298 Eh     change       -0.2954783E-04 Eh
 * total energy  :  -133.6344621 Eh     change       -0.3229559E-04 Eh
 * total energy  :  -133.6344749 Eh     change       -0.1289316E-04 Eh
 * total energy  :  -133.6345582 Eh     change       -0.3319636E-06 Eh
 * total energy  :  -133.6345585 Eh     change       -0.3161103E-06 Eh
 * total energy  :  -133.6345588 Eh     change       -0.2871233E-06 Eh
 * total energy  :  -133.6345590 Eh     change       -0.2535728E-06 Eh
 * total energy  :  -133.6345593 Eh     change       -0.2198957E-06 Eh
 * total energy  :  -133.6345595 Eh     change       -0.2227425E-06 Eh
 * total energy  :  -133.6345597 Eh     change       -0.2178926E-06 Eh
 * total energy  :  -133.6345599 Eh     change       -0.1497226E-06 Eh
 * total energy  :  -133.6345599 Eh     change       -0.6981583E-07 Eh
   *** GEOMETRY OPTIMIZATION CONVERGED AFTER 39 ITERATIONS ***

 final structure:
================
107
 xtb: 6.7.1 (edcfbbe)
C           -3.42381293920447        3.52847004300222        1.58128852721075
C           -3.52818511586882        3.23471970287998        0.07579089547467
C           -3.95976179879575        4.51338249131881       -0.65865847836948
C           -4.62650638200112        2.18719877808669       -0.13538109335774
C           -2.15831521600040        2.77154053606563       -0.40595942178379
C           -1.16111756998705        3.64287233160535       -0.59244038772886
C            0.16159728143624        3.20917671853154       -0.96730718732509
C            0.44838947140643        1.92162126611846       -1.14909385730658
C           -0.57129362052591        0.80240858883906       -1.09720317181456
C           -0.78872998765192        0.50848902301475       -2.66858241768406
C           -1.73410768404003       -0.63694752174019       -3.06505211673018
C            0.52093358349048        0.32998173421165       -3.46168413588212
C           -1.44370233118352        1.76119436004390       -3.30149980221695
C            0.14461994452763       -0.23481764038636       -0.00370765288497
C           -0.79099462808390       -1.15678575715918        0.98207365686403
C            0.00771802141284       -2.30890729723564        1.77739302297548
C            0.47566928221641       -3.55220570566722        0.99832225379808
C            1.26539383140924       -1.79391267038233        2.49055913047020
C           -0.94252742673222       -2.85949955142052        2.86509755102222
C           -1.36089503234051       -0.35282807277458        2.12910197584703
C           -2.65233203326939       -0.27140340601464        2.45618809198094
C           -3.68286292080095       -0.95932770510279        1.72398665106346
C           -3.36411969577639       -1.73826365235605        0.68628243934366
C           -4.43492074594310       -2.54581280863885       -0.04024756041085
C           -3.88675878063777       -3.46515415092231       -1.13750062874336
C           -5.43590461619443       -1.57689238939083       -0.68863149049535
C           -5.17269243403590       -3.43116311106076        0.97765251892621
C           -1.95026971011102       -1.79971796785180        0.17113752245340
C            1.10298017665239       -1.13723445350256       -0.76515028454127
C            0.63407249581694       -2.18779559225711       -1.54957597977238
C            1.44765502014556       -2.96539870992043       -2.35387495508429
C            2.80393767004570       -2.70285680493555       -2.40194085805102
C            3.31806935957527       -1.71203701862605       -1.59475943861497
C            2.49583722080542       -0.94997830134333       -0.75585239746139
N            3.09265732940673       -0.03579280351030        0.09100125620797
C            4.50996524270846        0.10120639690809        0.09141368912929
C            5.10279240924689        1.14613829427215       -0.60687352033556
C            6.47955813585522        1.28512679029562       -0.60167675391000
C            7.26720268384513        0.38291540137737        0.09468014079047
C            6.67662322807313       -0.66047928974457        0.78900812599849
C            5.30026293494539       -0.80326756497958        0.79090599433805
C            2.33859561403259        0.75638911702641        0.93839203424680
C            3.01319260179000        1.59008278519847        1.83655255201106
C            2.33255717932951        2.48173809290113        2.63379016242691
C            0.95892874191559        2.57361473826429        2.50497460196181
C            0.29315207583275        1.72248550717782        1.64431740455833
C            0.93677106373268        0.74765069842392        0.88002349569930
C           -1.93589955613232        1.28805105477462       -0.54553405958960
H           -2.65505005398206        4.27347725687682        1.77341541134037
H           -3.16860859640830        2.62260626009321        2.12694949217107
H           -4.37241589060251        3.90335476685889        1.96120964650525
H           -3.91234255152547        4.36785219426729       -1.73591684533188
H           -4.98304139023409        4.76848344311313       -0.38979556291155
H           -3.32862414320668        5.35826355629393       -0.39870612100460
H           -4.75421941584749        1.96500163516237       -1.19279906343496
H           -4.40889412503390        1.26699925978822        0.39889131049656
H           -5.57234852659433        2.57628999570525        0.23791271614541
H           -1.30278380799741        4.70454212930285       -0.45933727477427
H            0.93093314007665        3.96412379103246       -1.06492441723881
H            1.44799988803568        1.62839045680372       -1.42953867679788
H           -2.67847614486711       -0.59955872514200       -2.52760849965154
H           -1.28037744188814       -1.61222879234198       -2.95201513462213
H           -1.97645316422098       -0.52524393700045       -4.12173828199460
H            1.20378950759280       -0.37787760176922       -3.01379550695064
H            1.03525582727897        1.28116842496619       -3.57569315667704
H            0.28132616239202       -0.02969745873975       -4.46133585378323
H           -2.47727558080342        1.89212269318065       -2.99765458667287
H           -1.43371706007237        1.64528933650706       -4.38428820711014
H           -0.90164408311446        2.66966696927041       -3.06444631989499
H            0.83273683766278       -4.28388768461600        1.72224571557766
H            1.30109172368598       -3.34007145056289        0.33141834248286
H           -0.31657785456458       -4.03378273183849        0.43359129704838
H            1.60868795668827       -2.55434695280819        3.19139847222413
H            2.06724094049977       -1.61613728576102        1.78284326673869
H            1.09529628741636       -0.88296147856543        3.05527591621629
H           -1.07821661178215       -2.15417289585855        3.67952005711577
H           -0.52540250687755       -3.77000803099918        3.29146136270433
H           -1.91876322246709       -3.09749680777794        2.45361727067919
H           -0.64789125035106        0.08660722452797        2.80568530846871
H           -2.94900603971612        0.28518200441063        3.33587343234849
H           -4.69463104195189       -0.86956606115773        2.09021435301080
H           -3.23162437734346       -4.22907048866589       -0.72470935090410
H           -3.35005620337219       -2.90833019204862       -1.89960827585177
H           -4.71793761606684       -3.97430637723928       -1.62244413652699
H           -6.22778293852225       -2.13114652913130       -1.18847482883677
H           -5.89033463185903       -0.92788863968233        0.05458243745774
H           -4.93735899979329       -0.95309866947468       -1.42697733365740
H           -5.92141377177135       -4.03869816935512        0.47299891165245
H           -5.67483948229311       -2.83437473405348        1.73367280654114
H           -4.47241463745019       -4.09650198215355        1.47933036055926
H           -1.72652371271391       -2.85040376949027        0.00873383017976
H           -1.97822385258322       -1.32030238105664       -0.80039489997832
H           -0.40392594911118       -2.44052245529189       -1.51360788018684
H            1.01960298692673       -3.76451412041133       -2.94024090545457
H            3.46079104257704       -3.27157374669761       -3.04359934453187
H            4.37976335832352       -1.51881977120886       -1.60619537488741
H            4.47903150008074        1.84599456610338       -1.14390295000280
H            6.93778660034499        2.09899386805447       -1.14403094435932
H            8.34133541654887        0.49327485859201        0.09684412394581
H            7.28871385571456       -1.36422738795426        1.33356507682113
H            4.83086674166540       -1.61303582712423        1.33058323090715
H            4.08930841521087        1.53721691256156        1.89855120655039
H            2.87205280346450        3.11323951871984        3.32466714040868
H            0.40063134638890        3.30290439504847        3.07304174440721
H           -0.76529376445509        1.86712119712075        1.54711545259335
H           -2.11223045672730        0.85492909995448        0.43464235039975
H           -2.73013546043684        0.89070687904453       -1.17410405358159

          :  Hamiltonian                  GFN2-xTB          :
         :: gradient norm              0.000070343750 Eh/a0 ::
         :: HOMO-LUMO gap              2.805836031141 eV    ::
         :: SCC energy              -135.896589756776 Eh    ::
         :: -> dispersion             -0.164489589178 Eh    ::
         :: -> Gsolv                  -0.037706835733 Eh    ::
         :: repulsion energy           2.262029827601 Eh    ::

    * Orbital Energies and Occupations

         #    Occupation            Energy/Eh            Energy/eV
      -------------------------------------------------------------
         1        2.0000           -0.6650832             -18.0978
       ...           ...                  ...                  ...
       114        2.0000           -0.4104190             -11.1681
       115        2.0000           -0.4096527             -11.1472
       116        2.0000           -0.4053628             -11.0305
       117        2.0000           -0.4018232             -10.9342
       118        2.0000           -0.3983510             -10.8397
       119        2.0000           -0.3950234             -10.7491
       120        2.0000           -0.3927364             -10.6869
       121        2.0000           -0.3888964             -10.5824
       122        2.0000           -0.3837905             -10.4435
       123        2.0000           -0.3759510             -10.2301
       124        2.0000           -0.3530833              -9.6079
       125        2.0000           -0.3412109              -9.2848
       126        2.0000           -0.3377396              -9.1904 (HOMO)
       127                         -0.2346270              -6.3845 (LUMO)
       128                         -0.2333938              -6.3510
       129                         -0.2329289              -6.3383
       130                         -0.2318666              -6.3094
       131                         -0.2153186              -5.8591
       132                         -0.2149030              -5.8478
       133                         -0.2060507              -5.6069
       134                         -0.1830452              -4.9809
       135                         -0.1307385              -3.5576
       136                         -0.1233459              -3.3564
       137                         -0.1038341              -2.8255
       ...                                ...                  ...
       251                          0.7027814              19.1237
      -------------------------------------------------------------
                  HL-Gap            0.1031126 Eh            2.8058 eV

     #   Z          covCN         q      C6AA      α(0)
     1   6 C        3.762    -0.100    22.460     6.756
     2   6 C        3.903     0.023    20.130     6.378
     3   6 C        3.761    -0.104    22.531     6.767
     4   6 C        3.761    -0.106    22.574     6.773
     5   6 C        2.955     0.003    27.947     8.671
     6   6 C        2.908    -0.053    29.304     8.876
     7   6 C        2.900    -0.045    29.109     8.846
     8   6 C        2.935    -0.029    28.727     8.790
     9   6 C        3.863     0.007    20.423     6.427
    10   6 C        3.897     0.023    20.141     6.380
    11   6 C        3.765    -0.107    22.588     6.774
    12   6 C        3.764    -0.108    22.610     6.778
    13   6 C        3.771    -0.107    22.574     6.771
    14   6 C        3.858     0.002    20.503     6.440
    15   6 C        3.869     0.011    20.348     6.414
    16   6 C        3.897     0.023    20.140     6.379
    17   6 C        3.768    -0.107    22.581     6.772
    18   6 C        3.765    -0.099    22.434     6.751
    19   6 C        3.764    -0.106    22.570     6.772
    20   6 C        2.912    -0.035    28.864     8.810
    21   6 C        2.903    -0.041    29.025     8.834
    22   6 C        2.907    -0.054    29.333     8.881
    23   6 C        2.958     0.004    27.935     8.669
    24   6 C        3.903     0.024    20.115     6.375
    25   6 C        3.761    -0.107    22.601     6.777
    26   6 C        3.762    -0.103    22.516     6.764
    27   6 C        3.762    -0.103    22.521     6.765
    28   6 C        3.810    -0.081    22.044     6.683
    29   6 C        2.964    -0.005    28.135     8.700
    30   6 C        2.933    -0.043    29.059     8.841
    31   6 C        2.918    -0.050    29.232     8.866
    32   6 C        2.918    -0.037    28.920     8.819
    33   6 C        2.927    -0.064    29.590     8.921
    34   6 C        2.933     0.060    26.657     8.467
    35   7 N        2.757    -0.082    22.838     7.098
    36   6 C        2.927     0.072    26.399     8.426
    37   6 C        2.922    -0.038    28.935     8.821
    38   6 C        2.920    -0.028    28.708     8.786
    39   6 C        2.920    -0.031    28.775     8.797
    40   6 C        2.920    -0.029    28.713     8.787
    41   6 C        2.921    -0.038    28.952     8.824
    42   6 C        2.935     0.063    26.594     8.458
    43   6 C        2.927    -0.064    29.586     8.920
    44   6 C        2.918    -0.037    28.929     8.820
    45   6 C        2.919    -0.051    29.260     8.870
    46   6 C        2.932    -0.040    28.997     8.831
    47   6 C        2.984    -0.002    28.077     8.692
    48   6 C        3.810    -0.077    21.955     6.670
    49   1 H        0.925     0.030     2.582     2.513
    50   1 H        0.925     0.033     2.542     2.493
    51   1 H        0.925     0.035     2.512     2.479
    52   1 H        0.925     0.032     2.556     2.500
    53   1 H        0.925     0.035     2.513     2.479
    54   1 H        0.925     0.032     2.556     2.500
    55   1 H        0.925     0.031     2.577     2.510
    56   1 H        0.925     0.044     2.391     2.418
    57   1 H        0.925     0.032     2.557     2.501
    58   1 H        0.926     0.013     2.841     2.636
    59   1 H        0.925     0.004     2.986     2.702
    60   1 H        0.926     0.019     2.742     2.589
    61   1 H        0.925     0.034     2.531     2.488
    62   1 H        0.925     0.046     2.368     2.407
    63   1 H        0.925     0.035     2.521     2.483
    64   1 H        0.926     0.037     2.490     2.468
    65   1 H        0.925     0.027     2.625     2.534
    66   1 H        0.925     0.031     2.577     2.510
    67   1 H        0.925     0.034     2.527     2.486
    68   1 H        0.925     0.031     2.579     2.511
    69   1 H        0.925     0.031     2.566     2.505
    70   1 H        0.925     0.033     2.542     2.493
    71   1 H        0.925     0.037     2.494     2.469
    72   1 H        0.925     0.035     2.522     2.484
    73   1 H        0.925     0.030     2.584     2.514
    74   1 H        0.925     0.030     2.586     2.515
    75   1 H        0.925     0.026     2.638     2.540
    76   1 H        0.925     0.030     2.587     2.515
    77   1 H        0.925     0.031     2.578     2.511
    78   1 H        0.925     0.039     2.457     2.451
    79   1 H        0.926     0.029     2.598     2.520
    80   1 H        0.925     0.011     2.874     2.651
    81   1 H        0.926     0.015     2.810     2.621
    82   1 H        0.925     0.032     2.556     2.500
    83   1 H        0.925     0.041     2.429     2.437
    84   1 H        0.925     0.034     2.526     2.485
    85   1 H        0.925     0.036     2.507     2.476
    86   1 H        0.925     0.036     2.500     2.473
    87   1 H        0.925     0.033     2.546     2.495
    88   1 H        0.925     0.036     2.507     2.476
    89   1 H        0.925     0.034     2.533     2.489
    90   1 H        0.925     0.030     2.584     2.514
    91   1 H        0.925     0.060     2.203     2.321
    92   1 H        0.925     0.081     1.972     2.196
    93   1 H        0.927     0.059     2.213     2.326
    94   1 H        0.926     0.023     2.690     2.565
    95   1 H        0.926     0.019     2.742     2.590
    96   1 H        0.926     0.017     2.774     2.604
    97   1 H        0.926     0.038     2.482     2.464
    98   1 H        0.926     0.040     2.444     2.445
    99   1 H        0.926     0.041     2.442     2.444
   100   1 H        0.926     0.041     2.434     2.440
   101   1 H        0.926     0.040     2.448     2.447
   102   1 H        0.926     0.019     2.742     2.590
   103   1 H        0.926     0.019     2.743     2.590
   104   1 H        0.926     0.018     2.761     2.598
   105   1 H        0.926     0.050     2.321     2.383
   106   1 H        0.925     0.069     2.102     2.267
   107   1 H        0.925     0.056     2.242     2.342

molecular dipole:
                 x           y           z       tot (Debye)
 q only:       -0.239      -0.834      -0.360
   full:        0.007      -0.666      -0.247       1.805

 projected vibrational frequencies (cm⁻¹)
eigval :       -0.00    -0.00    -0.00     0.00     0.00     0.00
eigval :       17.39    29.37    30.69    34.20    35.06    41.20
eigval :       52.60    62.14    63.45    74.76    77.81    84.70
eigval :       91.01   101.45   112.70   119.37   129.05   140.09
eigval :      143.38   155.15   169.62   178.43   184.13   188.57
eigval :      195.71   201.17   206.27   221.68   224.85   230.96
eigval :      232.31   236.36   239.14   241.18   245.83   252.56
eigval :      257.51   274.70   275.57   284.18   286.67   298.59
eigval :      305.93   308.74   317.78   325.79   329.01   337.47
eigval :      342.42   349.89   355.57   362.15   367.01   370.65
eigval :      374.91   375.36   376.84   381.71   389.53   396.19
eigval :      399.26   405.95   413.95   429.30   432.06   444.67
eigval :      451.91   455.81   459.51   473.02   482.23   486.10
eigval :      491.35   497.48   502.13   513.19   516.32   520.75
eigval :      529.76   532.42   538.98   557.26   564.65   590.44
eigval :      593.71   595.50   603.89   614.26   619.08   642.69
eigval :      653.66   674.55   683.29   704.57   729.61   733.84
eigval :      738.02   752.45   763.74   771.23   780.80   815.35
eigval :      820.38   847.46   857.87   861.75   863.83   867.04
eigval :      872.55   874.98   876.37   882.20   883.52   889.84
eigval :      896.04   898.51   908.60   909.57   912.56   914.84
eigval :      916.93   922.64   929.39   929.84   932.90   935.41
eigval :      949.65   953.52   955.32   955.89   956.89   958.83
eigval :      959.24   959.55   961.55   962.41   962.89   968.73
eigval :      972.54   976.45   987.29   994.47  1004.02  1011.00
eigval :     1015.21  1029.56  1030.59  1034.00  1035.52  1039.22
eigval :     1040.65  1045.83  1052.08  1078.08  1081.69  1088.08
eigval :     1088.94  1092.10  1111.53  1113.34  1120.25  1121.76
eigval :     1128.00  1149.05  1152.28  1177.74  1181.93  1185.24
eigval :     1186.34  1188.25  1191.99  1204.33  1211.76  1214.76
eigval :     1218.20  1218.58  1222.82  1223.94  1224.50  1227.47
eigval :     1228.53  1230.04  1232.29  1238.42  1244.78  1247.46
eigval :     1259.28  1271.82  1273.07  1273.15  1276.34  1298.48
eigval :     1301.69  1306.96  1314.68  1315.59  1327.27  1340.62
eigval :     1342.48  1346.24  1368.96  1376.49  1398.19  1401.94
eigval :     1403.69  1404.96  1407.02  1411.85  1415.72  1416.96
eigval :     1426.65  1428.24  1428.43  1429.51  1433.07  1435.66
eigval :     1442.27  1462.75  1467.80  1473.65  1482.23  1488.83
eigval :     1490.44  1492.19  1492.58  1493.88  1494.65  1495.18
eigval :     1497.76  1498.68  1500.33  1503.69  1503.83  1505.43
eigval :     1507.45  1510.96  1513.97  1515.77  1517.52  1517.60
eigval :     1520.59  1521.16  1525.40  1530.41  1533.11  1535.05
eigval :     1565.62  1578.27  1580.90  1585.64  1592.32  1597.27
eigval :     1634.88  1637.22  1691.10  1693.29  3000.65  3002.60
eigval :     3002.63  3006.90  3009.92  3013.70  3014.65  3015.98
eigval :     3016.02  3016.35  3017.35  3020.72  3022.70  3022.93
eigval :     3024.82  3028.16  3028.43  3028.89  3029.95  3030.92
eigval :     3032.53  3034.61  3035.19  3042.94  3044.39  3045.85
eigval :     3046.42  3046.64  3050.03  3050.84  3051.33  3055.05
eigval :     3056.03  3057.52  3059.08  3062.53  3068.91  3072.19
eigval :     3075.38  3075.85  3076.42  3076.73  3080.55  3081.29
eigval :     3082.22  3084.11  3084.47  3087.19  3088.90  3091.30
eigval :     3096.20  3096.82  3098.21  3103.48  3109.81  3110.25
eigval :     3133.80  3183.44  3225.64

   temp. (K)  partition function   enthalpy   heat capacity  entropy
                                   cal/mol     cal/K/mol   cal/K/mol   J/K/mol
 298.15  VIB  0.305E+19            27953.181    182.487    167.610
         ROT  0.469E+08              888.752      2.981     38.085
         INT  0.143E+27            28841.933    185.467    205.695
         TR   0.156E+29             1481.254      4.968     45.221
         TOT                       30323.1873   190.4356   250.9161  1049.8331

       T/K    H(0)-H(T)+PV         H(T)/Eh          T*S/Eh         G(T)/Eh
   ------------------------------------------------------------------------
    298.15    0.483231E-01    0.974819E+00    0.119218E+00    0.855601E+00
   ------------------------------------------------------------------------

         :::::::::::::::::::::::::::::::::::::::::::::::::::::
         ::                  THERMODYNAMIC                  ::
         :::::::::::::::::::::::::::::::::::::::::::::::::::::
         :: total free energy        -132.778959273188 Eh   ::
         ::.................................................::
         :: total energy             -133.634559929476 Eh   ::
         :: zero point energy           0.926495930404 Eh   ::
         :: G(RRHO) w/o ZPVE           -0.070895274116 Eh   ::
         :: G(RRHO) contrib.            0.855600656288 Eh   ::
         :::::::::::::::::::::::::::::::::::::::::::::::::::::

           -------------------------------------------------
          | TOTAL ENERGY             -133.634559929476 Eh   |
          | TOTAL ENTHALPY           -132.659740924232 Eh   |
          | TOTAL FREE ENERGY        -132.778959273188 Eh   |
          | GRADIENT NORM               0.000070348925 Eh/α |
          | HOMO-LUMO GAP               2.805837449859 eV   |
           -------------------------------------------------

 * finished run on 2025/09/10 at 00:37:25.151
