   * xtb version 6.7.1 (edcfbbe) compiled by 'albert@albert-system' on 2024-07-22

   ID    Z sym.   atoms
    1    6 C      1-34, 36-48
    2    7 N      35
    3    1 H      49-107

          program call               : xtb data2507/toluene/TBAc/TBAc_toluene_T1_crest.xyz --gfn 2 --uhf 2 --gbsa toluene --ohess vtight --parallel 40 --molden --ceasefiles --namespace data2507/toluene/TBAc/TBAc_toluene_T1_finalOpt
      * Solvation model:               GBSA
        Solvent                        toluene
        Solvent mass                       9.2140E+01 g/mol
          :  Hamiltonian                  GFN2-xTB          :
 * total energy  :  -133.5819189 Eh     change       -0.1441828E-07 Eh
 * total energy  :  -133.5822908 Eh     change       -0.3719061E-03 Eh
 * total energy  :  -133.5823967 Eh     change       -0.1058849E-03 Eh
 * total energy  :  -133.5822919 Eh     change        0.1048156E-03 Eh
 * total energy  :  -133.5824279 Eh     change       -0.1359750E-03 Eh
 * total energy  :  -133.5824799 Eh     change       -0.5200243E-04 Eh
 * total energy  :  -133.5825137 Eh     change       -0.3378526E-04 Eh
 * total energy  :  -133.5825697 Eh     change       -0.5608277E-04 Eh
 * total energy  :  -133.5826045 Eh     change       -0.3479729E-04 Eh
 * total energy  :  -133.5826243 Eh     change       -0.1974057E-04 Eh
 * total energy  :  -133.5827166 Eh     change       -0.7270870E-06 Eh
 * total energy  :  -133.5827171 Eh     change       -0.4944685E-06 Eh
 * total energy  :  -133.5827173 Eh     change       -0.2494048E-06 Eh
 * total energy  :  -133.5827176 Eh     change       -0.2787040E-06 Eh
 * total energy  :  -133.5827180 Eh     change       -0.3752098E-06 Eh
 * total energy  :  -133.5827182 Eh     change       -0.1827000E-06 Eh
 * total energy  :  -133.5827182 Eh     change        0.2056697E-07 Eh
 * total energy  :  -133.5827183 Eh     change       -0.1298754E-06 Eh
 * total energy  :  -133.5827183 Eh     change       -0.6159127E-08 Eh
   *** GEOMETRY OPTIMIZATION CONVERGED AFTER 44 ITERATIONS ***

 final structure:
================
107
 xtb: 6.7.1 (edcfbbe)
C           -3.69384348398860        4.58009501809566       -0.98246011057824
C           -3.40645266774186        3.37954768211778       -0.06436478217003
C           -4.54760520417718        2.37266171929010       -0.24034179738496
C           -3.41542232807803        3.85334785590035        1.40185150968057
C           -2.03988160603173        2.79642671033622       -0.36327919165869
C           -0.92518310033916        3.61530029673176       -0.35772909739841
C            0.35262149485191        3.14223335720803       -0.52351715126656
C            0.62490863217804        1.70106146559967       -0.67255308334958
C           -0.55078146519469        0.77776549523905       -1.04499893344307
C           -0.68624095681155        0.66276469928836       -2.62137438739064
C           -1.67020208098655       -0.40418635766829       -3.12523360998770
C            0.62964843715412        0.45791233143559       -3.39628925202650
C           -1.21051260501440        2.01657786153417       -3.14726198267019
C            0.08922484720538       -0.31795954683051       -0.01086008606373
C           -0.83392187024702       -1.21869521464251        0.94914973081223
C           -0.06335006532787       -2.39790201660637        1.72005794246401
C            0.30069367482490       -3.66876129157209        0.93200222504895
C            1.24784062890691       -1.91287353792008        2.34893673908646
C           -0.97949793090861       -2.89573449466557        2.85935284921344
C           -1.36961783275126       -0.40405806723944        2.10166025329943
C           -2.65791620162327       -0.27571331492926        2.42881603233539
C           -3.71059599770729       -0.91579956303144        1.68455748287762
C           -3.42402367027489       -1.68348883973502        0.62863614967133
C           -4.52656611468943       -2.42043075320210       -0.12460065467166
C           -4.01449977764376       -3.31727745573727       -1.25742458759892
C           -5.48631246925805       -1.38838002396873       -0.73684573812082
C           -5.29920064145410       -3.31228009559202        0.86080295669015
C           -2.01338042380551       -1.80259294605323        0.11809163126595
C            1.05930093695269       -1.16985870412613       -0.80569404507922
C            0.59185016390968       -2.20577811815796       -1.61155476683904
C            1.39923791612597       -2.91672843126533       -2.48266676788981
C            2.73464960156442       -2.57335760141399       -2.60306360361281
C            3.24511501661205       -1.58234742798152       -1.79497684006562
C            2.44390647337135       -0.91271318396398       -0.85940814796623
N            3.05048622410531       -0.02128194581814        0.00692314980183
C            4.46684104995937        0.07152271978075        0.05274881658344
C            5.24204753739689       -1.01154476204964        0.45588237991059
C            6.61900291534593       -0.89355342741726        0.50548146331144
C            7.23003573287707        0.30093880205919        0.15883911140996
C            6.45854506621158        1.38180279245445       -0.23685420625446
C            5.08101630177926        1.27058635886103       -0.29074018566859
C            2.32303228998465        0.67128797287914        0.95175133953251
C            2.95277215606702        1.15229873641708        2.07934602302573
C            2.27734947491666        1.88836902098018        3.04287930198551
C            0.91807774473713        2.16016724113765        2.84198797528513
C            0.24750800196578        1.67752754928840        1.76475794973354
C            0.88073473252749        0.89548281539322        0.66258673599960
C           -1.89411286993788        1.31189865111415       -0.50026515262128
H           -2.99077390121256        5.39065617306170       -0.81419111275167
H           -4.69629454867884        4.95971874504793       -0.79448400037591
H           -3.62785529703868        4.28373388010660       -2.02733178281551
H           -4.63184732411130        2.05206253421192       -1.27653860714490
H           -4.40720373407696        1.50010990973660        0.39164329629753
H           -5.48945239006538        2.84287881591273        0.03679353049451
H           -3.26123092975583        3.00783165266953        2.06932820144053
H           -2.62570216018233        4.57850258661178        1.58207159755359
H           -4.37059232926906        4.31530461080231        1.64439431177920
H           -1.05155628187912        4.68134296951154       -0.22883042330019
H            1.19451431617273        3.81898300119072       -0.50828896762322
H            1.48314860066075        1.54144180314741       -1.32441463300311
H           -1.86450072831694       -0.22885503540641       -4.18264262110723
H           -2.63035240087234       -0.35801879386788       -2.61775018415040
H           -1.25782969766926       -1.40219080407793       -3.03655934484429
H            1.27089140100232        1.33363924883022       -3.32968881792328
H            0.38875988145935        0.32348381010996       -4.44990414326583
H            1.18977182340059       -0.40903626437303       -3.07981704759168
H           -2.22345252738829        2.22971647744170       -2.82371160130451
H           -1.20805240671676        1.99742178185901       -4.23601676663179
H           -0.57105969843985        2.83325224141087       -2.82580687478856
H           -0.56559349726385       -4.16782065033878        0.50694771746482
H            0.75537872594202       -4.37149472002070        1.62917693149785
H            1.02303760935210       -3.48506626830991        0.14769327920926
H            1.13908416801607       -0.97516680158896        2.88365900800280
H            1.60342417085682       -2.65801884723407        3.05946934878474
H            2.01456989503502       -1.78850687264273        1.59187122782462
H           -0.58664427369473       -3.82636603836249        3.26493691563140
H           -1.98664389071006       -3.08352373052589        2.49780890647571
H           -1.03631343793300       -2.18355685739818        3.67714501287768
H           -0.62999853974020        0.00760133441112        2.76554949151925
H           -2.93582465202393        0.29107025514538        3.30775179029726
H           -4.71950273626448       -0.79207223901636        2.04897475977289
H           -3.39138152060443       -4.12310804985041       -0.87626655074285
H           -3.45381302094862       -2.75189270196765       -1.99609423897537
H           -4.86470814014110       -3.77225696385565       -1.76263893702315
H           -6.30278436088618       -1.89128159179775       -1.25114782571107
H           -5.90976195119891       -0.74385443499105        0.02810178756731
H           -4.96187824284120       -0.76432919736825       -1.45676336796298
H           -5.77266737438682       -2.72378671664716        1.64148949144878
H           -4.62686199241641       -4.02597593579881        1.33332359595285
H           -6.07476581707924       -3.86692493542359        0.33621503536885
H           -1.83233929596612       -2.86001013411151       -0.05376578380190
H           -2.01198581129191       -1.31488303875466       -0.85247630302800
H           -0.43967526560111       -2.48896463070846       -1.55267582869866
H            0.97905635394860       -3.71405559958410       -3.07680773092219
H            3.37620479519130       -3.07501602080184       -3.31223843397650
H            4.28641921543296       -1.31354958344886       -1.88261258572414
H            4.75953385851376       -1.93883207828481        0.72910287416993
H            7.21640612866787       -1.73614136422613        0.82104533428085
H            8.30527037833578        0.38993539397398        0.19965037410626
H            6.93068813508220        2.31465691620157       -0.50768528853285
H            4.47124686034234        2.10959270231037       -0.59232172962709
H            4.00289218217226        0.94208878950099        2.22409626879760
H            2.79468480075082        2.25226587500750        3.91637659333079
H            0.38671225845248        2.76582653527840        3.56428192552009
H           -0.76990866218026        1.98828436370667        1.62474677383527
H           -2.07384117115115        0.88206955164752        0.48402892044388
H           -2.70466493951678        0.93751472115027       -1.12227684322350

          :  Hamiltonian                  GFN2-xTB          :
         :: gradient norm              0.000043968302 Eh/a0 ::
         :: HOMO-LUMO gap              1.300239094465 eV    ::
         :: SCC energy              -135.799359324072 Eh    ::
         :: -> dispersion             -0.163444058977 Eh    ::
         :: -> Gsolv                  -0.037797084171 Eh    ::
         :: repulsion energy           2.216641026848 Eh    ::

    * Orbital Energies and Occupations

         #    Occupation            Energy/Eh            Energy/eV
      -------------------------------------------------------------
         1        2.0000           -0.6669100             -18.1475
       ...           ...                  ...                  ...
       115        2.0000           -0.4084969             -11.1158
       116        2.0000           -0.4049067             -11.0181
       117        2.0000           -0.4045456             -11.0082
       118        2.0000           -0.4019951             -10.9388
       119        2.0000           -0.3934783             -10.7071
       120        2.0000           -0.3917091             -10.6589
       121        2.0000           -0.3888047             -10.5799
       122        2.0000           -0.3835734             -10.4376
       123        2.0000           -0.3775962             -10.2749
       124        2.0000           -0.3569254              -9.7124
       125        2.0000           -0.3453638              -9.3978
       126        1.0000           -0.2953896              -8.0380
       127        1.0000           -0.2812404              -7.6529 (HOMO)
       128                         -0.2334575              -6.3527 (LUMO)
       129                         -0.2333419              -6.3496
       130                         -0.2314096              -6.2970
       131                         -0.2177248              -5.9246
       132                         -0.2124460              -5.7809
       133                         -0.1825340              -4.9670
       134                         -0.1528552              -4.1594
       135                         -0.1307280              -3.5573
       136                         -0.1184526              -3.2233
       137                         -0.1032783              -2.8103
       138                         -0.0895279              -2.4362
       ...                                ...                  ...
       251                          0.6929013              18.8548
      -------------------------------------------------------------
                  HL-Gap            0.0477829 Eh            1.3002 eV

     #   Z          covCN         q      C6AA      α(0)
     1   6 C        3.760    -0.103    22.514     6.764
     2   6 C        3.902     0.026    20.085     6.370
     3   6 C        3.761    -0.106    22.576     6.773
     4   6 C        3.762    -0.101    22.466     6.757
     5   6 C        2.957    -0.008    28.221     8.713
     6   6 C        2.898    -0.042    29.045     8.836
     7   6 C        2.898    -0.057    29.408     8.892
     8   6 C        4.013    -0.013    20.725     6.467
     9   6 C        3.983     0.004    20.430     6.422
    10   6 C        3.892     0.022    20.160     6.383
    11   6 C        3.762    -0.107    22.581     6.774
    12   6 C        3.767    -0.109    22.620     6.778
    13   6 C        3.769    -0.107    22.575     6.771
    14   6 C        4.017     0.000    20.502     6.432
    15   6 C        3.880     0.012    20.328     6.410
    16   6 C        3.899     0.023    20.141     6.379
    17   6 C        3.767    -0.109    22.617     6.778
    18   6 C        3.763    -0.100    22.453     6.754
    19   6 C        3.765    -0.106    22.575     6.772
    20   6 C        2.913    -0.035    28.875     8.811
    21   6 C        2.902    -0.041    29.009     8.831
    22   6 C        2.907    -0.053    29.323     8.879
    23   6 C        2.957     0.004    27.928     8.668
    24   6 C        3.903     0.024    20.114     6.375
    25   6 C        3.761    -0.107    22.600     6.777
    26   6 C        3.762    -0.103    22.522     6.765
    27   6 C        3.762    -0.104    22.526     6.766
    28   6 C        3.810    -0.080    22.012     6.678
    29   6 C        2.964    -0.005    28.146     8.702
    30   6 C        2.930    -0.042    29.034     8.837
    31   6 C        2.917    -0.049    29.227     8.865
    32   6 C        2.917    -0.037    28.915     8.818
    33   6 C        2.925    -0.060    29.500     8.907
    34   6 C        2.930     0.056    26.736     8.480
    35   7 N        2.756    -0.063    22.461     7.039
    36   6 C        2.930     0.069    26.463     8.436
    37   6 C        2.921    -0.039    28.968     8.826
    38   6 C        2.919    -0.029    28.722     8.788
    39   6 C        2.919    -0.033    28.813     8.802
    40   6 C        2.919    -0.028    28.713     8.787
    41   6 C        2.922    -0.038    28.957     8.824
    42   6 C        2.922     0.045    26.996     8.521
    43   6 C        2.915    -0.061    29.528     8.911
    44   6 C        2.914    -0.058    29.443     8.898
    45   6 C        2.907    -0.047    29.169     8.856
    46   6 C        2.915    -0.052    29.280     8.873
    47   6 C        4.007     0.019    20.182     6.382
    48   6 C        3.809    -0.074    21.907     6.663
    49   1 H        0.925     0.033     2.541     2.493
    50   1 H        0.925     0.036     2.507     2.476
    51   1 H        0.925     0.033     2.550     2.497
    52   1 H        0.925     0.032     2.558     2.501
    53   1 H        0.925     0.042     2.417     2.431
    54   1 H        0.925     0.034     2.536     2.491
    55   1 H        0.925     0.032     2.564     2.504
    56   1 H        0.925     0.032     2.555     2.500
    57   1 H        0.925     0.036     2.503     2.474
    58   1 H        0.925     0.014     2.831     2.631
    59   1 H        0.926     0.001     3.035     2.724
    60   1 H        0.925     0.029     2.597     2.520
    61   1 H        0.925     0.034     2.530     2.487
    62   1 H        0.925     0.033     2.551     2.498
    63   1 H        0.925     0.044     2.401     2.423
    64   1 H        0.925     0.024     2.668     2.555
    65   1 H        0.925     0.032     2.554     2.499
    66   1 H        0.926     0.038     2.474     2.459
    67   1 H        0.925     0.038     2.473     2.459
    68   1 H        0.925     0.031     2.569     2.507
    69   1 H        0.925     0.033     2.549     2.497
    70   1 H        0.925     0.034     2.531     2.488
    71   1 H        0.925     0.034     2.530     2.488
    72   1 H        0.925     0.039     2.456     2.451
    73   1 H        0.925     0.030     2.583     2.513
    74   1 H        0.925     0.030     2.587     2.515
    75   1 H        0.925     0.029     2.595     2.519
    76   1 H        0.925     0.032     2.556     2.500
    77   1 H        0.925     0.039     2.468     2.457
    78   1 H        0.925     0.031     2.577     2.510
    79   1 H        0.926     0.037     2.490     2.468
    80   1 H        0.925     0.012     2.856     2.643
    81   1 H        0.926     0.016     2.800     2.617
    82   1 H        0.925     0.032     2.552     2.498
    83   1 H        0.925     0.041     2.437     2.441
    84   1 H        0.925     0.035     2.518     2.482
    85   1 H        0.925     0.036     2.501     2.473
    86   1 H        0.925     0.036     2.498     2.472
    87   1 H        0.925     0.033     2.543     2.494
    88   1 H        0.925     0.034     2.529     2.487
    89   1 H        0.925     0.031     2.579     2.511
    90   1 H        0.925     0.036     2.501     2.473
    91   1 H        0.925     0.061     2.189     2.313
    92   1 H        0.925     0.076     2.021     2.223
    93   1 H        0.926     0.058     2.228     2.334
    94   1 H        0.926     0.025     2.655     2.548
    95   1 H        0.926     0.022     2.698     2.569
    96   1 H        0.926     0.022     2.705     2.572
    97   1 H        0.926     0.039     2.461     2.453
    98   1 H        0.926     0.041     2.440     2.443
    99   1 H        0.926     0.040     2.453     2.449
   100   1 H        0.926     0.040     2.450     2.448
   101   1 H        0.926     0.037     2.490     2.468
   102   1 H        0.926     0.012     2.856     2.643
   103   1 H        0.926     0.009     2.911     2.668
   104   1 H        0.925     0.011     2.869     2.649
   105   1 H        0.926     0.041     2.438     2.442
   106   1 H        0.925     0.076     2.025     2.225
   107   1 H        0.925     0.056     2.245     2.343

molecular dipole:
                 x           y           z       tot (Debye)
 q only:       -0.491      -0.927      -0.787
   full:       -0.247      -0.771      -0.663       2.661

 projected vibrational frequencies (cm⁻¹)
eigval :       -0.00    -0.00    -0.00     0.00     0.00     0.00
eigval :       13.29    22.22    35.17    35.74    36.96    42.25
eigval :       44.88    49.18    63.06    73.60    78.29    92.98
eigval :      101.71   102.44   107.81   113.15   128.28   146.29
eigval :      158.30   164.27   167.39   170.79   176.61   192.70
eigval :      200.61   203.86   211.67   221.87   224.06   225.27
eigval :      229.04   233.20   235.87   239.62   248.26   249.12
eigval :      259.38   264.13   269.93   284.23   289.74   297.85
eigval :      306.05   307.66   313.31   320.64   328.24   336.01
eigval :      344.66   349.05   351.33   352.54   356.72   362.31
eigval :      368.94   372.68   376.17   376.75   394.32   395.89
eigval :      402.01   410.33   421.58   426.51   436.45   441.21
eigval :      450.52   453.32   461.23   469.06   477.94   484.27
eigval :      486.42   492.65   504.74   505.88   514.38   523.21
eigval :      529.46   537.22   543.92   552.52   580.62   589.38
eigval :      594.03   597.98   609.28   614.11   632.33   646.70
eigval :      669.61   672.64   699.84   703.79   725.77   726.63
eigval :      736.74   747.91   757.27   770.99   779.88   811.75
eigval :      833.64   842.15   857.93   861.93   866.67   868.01
eigval :      872.21   877.49   878.05   880.95   883.43   887.90
eigval :      897.72   898.90   900.72   906.76   912.23   916.25
eigval :      916.57   922.02   928.19   933.51   936.26   936.63
eigval :      947.71   950.92   952.13   955.70   956.68   958.66
eigval :      959.15   959.71   960.68   961.04   962.24   963.96
eigval :      964.76   968.83   990.57  1004.75  1014.85  1019.11
eigval :     1027.72  1029.41  1030.50  1034.43  1037.66  1039.25
eigval :     1047.87  1053.48  1057.54  1069.75  1077.39  1085.04
eigval :     1089.34  1090.84  1096.02  1104.17  1112.92  1113.50
eigval :     1132.16  1148.05  1157.35  1167.51  1175.36  1180.30
eigval :     1183.43  1194.92  1197.44  1199.35  1206.16  1207.03
eigval :     1212.03  1217.78  1218.17  1220.19  1224.49  1225.56
eigval :     1227.40  1228.56  1236.31  1239.83  1242.58  1245.41
eigval :     1251.95  1264.58  1272.43  1273.43  1275.12  1291.09
eigval :     1296.95  1303.11  1310.20  1317.13  1322.26  1328.47
eigval :     1340.28  1342.38  1360.30  1370.26  1386.74  1397.79
eigval :     1401.82  1403.67  1405.73  1405.97  1409.52  1410.61
eigval :     1411.84  1415.25  1425.15  1426.94  1428.08  1434.13
eigval :     1435.14  1438.01  1452.60  1459.69  1465.57  1471.56
eigval :     1474.63  1485.42  1488.38  1490.27  1491.43  1492.09
eigval :     1492.21  1493.54  1494.58  1496.08  1498.69  1498.98
eigval :     1501.54  1502.39  1503.01  1504.34  1506.89  1513.85
eigval :     1516.34  1517.06  1517.58  1518.78  1519.77  1521.08
eigval :     1525.84  1528.53  1530.36  1556.44  1576.19  1578.57
eigval :     1581.70  1590.08  1627.21  1687.94  2978.61  2992.46
eigval :     3004.88  3006.27  3009.33  3009.93  3013.70  3014.88
eigval :     3015.79  3016.61  3017.10  3017.72  3020.38  3022.97
eigval :     3023.20  3024.47  3025.00  3026.69  3027.96  3030.24
eigval :     3031.24  3031.55  3033.04  3033.58  3038.94  3039.36
eigval :     3045.70  3046.72  3046.83  3047.40  3047.74  3049.22
eigval :     3049.84  3051.17  3052.05  3054.11  3055.87  3058.87
eigval :     3064.13  3066.45  3068.84  3070.85  3075.14  3075.39
eigval :     3075.85  3076.04  3077.07  3084.64  3086.25  3087.93
eigval :     3088.09  3094.10  3096.55  3099.92  3105.32  3124.03
eigval :     3152.73  3170.84  3198.41

   temp. (K)  partition function   enthalpy   heat capacity  entropy
                                   cal/mol     cal/K/mol   cal/K/mol   J/K/mol
 298.15  VIB  0.524E+19            28005.238    182.519    168.039
         ROT  0.465E+08              888.752      2.981     38.066
         INT  0.244E+27            28893.990    185.500    206.105
         TR   0.156E+29             1481.254      4.968     45.221
         TOT                       30375.2441   190.4685   251.3265  1051.5503

       T/K    H(0)-H(T)+PV         H(T)/Eh          T*S/Eh         G(T)/Eh
   ------------------------------------------------------------------------
    298.15    0.484060E-01    0.972293E+00    0.119413E+00    0.852880E+00
   ------------------------------------------------------------------------

         :::::::::::::::::::::::::::::::::::::::::::::::::::::
         ::                  THERMODYNAMIC                  ::
         :::::::::::::::::::::::::::::::::::::::::::::::::::::
         :: total free energy        -132.729838196635 Eh   ::
         ::.................................................::
         :: total energy             -133.582718291084 Eh   ::
         :: zero point energy           0.923887415212 Eh   ::
         :: G(RRHO) w/o ZPVE           -0.071007320763 Eh   ::
         :: G(RRHO) contrib.            0.852880094449 Eh   ::
         :::::::::::::::::::::::::::::::::::::::::::::::::::::

           -------------------------------------------------
          | TOTAL ENERGY             -133.582718291084 Eh   |
          | TOTAL ENTHALPY           -132.610424843234 Eh   |
          | TOTAL FREE ENERGY        -132.729838196635 Eh   |
          | GRADIENT NORM               0.000043968616 Eh/α |
          | HOMO-LUMO GAP               1.300238678140 eV   |
           -------------------------------------------------

 * finished run on 2025/09/10 at 00:51:38.891
