   * xtb version 6.7.1 (edcfbbe) compiled by 'albert@albert-system' on 2024-07-22

   ID    Z sym.   atoms
    1    6 C      1-4, 6-14, 16-29, 31-34, 36-62, 64-77, 79-82, 84-103
    2    7 N      5, 15, 30, 35, 63, 78, 83
    3    1 H      104-168

          program call               : xtb data2507/gas/TPA–2PPITPA/TPA–2PPITPA.xyz --gfn 2 --ohess vtight --parallel 40 --molden --ceasefiles --namespace data2507/gas/TPA–2PPITPA/TPA–2PPITPA_gas_S0_preOpt
          :  Hamiltonian                  GFN2-xTB          :
 * total energy  :  -259.2551395 Eh     change       -0.4829246E-08 Eh
 * total energy  :  -259.2835506 Eh     change       -0.2841110E-01 Eh
 * total energy  :  -259.2954309 Eh     change       -0.1188034E-01 Eh
 * total energy  :  -259.3005672 Eh     change       -0.5136294E-02 Eh
 * total energy  :  -259.3038637 Eh     change       -0.3296443E-02 Eh
 * total energy  :  -259.3057758 Eh     change       -0.1912136E-02 Eh
 * total energy  :  -259.3069650 Eh     change       -0.1189193E-02 Eh
 * total energy  :  -259.3079130 Eh     change       -0.9480065E-03 Eh
 * total energy  :  -259.3086958 Eh     change       -0.7828007E-03 Eh
 * total energy  :  -259.3093271 Eh     change       -0.6313215E-03 Eh
 * total energy  :  -259.3184423 Eh     change       -0.1986787E-05 Eh
 * total energy  :  -259.3184446 Eh     change       -0.2274210E-05 Eh
 * total energy  :  -259.3184467 Eh     change       -0.2100482E-05 Eh
 * total energy  :  -259.3184483 Eh     change       -0.1590342E-05 Eh
 * total energy  :  -259.3184496 Eh     change       -0.1250050E-05 Eh
 * total energy  :  -259.3184508 Eh     change       -0.1201149E-05 Eh
 * total energy  :  -259.3184523 Eh     change       -0.1561797E-05 Eh
 * total energy  :  -259.3184547 Eh     change       -0.2390146E-05 Eh
 * total energy  :  -259.3184547 Eh     change       -0.6100663E-08 Eh
   *** GEOMETRY OPTIMIZATION CONVERGED AFTER 420 ITERATIONS ***

 final structure:
================
168
 xtb: 6.7.1 (edcfbbe)
C            0.17800409632297       -3.29879315130954        5.83825477730015
C           -0.67113555900126       -3.68868355220456        4.81553693655892
C           -0.68456909187134       -3.00350855766983        3.61641804996559
C            0.15183124131542       -1.90340144891092        3.42566931980598
N            0.13738833150117       -1.20444347717850        2.21487144512762
C            1.31566307097518       -0.64863772562180        1.70649986850227
C            1.29323873021964        0.59403354439831        1.07238968913200
C            2.45627603294344        1.15112803945239        0.58475211531343
C            3.67391068364744        0.48479510127028        0.70408646960480
C            4.91878251727941        1.07806443459575        0.20205379012540
C            5.21431217228756        2.42156595869194        0.42808745932739
C            6.41463117377121        2.95741632022906        0.01328756262533
C            7.35435934229232        2.16821483626958       -0.65105794065110
C            8.62661989957631        2.77312646195885       -1.00959510780940
N            8.75965624576046        4.02662071186968       -1.36498217370015
C           10.08539819414442        4.21223008240738       -1.59598907560453
C           10.73798747818716        5.39692013298725       -2.03673941292415
C           10.01574176639932        6.56415335210071       -2.30609678038193
C           10.65966257120291        7.68967595765819       -2.75519223616152
C           12.03994417477373        7.65852273440640       -2.94433507232389
C           12.76050132839979        6.51782969300327       -2.67800368202462
C           12.14035148645566        5.34932722142663       -2.20951822336414
C           12.87773167611659        4.13935512600077       -1.88873277034245
C           14.27557645792086        4.08265051193225       -1.98227735916685
C           14.98482710748402        2.95523009649615       -1.64213572988726
C           14.32008008083945        1.82686599558514       -1.17264476425530
C           12.95097453843424        1.83794386158645       -1.07239730197384
C           12.20707228002894        2.96845507166422       -1.43968997798236
C           10.78812540625810        3.03208926320254       -1.35571318818667
N            9.83600717014148        2.11033354779224       -0.98775167276380
C            9.98447738700809        0.75175456020324       -0.65168854566616
C            9.60030200636499        0.31024301305435        0.61034312213422
C            9.62933774057696       -1.03475712433320        0.91019580139254
C           10.04093654066450       -1.96603573270433       -0.04546479438219
N           10.01427671038634       -3.32960035023689        0.24450395295819
C           11.00820163987094       -4.17655927026912       -0.26206433366922
C           12.33063924439600       -3.74084796412799       -0.33862615788176
C           13.30986008990240       -4.57514046710848       -0.84150356807078
C           12.99126930570491       -5.85462031237991       -1.26606532789283
C           11.67971269523361       -6.29340007734208       -1.18792697356236
C           10.69160328801346       -5.46340327746125       -0.69504297565575
C            8.96111085969879       -3.85601229248427        1.00469489457708
C            9.19280786891512       -4.88968486891007        1.91085807708840
C            8.14940084869095       -5.41437396563523        2.64875716557535
C            6.86526593923376       -4.91663773165407        2.50122896042021
C            6.63102783411457       -3.88688429729197        1.60487696023408
C            7.66627279965953       -3.35830298373390        0.85887890902400
C           10.46063660201471       -1.51121018501327       -1.29784510826115
C           10.42821921992473       -0.16654375213579       -1.59980557600710
C            7.03179905281009        0.84251510656510       -0.94009034188176
C            5.83762234765589        0.30608025761725       -0.50558758132838
C            3.68895689820679       -0.76115880849145        1.32859998855211
C            2.53178646272027       -1.32161522905733        1.82607398106584
C           -1.05941471249563       -1.04567292715091        1.50927960908506
C           -2.25923513476860       -0.80938447140289        2.18008897890102
C           -3.43475227659263       -0.65923493670670        1.47607221004101
C           -3.45719013173513       -0.73355040812050        0.08306416767261
C           -4.71012605492150       -0.57906888660851       -0.66300687812645
C           -5.90985670737861       -1.07790709049791       -0.15648074253583
C           -7.09229345032821       -0.93814970444627       -0.85295387270569
C           -7.11163155284851       -0.28857503164599       -2.08612907819218
C           -8.32072388852264       -0.12845248724423       -2.87566383304298
N           -8.34040347684009       -0.20308607433829       -4.18351390265649
C           -9.63598819954539       -0.02344760741613       -4.54907977326817
C          -10.18565112117767       -0.05556924081042       -5.86081477862980
C           -9.38042803606119       -0.30309932073710       -6.97747229444094
C           -9.93365635189540       -0.36008422282763       -8.23200055933690
C          -11.30628443900393       -0.17329927622803       -8.38343042258010
C          -12.10637611274476        0.07616351854932       -7.29305613121705
C          -11.57760505867240        0.15120832017916       -5.99526315111941
C          -12.39113973488230        0.44300748118111       -4.82753758711167
C          -13.76047291664386        0.72371692722232       -4.93697832771702
C          -14.53127406584395        1.03744567583671       -3.84281114862732
C          -13.95573190599581        1.09872578487361       -2.57779637502140
C          -12.61916424688199        0.82444975706354       -2.42566692389501
C          -11.82044468352540        0.47910743294338       -3.52526915704810
C          -10.43164354969256        0.18642961843033       -3.42335977536255
N           -9.57300698931864        0.10465451598617       -2.35125465601544
C           -9.84976634967773        0.26857226811945       -0.97973128342509
C           -9.31251168664912        1.35229810675674       -0.29415076490483
C           -9.54059287016617        1.49862946001202        1.05784652761979
C          -10.31192745169307        0.56447417700414        1.75185693316051
N          -10.54116471803738        0.70990053983554        3.11911208611348
C          -10.58161840149723       -0.42071970285155        3.94596105246425
C          -11.48534834578218       -0.49004234448577        5.00507514199485
C          -11.51425975516640       -1.60384896338027        5.82173702337855
C          -10.65354470335248       -2.66485061110353        5.59274208038569
C           -9.75620292670951       -2.60192569030921        4.53935151520385
C           -9.71373470319392       -1.48894711070854        3.72233199796485
C          -10.71850106409075        1.98598862024668        3.67035023479557
C          -10.19931328192619        2.29148578905814        4.92755749151458
C          -10.38577280926255        3.54833091966431        5.46969989874520
C          -11.08142012872465        4.51941916371386        4.76834710052792
C          -11.59550285450355        4.22179220085250        3.51698372967752
C          -11.42195137653283        2.96529202812580        2.97009004824237
C          -10.84924827961592       -0.52133757625752        1.05515346196900
C          -10.61682095649973       -0.67087419313676       -0.29518475894274
C           -5.91085018937942        0.19355353803447       -2.60802882256554
C           -4.73349215180012        0.05552434676178       -1.90583349104534
C           -2.25185759477659       -0.96478933753357       -0.58035566014762
C           -1.07313650729580       -1.12037689705681        0.11621164468913
C            1.00113704844892       -1.51185540834672        4.46080839360247
C            1.01370610800194       -2.20968820742643        5.65261134941119
H            0.18817435429293       -3.83912091972413        6.77262262845695
H           -1.32304905096543       -4.53961443794615        4.94873954960973
H           -1.33978226881320       -3.31744533983987        2.81703137967177
H            0.35555335973689        1.12106129465390        0.97308458114447
H            2.42150008943541        2.11206601247359        0.09296174413948
H            4.50717828088104        3.03807973154387        0.96361607578905
H            6.65527661873620        3.99152173454194        0.20493445664564
H            8.94775641186972        6.54185368548880       -2.15440851409409
H           10.10600550028348        8.59283825081875       -2.96575089758593
H           12.55083253819657        8.54016314178718       -3.30409216303290
H           13.82625162258522        6.54087829386301       -2.84203295441636
H           14.82565423672044        4.94529658237082       -2.32199139549035
H           16.06156274552363        2.94992711591804       -1.72786134830297
H           14.87799856642847        0.94801354043441       -0.88446816736974
H           12.43920147493395        0.96845698625380       -0.69074179537963
H            9.27041886183558        1.02696336654060        1.34728697971453
H            9.32431166956072       -1.37686303376744        1.88754122426257
H           12.58342218569955       -2.74746726913184        0.00256104754253
H           14.33062818920625       -4.22626042692469       -0.89396978770033
H           13.75963551743522       -6.50511290029683       -1.65500521677420
H           11.42117224499088       -7.28745559744977       -1.52173542264088
H            9.66791036191412       -5.80433995857920       -0.64505457356574
H           10.19454918018989       -5.27522723667751        2.03146372965337
H            8.34253542533638       -6.21375818308156        3.34878041592356
H            6.05236866312449       -5.32844239165380        3.07958992778167
H            5.62975194808490       -3.50226194227577        1.47702898431422
H            7.47953030535538       -2.56000040124938        0.15525176698499
H           10.78732051932156       -2.22300031425279       -2.04099673332393
H           10.72626186696939        0.18048583469714       -2.57840553330663
H            7.70477242371954        0.23058661558615       -1.52133542242114
H            5.59859123679605       -0.72224040727034       -0.73661819391005
H            4.62790938307775       -1.28342870350925        1.44170836678814
H            2.55905331877295       -2.28573583801756        2.31302757633134
H           -2.25865564803077       -0.73699592826394        3.25804359429738
H           -4.34757577050685       -0.45015203847556        2.01417247156757
H           -5.91096706339634       -1.60935850375869        0.78405726043856
H           -7.99777774313357       -1.36388550628340       -0.44750724187134
H           -8.32433687981804       -0.45143919204490       -6.81387906073066
H           -9.31618398151332       -0.55240110951144       -9.09705963296676
H          -11.74799641232766       -0.22495609699754       -9.36829946840124
H          -13.16346246471669        0.21089671702939       -7.45945581433828
H          -14.23586016698649        0.70503767689654       -5.90434710379740
H          -15.58339825616731        1.24785059941034       -3.96734213100966
H          -14.55574432083345        1.36427613409802       -1.71977408549562
H          -12.17276242550985        0.88879660014291       -1.44600613498941
H           -8.70695621218764        2.07055688056242       -0.82627839585031
H           -9.11663270885408        2.33743765056149        1.58883115726039
H          -12.16272645022390        0.33295273998298        5.17985513616370
H          -12.22003559194112       -1.64648152050590        6.63807227661103
H          -10.68131413348686       -3.53447433266328        6.23137122723777
H           -9.07705476781948       -3.42183779895480        4.35751973433220
H           -9.00484521028629       -1.43592725892599        2.90869833272353
H           -9.64870381156472        1.53862921883093        5.47234997017019
H           -9.97720674236163        3.77307602285948        6.44385517839597
H          -11.22227929391811        5.50113772963179        5.19404098696292
H          -12.14411184074956        4.97074111975478        2.96514903054652
H          -11.83366313930826        2.73277780680208        1.99876895155275
H          -11.45061893337450       -1.24641219357757        1.58273135940840
H          -11.03572610318593       -1.50933242031539       -0.83238838276468
H           -5.92628051628336        0.67996420303437       -3.57093246304295
H           -3.82014841993880        0.46179645904527       -2.31445366025324
H           -2.24393799365187       -1.05669696671819       -1.65612872447422
H           -0.15079853101917       -1.31108650397053       -0.41286657265736
H            1.64581049286926       -0.65588058582609        4.32459697105965
H            1.67541001820185       -1.89424633322833        6.44598084788149

          :  Hamiltonian                  GFN2-xTB          :
         :: gradient norm              0.000065838702 Eh/a0 ::
         :: HOMO-LUMO gap              2.346668189468 eV    ::
         :: SCC energy              -264.207350660534 Eh    ::
         :: -> dispersion             -0.251393712278 Eh    ::
         :: repulsion energy           4.888895937152 Eh    ::

    * Orbital Energies and Occupations

         #    Occupation            Energy/Eh            Energy/eV
      -------------------------------------------------------------
         1        2.0000           -0.6822846             -18.5659
       ...           ...                  ...                  ...
       230        2.0000           -0.3974854             -10.8161
       231        2.0000           -0.3952581             -10.7555
       232        2.0000           -0.3917582             -10.6603
       233        2.0000           -0.3885494             -10.5730
       234        2.0000           -0.3771510             -10.2628
       235        2.0000           -0.3766372             -10.2488
       236        2.0000           -0.3724829             -10.1358
       237        2.0000           -0.3720795             -10.1248
       238        2.0000           -0.3605323              -9.8106
       239        2.0000           -0.3592441              -9.7755
       240        2.0000           -0.3567160              -9.7067
       241        2.0000           -0.3559101              -9.6848
       242        2.0000           -0.3486651              -9.4877 (HOMO)
       243                         -0.2624267              -7.1410 (LUMO)
       244                         -0.2594019              -7.0587
       245                         -0.2480425              -6.7496
       246                         -0.2471824              -6.7262
       247                         -0.2431324              -6.6160
       248                         -0.2420570              -6.5867
       249                         -0.2405485              -6.5457
       250                         -0.2404030              -6.5417
       251                         -0.2398022              -6.5253
       252                         -0.2392430              -6.5101
       253                         -0.2365574              -6.4371
       ...                                ...                  ...
       477                          0.7334928              19.9594
      -------------------------------------------------------------
                  HL-Gap            0.0862385 Eh            2.3467 eV

     #   Z          covCN         q      C6AA      α(0)
     1   6 C        2.919    -0.039    28.965     8.826
     2   6 C        2.920    -0.029    28.732     8.790
     3   6 C        2.922    -0.048    29.198     8.861
     4   6 C        2.924     0.065    26.546     8.449
     5   7 N        2.752    -0.074    22.671     7.072
     6   6 C        2.925     0.063    26.580     8.455
     7   6 C        2.921    -0.048    29.185     8.859
     8   6 C        2.924    -0.034    28.837     8.806
     9   6 C        2.977     0.002    27.973     8.676
    10   6 C        2.977     0.011    27.766     8.643
    11   6 C        2.923    -0.033    28.833     8.806
    12   6 C        2.927    -0.028    28.710     8.787
    13   6 C        2.974     0.000    28.015     8.682
    14   6 C        3.194     0.127    24.761     8.114
    15   7 N        1.894    -0.292    28.408     7.902
    16   6 C        3.208     0.056    26.136     8.324
    17   6 C        2.986     0.003    27.956     8.673
    18   6 C        2.922    -0.031    28.781     8.798
    19   6 C        2.917    -0.030    28.761     8.794
    20   6 C        2.917    -0.033    28.828     8.805
    21   6 C        2.922    -0.035    28.871     8.811
    22   6 C        2.979    -0.002    28.065     8.690
    23   6 C        2.980     0.002    27.982     8.677
    24   6 C        2.922    -0.034    28.843     8.807
    25   6 C        2.916    -0.034    28.842     8.807
    26   6 C        2.917    -0.032    28.800     8.800
    27   6 C        2.919    -0.040    28.996     8.830
    28   6 C        2.978    -0.002    28.065     8.690
    29   6 C        3.073     0.019    27.499     8.598
    30   7 N        2.842    -0.044    22.085     6.980
    31   6 C        2.913     0.058    26.696     8.472
    32   6 C        2.921    -0.038    28.952     8.824
    33   6 C        2.923    -0.046    29.144     8.853
    34   6 C        2.925     0.066    26.524     8.446
    35   7 N        2.753    -0.074    22.677     7.073
    36   6 C        2.924     0.064    26.564     8.452
    37   6 C        2.923    -0.047    29.179     8.858
    38   6 C        2.920    -0.029    28.716     8.788
    39   6 C        2.919    -0.037    28.930     8.820
    40   6 C        2.920    -0.029    28.714     8.787
    41   6 C        2.922    -0.047    29.172     8.857
    42   6 C        2.925     0.064    26.563     8.452
    43   6 C        2.922    -0.047    29.160     8.855
    44   6 C        2.920    -0.029    28.714     8.787
    45   6 C        2.919    -0.037    28.929     8.820
    46   6 C        2.920    -0.028    28.708     8.786
    47   6 C        2.922    -0.047    29.176     8.858
    48   6 C        2.922    -0.048    29.182     8.859
    49   6 C        2.920    -0.038    28.941     8.822
    50   6 C        2.920    -0.035    28.869     8.811
    51   6 C        2.924    -0.035    28.865     8.811
    52   6 C        2.925    -0.034    28.851     8.809
    53   6 C        2.920    -0.048    29.191     8.860
    54   6 C        2.925     0.063    26.580     8.455
    55   6 C        2.920    -0.048    29.194     8.860
    56   6 C        2.924    -0.034    28.852     8.809
    57   6 C        2.975     0.002    27.975     8.676
    58   6 C        2.975     0.011    27.775     8.645
    59   6 C        2.924    -0.035    28.879     8.813
    60   6 C        2.920    -0.035    28.878     8.812
    61   6 C        2.974     0.000    28.020     8.683
    62   6 C        3.195     0.127    24.749     8.111
    63   7 N        1.895    -0.292    28.427     7.904
    64   6 C        3.209     0.056    26.130     8.322
    65   6 C        2.986     0.003    27.956     8.673
    66   6 C        2.922    -0.031    28.781     8.798
    67   6 C        2.917    -0.031    28.762     8.794
    68   6 C        2.917    -0.033    28.830     8.805
    69   6 C        2.922    -0.035    28.872     8.812
    70   6 C        2.979    -0.002    28.066     8.690
    71   6 C        2.980     0.002    27.983     8.677
    72   6 C        2.922    -0.034    28.844     8.807
    73   6 C        2.916    -0.034    28.843     8.807
    74   6 C        2.917    -0.032    28.802     8.801
    75   6 C        2.919    -0.040    29.002     8.831
    76   6 C        2.978    -0.002    28.066     8.690
    77   6 C        3.075     0.019    27.500     8.598
    78   7 N        2.841    -0.045    22.100     6.982
    79   6 C        2.912     0.058    26.691     8.472
    80   6 C        2.921    -0.038    28.953     8.824
    81   6 C        2.922    -0.046    29.151     8.854
    82   6 C        2.924     0.066    26.520     8.445
    83   7 N        2.753    -0.074    22.679     7.073
    84   6 C        2.925     0.064    26.561     8.452
    85   6 C        2.922    -0.047    29.159     8.855
    86   6 C        2.920    -0.028    28.713     8.787
    87   6 C        2.919    -0.037    28.926     8.820
    88   6 C        2.920    -0.029    28.718     8.788
    89   6 C        2.922    -0.047    29.174     8.858
    90   6 C        2.924     0.064    26.565     8.452
    91   6 C        2.922    -0.047    29.166     8.856
    92   6 C        2.920    -0.029    28.715     8.787
    93   6 C        2.919    -0.037    28.925     8.819
    94   6 C        2.920    -0.029    28.715     8.787
    95   6 C        2.922    -0.047    29.176     8.858
    96   6 C        2.922    -0.048    29.183     8.859
    97   6 C        2.920    -0.037    28.929     8.820
    98   6 C        2.926    -0.028    28.711     8.787
    99   6 C        2.923    -0.034    28.839     8.807
   100   6 C        2.924    -0.034    28.845     8.808
   101   6 C        2.920    -0.048    29.185     8.859
   102   6 C        2.922    -0.048    29.198     8.861
   103   6 C        2.920    -0.029    28.732     8.790
   104   1 H        0.926     0.030     2.589     2.516
   105   1 H        0.926     0.031     2.571     2.507
   106   1 H        0.926     0.031     2.568     2.506
   107   1 H        0.926     0.033     2.546     2.495
   108   1 H        0.926     0.036     2.504     2.475
   109   1 H        0.926     0.036     2.499     2.472
   110   1 H        0.926     0.052     2.300     2.372
   111   1 H        0.926     0.050     2.320     2.382
   112   1 H        0.926     0.029     2.598     2.521
   113   1 H        0.926     0.027     2.630     2.536
   114   1 H        0.926     0.030     2.591     2.517
   115   1 H        0.926     0.033     2.538     2.491
   116   1 H        0.926     0.027     2.622     2.532
   117   1 H        0.926     0.025     2.653     2.547
   118   1 H        0.926     0.025     2.660     2.550
   119   1 H        0.926     0.040     2.444     2.444
   120   1 H        0.926     0.040     2.446     2.446
   121   1 H        0.926     0.031     2.576     2.510
   122   1 H        0.926     0.033     2.540     2.492
   123   1 H        0.926     0.032     2.555     2.499
   124   1 H        0.926     0.033     2.540     2.492
   125   1 H        0.926     0.033     2.549     2.497
   126   1 H        0.926     0.033     2.540     2.492
   127   1 H        0.926     0.033     2.538     2.491
   128   1 H        0.926     0.032     2.556     2.500
   129   1 H        0.926     0.032     2.555     2.499
   130   1 H        0.926     0.031     2.578     2.511
   131   1 H        0.926     0.041     2.439     2.442
   132   1 H        0.926     0.044     2.397     2.421
   133   1 H        0.926     0.026     2.648     2.545
   134   1 H        0.926     0.030     2.582     2.513
   135   1 H        0.926     0.033     2.548     2.496
   136   1 H        0.926     0.032     2.560     2.502
   137   1 H        0.926     0.032     2.553     2.499
   138   1 H        0.926     0.033     2.542     2.493
   139   1 H        0.926     0.031     2.572     2.508
   140   1 H        0.926     0.025     2.651     2.546
   141   1 H        0.926     0.050     2.319     2.382
   142   1 H        0.926     0.029     2.599     2.521
   143   1 H        0.926     0.027     2.632     2.537
   144   1 H        0.926     0.030     2.592     2.518
   145   1 H        0.926     0.033     2.538     2.491
   146   1 H        0.926     0.027     2.624     2.533
   147   1 H        0.926     0.025     2.654     2.548
   148   1 H        0.926     0.025     2.666     2.553
   149   1 H        0.926     0.041     2.438     2.442
   150   1 H        0.926     0.041     2.441     2.443
   151   1 H        0.926     0.033     2.541     2.493
   152   1 H        0.926     0.034     2.536     2.490
   153   1 H        0.926     0.032     2.553     2.498
   154   1 H        0.926     0.033     2.541     2.493
   155   1 H        0.926     0.030     2.584     2.514
   156   1 H        0.926     0.033     2.549     2.497
   157   1 H        0.926     0.033     2.538     2.491
   158   1 H        0.926     0.032     2.551     2.498
   159   1 H        0.926     0.034     2.534     2.490
   160   1 H        0.926     0.031     2.573     2.509
   161   1 H        0.926     0.041     2.442     2.444
   162   1 H        0.926     0.043     2.404     2.424
   163   1 H        0.926     0.051     2.311     2.377
   164   1 H        0.926     0.037     2.491     2.468
   165   1 H        0.926     0.037     2.493     2.469
   166   1 H        0.926     0.033     2.548     2.496
   167   1 H        0.926     0.031     2.568     2.506
   168   1 H        0.926     0.031     2.569     2.506

molecular dipole:
                 x           y           z       tot (Debye)
 q only:       -0.101      -1.079       1.754
   full:       -0.131      -1.345       2.095       6.338

 projected vibrational frequencies (cm⁻¹)
eigval :       -0.00    -0.00    -0.00    -0.00     0.00     0.00
eigval :        2.68     3.10     4.07     6.28     7.73     8.81
eigval :       10.75    12.52    17.03    17.48    18.47    22.54
eigval :       27.07    29.09    35.42    37.12    39.25    41.27
eigval :       48.33    49.64    51.09    55.72    58.64    59.34
eigval :       62.57    62.93    69.94    71.58    73.63    75.96
eigval :       76.76    81.56    81.94    85.08    86.34    88.70
eigval :       92.08   103.20   105.83   111.32   115.26   123.29
eigval :      129.07   142.05   149.72   154.92   160.22   162.57
eigval :      175.61   178.06   182.95   185.27   203.44   207.23
eigval :      212.05   216.07   225.79   230.66   233.64   234.53
eigval :      244.84   254.94   257.46   262.70   269.35   284.82
eigval :      292.01   298.15   305.78   307.92   310.08   313.19
eigval :      316.60   328.02   337.40   348.53   351.41   355.54
eigval :      363.75   367.40   373.83   375.49   377.74   378.23
eigval :      378.91   380.36   381.58   382.93   385.24   388.17
eigval :      388.82   389.92   392.32   397.01   397.45   400.83
eigval :      403.58   409.51   412.09   416.29   426.65   429.99
eigval :      435.04   442.23   447.10   448.56   455.94   457.65
eigval :      472.08   473.07   482.91   488.63   491.39   494.37
eigval :      498.36   499.61   503.17   517.67   519.71   524.07
eigval :      524.32   529.67   533.71   535.34   535.41   546.22
eigval :      550.13   581.48   583.53   585.29   585.34   586.84
eigval :      587.12   587.69   592.22   593.46   594.84   600.19
eigval :      603.03   608.18   609.83   612.44   617.56   622.53
eigval :      627.17   631.75   642.46   642.79   653.46   653.88
eigval :      659.94   660.13   660.73   663.23   663.42   670.86
eigval :      672.52   673.31   675.40   677.93   679.02   681.22
eigval :      683.36   685.38   688.63   692.34   704.26   707.01
eigval :      711.74   718.54   735.32   735.41   737.76   741.47
eigval :      751.63   757.04   757.24   760.68   761.67   761.84
eigval :      765.51   765.90   768.28   782.45   782.47   794.77
eigval :      799.82   805.74   807.72   821.43   821.90   830.55
eigval :      832.30   862.18   862.39   867.01   869.01   869.26
eigval :      869.44   872.87   874.07   874.59   874.75   874.93
eigval :      875.09   876.12   876.25   876.28   891.77   892.68
eigval :      893.10   893.54   893.60   906.70   906.82   909.99
eigval :      910.06   911.46   911.84   912.69   913.35   913.88
eigval :      914.17   914.41   915.00   915.16   919.20   920.98
eigval :      922.45   923.01   923.21   924.51   925.83   925.91
eigval :      926.38   927.25   927.26   927.44   927.85   928.30
eigval :      928.77   929.00   929.36   929.36   929.40   930.12
eigval :      930.48   931.06   932.30   940.31   940.49   961.61
eigval :      965.34   981.86   984.95   990.82  1002.90  1003.61
eigval :     1005.35  1005.39  1013.84  1014.48  1017.88  1021.89
eigval :     1033.52  1034.60  1071.16  1071.30  1079.97  1082.75
eigval :     1082.96  1083.59  1084.09  1084.18  1085.38  1085.87
eigval :     1085.92  1107.92  1108.14  1121.72  1122.07  1123.78
eigval :     1123.89  1124.29  1133.43  1133.95  1135.59  1135.91
eigval :     1137.60  1138.10  1143.74  1149.50  1152.81  1153.25
eigval :     1174.95  1175.41  1180.63  1180.64  1180.71  1180.84
eigval :     1180.93  1183.03  1183.05  1184.33  1184.41  1186.09
eigval :     1186.12  1187.44  1190.65  1191.19  1194.59  1195.31
eigval :     1195.84  1196.25  1202.07  1206.39  1207.20  1207.75
eigval :     1216.87  1217.09  1219.23  1253.80  1253.94  1257.81
eigval :     1257.92  1264.46  1264.53  1268.64  1269.81  1272.10
eigval :     1276.72  1277.89  1278.37  1278.77  1281.50  1282.11
eigval :     1284.25  1284.39  1286.75  1290.27  1304.79  1306.27
eigval :     1310.80  1311.41  1312.52  1318.90  1319.07  1320.05
eigval :     1320.36  1321.21  1321.87  1324.24  1324.39  1324.88
eigval :     1326.90  1327.05  1327.34  1328.96  1330.65  1334.46
eigval :     1340.26  1340.81  1340.86  1349.42  1350.48  1384.96
eigval :     1385.09  1396.92  1398.80  1407.79  1407.85  1412.92
eigval :     1415.52  1416.18  1419.95  1422.82  1423.08  1433.51
eigval :     1433.63  1436.44  1436.64  1437.99  1438.21  1440.65
eigval :     1443.95  1444.27  1462.64  1463.54  1472.55  1472.74
eigval :     1475.08  1476.34  1476.45  1485.71  1485.83  1497.49
eigval :     1498.62  1514.87  1515.07  1518.01  1518.22  1542.89
eigval :     1543.42  1552.09  1555.27  1556.55  1556.82  1560.29
eigval :     1562.46  1565.76  1566.50  1570.90  1571.37  1578.11
eigval :     1578.27  1579.17  1582.13  1582.25  1587.33  1591.23
eigval :     1595.00  1595.03  1595.17  1595.22  1595.53  1595.66
eigval :     1597.48  1600.92  1600.97  1602.95  1604.72  1605.12
eigval :     1605.69  3071.12  3071.27  3072.72  3074.01  3074.06
eigval :     3075.33  3075.50  3075.73  3076.24  3076.29  3077.01
eigval :     3077.11  3077.52  3078.19  3078.27  3078.68  3079.09
eigval :     3079.13  3079.16  3080.07  3081.95  3082.63  3082.77
eigval :     3084.12  3084.35  3084.61  3084.79  3085.23  3085.94
eigval :     3086.25  3086.57  3086.93  3087.02  3087.69  3088.88
eigval :     3088.96  3089.17  3089.75  3089.82  3090.00  3090.87
eigval :     3091.15  3091.50  3093.19  3094.32  3095.27  3096.17
eigval :     3096.22  3097.11  3097.55  3097.59  3098.85  3099.08
eigval :     3099.51  3099.56  3100.08  3100.14  3104.52  3104.56
eigval :     3104.89  3104.90  3109.07  3110.03  3110.23  3112.89

   temp. (K)  partition function   enthalpy   heat capacity  entropy
                                   cal/mol     cal/K/mol   cal/K/mol   J/K/mol
 298.15  VIB  0.309E+45            50053.841    307.339    322.750
         ROT  0.152E+10              888.752      2.981     44.999
         INT  0.470E+54            50942.593    310.320    367.749
         TR   0.462E+29             1481.254      4.968     47.380
         TOT                       52423.8469   315.2880   415.1285  1736.8978

       T/K    H(0)-H(T)+PV         H(T)/Eh          T*S/Eh         G(T)/Eh
   ------------------------------------------------------------------------
    298.15    0.835427E-01    0.138244E+01    0.197241E+00    0.118520E+01
   ------------------------------------------------------------------------

         :::::::::::::::::::::::::::::::::::::::::::::::::::::
         ::                  THERMODYNAMIC                  ::
         :::::::::::::::::::::::::::::::::::::::::::::::::::::
         :: total free energy        -258.133251511057 Eh   ::
         ::.................................................::
         :: total energy             -259.318454723380 Eh   ::
         :: zero point energy           1.298901458875 Eh   ::
         :: G(RRHO) w/o ZPVE           -0.113698246551 Eh   ::
         :: G(RRHO) contrib.            1.185203212323 Eh   ::
         :::::::::::::::::::::::::::::::::::::::::::::::::::::

           -------------------------------------------------
          | TOTAL ENERGY             -259.318454723380 Eh   |
          | TOTAL ENTHALPY           -257.936010546694 Eh   |
          | TOTAL FREE ENERGY        -258.133251511057 Eh   |
          | GRADIENT NORM               0.000065838835 Eh/α |
          | HOMO-LUMO GAP               2.346668085232 eV   |
           -------------------------------------------------

 * finished run on 2025/09/07 at 06:26:14.034
