   * xtb version 6.7.1 (edcfbbe) compiled by 'albert@albert-system' on 2024-07-22

   ID    Z sym.   atoms
    1    6 C      1-4, 6-14, 16-29, 31-34, 36-62, 64-77, 79-82, 84-103
    2    7 N      5, 15, 30, 35, 63, 78, 83
    3    1 H      104-168

          program call               : xtb data2507/gas/TPA–2PPITPA/TPA–2PPITPA_gas_T1_crest.xyz --gfn 2 --spinpol --tblite --uhf 2 --ohess vtight --parallel 40 --molden --ceasefiles --namespace data2507/gas/TPA–2PPITPA/TPA–2PPITPA_gas_T1_finalOpt
 * total energy  :  -259.2484686 Eh     change       -0.9456863E-07 Eh
 * total energy  :  -259.2484805 Eh     change       -0.1185213E-04 Eh
 * total energy  :  -259.2484867 Eh     change       -0.6262802E-05 Eh
 * total energy  :  -259.2484891 Eh     change       -0.2385936E-05 Eh
 * total energy  :  -259.2484927 Eh     change       -0.3575689E-05 Eh
 * total energy  :  -259.2484983 Eh     change       -0.5579672E-05 Eh
 * total energy  :  -259.2485050 Eh     change       -0.6724515E-05 Eh
 * total energy  :  -259.2485112 Eh     change       -0.6181638E-05 Eh
 * total energy  :  -259.2485182 Eh     change       -0.7084970E-05 Eh
 * total energy  :  -259.2485263 Eh     change       -0.8022493E-05 Eh
 * total energy  :  -259.2488740 Eh     change       -0.8779890E-06 Eh
 * total energy  :  -259.2488745 Eh     change       -0.4999176E-06 Eh
 * total energy  :  -259.2488752 Eh     change       -0.6866127E-06 Eh
 * total energy  :  -259.2488760 Eh     change       -0.8746912E-06 Eh
 * total energy  :  -259.2488770 Eh     change       -0.9839907E-06 Eh
 * total energy  :  -259.2488780 Eh     change       -0.1009662E-05 Eh
 * total energy  :  -259.2488792 Eh     change       -0.1194377E-05 Eh
 * total energy  :  -259.2488792 Eh     change        0.1742615E-07 Eh
 * total energy  :  -259.2488792 Eh     change       -0.2892523E-07 Eh
   *** GEOMETRY OPTIMIZATION CONVERGED AFTER 95 ITERATIONS ***

 final structure:
================
168
 xtb: 6.7.1 (edcfbbe)
C           -0.51790329316166      -11.35256371019602        0.60624837182832
C            0.45811165539015      -10.71752452472552       -0.14602920199189
C            0.48860482655107       -9.34097627475507       -0.23529284151701
C           -0.46303470617547       -8.57141674801582        0.44040968887547
N           -0.43219465800170       -7.19115646626478        0.35264921786579
C            0.74410855565321       -6.48329810608115        0.04360843485937
C            1.92425276966206       -6.65775607757759        0.76476249743966
C            2.98434986331472       -5.79605806495606        0.56491317561695
C            2.90999719962984       -4.77509358348323       -0.38117861073262
C            3.97469419494186       -3.77325239823703       -0.52332849590253
C            4.50501239436455       -3.45627202414156       -1.77193581243148
C            5.45228505168938       -2.46165911453704       -1.89946069869561
C            5.85911942028682       -1.72989377797561       -0.78561070280764
C            6.81836091902179       -0.64765435732564       -0.95836104102958
N            7.93357588817159       -0.75075580704428       -1.63210508466862
C            8.53891501681718        0.46404414303018       -1.53585939606850
C            9.80825318197619        0.84590423112028       -2.05143229426206
C           10.61198435243906       -0.06424443484766       -2.74593885050154
C           11.85293500020435        0.31058906983077       -3.19618653094488
C           12.30789947735154        1.60473932821474       -2.95067292307391
C           11.52275549708380        2.50988135586696       -2.27572627262456
C           10.24355747275916        2.16897633534566       -1.81021041550442
C            9.37104582695427        3.11336206336588       -1.13448600050430
C            9.73142514257872        4.45882868674609       -0.97304482111708
C            8.89013227915336        5.37527089031205       -0.38846364770867
C            7.62675242795324        4.98490182000858        0.04347745417157
C            7.23901194774364        3.67442956250265       -0.08627231900494
C            8.09724714820943        2.71489772898021       -0.64279339902264
C            7.74818411562708        1.34279774485674       -0.79710204356786
N            6.64771855880724        0.60667313008598       -0.41440805221549
C            5.54321801164587        0.99378044426082        0.36558740539523
C            4.25436647316327        0.83288161296800       -0.13059756489997
C            3.16568831757154        1.22044731062012        0.62130779539682
C            3.34250187414953        1.79062471330178        1.88209615017416
N            2.25146377328113        2.25996028159220        2.61540569683173
C            2.38531675841964        3.44700212848826        3.35029967389271
C            3.14571426660541        4.50260151006898        2.84779826906207
C            3.27684891536294        5.67268606720513        3.56979001860993
C            2.65030741956200        5.81304328787602        4.79702659162163
C            1.89515815987744        4.76707116676630        5.30136311386604
C            1.76433531517751        3.59019852607452        4.58984379047831
C            1.03066659215662        1.57480685750864        2.60471289125323
C           -0.17370043559709        2.27628661489343        2.67155465926071
C           -1.37357632227645        1.59498643450843        2.70947104457323
C           -1.39718642244484        0.21081347118716        2.67158984572970
C           -0.20596882097662       -0.48933874735091        2.57667787101834
C            1.00067645684320        0.18218390536900        2.54443188915170
C            4.63797321761479        1.90894737837004        2.39285792239069
C            5.72570977079283        1.50838428316620        1.64716155914652
C            5.34392342857842       -2.05521933186461        0.46733641332747
C            4.42510676078588       -3.07596004958890        0.59569569335564
C            1.75992881777468       -4.66755886495610       -1.16283081066532
C            0.68389985350695       -5.49622291253706       -0.94179827678622
C           -1.53855011120896       -6.37420663027106        0.57588409087588
C           -2.81866970393515       -6.64667835297082        0.06619540730431
C           -3.81493024694578       -5.71143283318956        0.15430910481069
C           -3.60465110606847       -4.43878707798795        0.74968476394177
C           -4.55281145394290       -3.38329168025224        0.67006224887914
C           -5.92586342248938       -3.57348939012664        0.32648548939577
C           -6.77120200492548       -2.52722170102877        0.14532899599938
C           -6.31686592354860       -1.17522672551675        0.23534269195854
C           -7.18585416388482       -0.13541029695468       -0.12498652817017
N           -8.51740696131269       -0.26746934305547       -0.18395235236246
C           -9.00544813139029        0.93845184860149       -0.46958278864889
C          -10.37532135210489        1.31770946950995       -0.57544620566870
C          -11.39301732746762        0.38897449886360       -0.34330507603949
C          -12.71241772996989        0.77052877959815       -0.41227406782723
C          -13.02243582753536        2.09396120301222       -0.70949019668219
C          -12.02621131205505        3.01635227209901       -0.94576154396979
C          -10.67054853103679        2.66284195593400       -0.89616198826740
C           -9.59771439884425        3.60304105808369       -1.17259946588877
C           -9.86002993473231        4.91540602364013       -1.57714528324899
C           -8.85408206994505        5.80713311546040       -1.87742706364005
C           -7.52154098097046        5.40672938052623       -1.79965476575088
C           -7.21683007765437        4.13153637951235       -1.40127417600417
C           -8.22688354143541        3.20847777124959       -1.06383974173498
C           -7.96364832407166        1.88438389044690       -0.65209072665136
N           -6.80384895695672        1.18830211469122       -0.42580730618854
C           -5.47056988578649        1.58543438037483       -0.60756540309130
C           -4.69048431963124        0.93594127312626       -1.56403725389030
C           -3.35180446507750        1.23377535881848       -1.68982161511344
C           -2.75342237913982        2.18435289125954       -0.85966926981396
N           -1.38864454559886        2.45603279642551       -0.96686690639425
C           -0.91604963458174        3.75967906854676       -0.77328433897778
C           -1.67039960884542        4.85390205643224       -1.19753272508023
C           -1.21453104877473        6.14014535755001       -0.98484829131515
C           -0.00072898881630        6.35945959194344       -0.35437721329017
C            0.75986581847879        5.27679275913738        0.05504731139637
C            0.31140828016359        3.98702317400421       -0.15178110924413
C           -0.49319978270938        1.41975205937384       -1.26264836154728
C           -0.67857044896261        0.14579924333399       -0.72516773653146
C            0.21916392344289       -0.86678872923025       -1.00361203758467
C            1.30825697200716       -0.63182931666378       -1.82771313151084
C            1.48542758295398        0.62619781938425       -2.38165126029223
C            0.59706161017304        1.64715248186352       -2.10260589930384
C           -3.54586006736649        2.85294486809023        0.07790771382876
C           -4.88661032032882        2.55840662442189        0.20358445878721
C           -4.98341958688767       -0.98270699641360        0.70013613713729
C           -4.15510149042711       -2.03513527081617        0.90680444358858
C           -2.34118264096621       -4.24537837971294        1.37167757729845
C           -1.34491857137690       -5.16861448759787        1.27412186559924
C           -1.43848609438738       -9.21636996801728        1.20631933230637
C           -1.46273926034695      -10.59402964972498        1.27987125637345
H           -0.54049922690064      -12.42963391186498        0.66895996830908
H            1.19742776884986      -11.30089744196532       -0.67471084908140
H            1.23994260809463       -8.84885564542876       -0.83534058972288
H            1.98266326155639       -7.43857469008711        1.50915880143713
H            3.88327869570832       -5.90721023174229        1.15355432124712
H            4.17868869589964       -4.00736170448043       -2.64234482537719
H            5.87821524278123       -2.22453748215450       -2.86236026096931
H           10.22619566958454       -1.05957873055976       -2.90272921039391
H           12.47824366072967       -0.38916975160741       -3.73081490548866
H           13.28851212579909        1.90139969845612       -3.29427713108799
H           11.91898585871914        3.49853645153389       -2.10589059631790
H           10.69084466709204        4.80213966353074       -1.32474046111926
H            9.20373026872921        6.40323093004192       -0.28085752197768
H            6.95141189840343        5.70968841820798        0.47399988657576
H            6.24961211812844        3.38195109600957        0.22711437484036
H            4.10658495183559        0.41954971617681       -1.11602168137056
H            2.17142787512920        1.09513336042549        0.22228155403371
H            3.63340095832350        4.39720979535022        1.88921110678689
H            3.86648982549198        6.48348321408252        3.16769777946280
H            2.75161666981695        6.72995456909656        5.35711855163815
H            1.41016262111055        4.86434131138556        6.26137980641326
H            1.18274498212941        2.77291746381933        4.99027206188473
H           -0.16092051615635        3.35605650913862        2.69775921845366
H           -2.29942051379362        2.14738886338752        2.76961503981644
H           -2.34048169589704       -0.31160516192917        2.72176777134218
H           -0.21027359083417       -1.56909545613792        2.54032831238903
H            1.92770945186821       -0.36918706201873        2.48546890960831
H            4.78433144012430        2.32127236583579        3.37997191831971
H            6.72464422127494        1.60154083635329        2.04751206104477
H            5.67345706436974       -1.51555962318325        1.34339985915703
H            4.02551979592672       -3.32206761531788        1.56906198370205
H            1.69745446114872       -3.89854499021432       -1.91830443748528
H           -0.22496087102311       -5.37841109048776       -1.51360753777316
H           -2.99356332957379       -7.58164691405814       -0.44679301899060
H           -4.76756408794677       -5.92813964663037       -0.30281626808148
H           -6.30704970539968       -4.57879284028721        0.22894472221543
H           -7.80647597767642       -2.68261679238931       -0.11459460330022
H          -11.10573921199614       -0.62316503420710       -0.10460673538284
H          -13.50163436288438        0.05578774126903       -0.23271142940491
H          -14.05632051952784        2.40487467926817       -0.75628068309729
H          -12.31761260676275        4.03059315164927       -1.16831354398387
H          -10.87947949653567        5.25354777801709       -1.67136891751643
H           -9.09903992362741        6.81275774642015       -2.18526481676694
H           -6.73213979690499        6.09794377576269       -2.05618127328555
H           -6.18546941482058        3.82057876791028       -1.36173355589028
H           -5.14523804780880        0.19210146948893       -2.20062294546258
H           -2.75533356909301        0.72777441322332       -2.43380472923437
H           -2.61300355827084        4.68778848687832       -1.69836454368849
H           -1.80913378584943        6.97713860945231       -1.32001676749529
H            0.35125337806328        7.36577513489052       -0.18656017866329
H            1.70512969621616        5.43748945763859        0.55166612770262
H            0.90627005015757        3.14763021311845        0.17239648028995
H           -1.52525826071573       -0.03928186066451       -0.08223432643695
H            0.07046465280576       -1.84459029768876       -0.56912255692728
H            2.01756834976575       -1.41974287419088       -2.03304428624437
H            2.31973530612354        0.81625604842544       -3.04103647359364
H            0.74000901631764        2.62653743005116       -2.53511960685906
H           -3.09534078390886        3.59386130363397        0.72113940292302
H           -5.48651254314017        3.05848166477146        0.95020587275632
H           -4.63428095374266        0.01047275831018        0.93216815438138
H           -3.14608015721678       -1.83263628227102        1.22752285730706
H           -2.16323588368575       -3.35997207643863        1.95996952680102
H           -0.38919009807258       -4.98934793889558        1.74647854383589
H           -2.16033184804751       -8.62707309370396        1.75180037507636
H           -2.22031409188654      -11.08071633661651        1.87622366765696

 projected vibrational frequencies (cm⁻¹)
eigval :       -0.00    -0.00    -0.00     0.00     0.00     0.00
eigval :        5.50     8.74    11.03    13.45    14.22    17.04
eigval :       17.47    18.43    19.15    23.52    24.35    30.01
eigval :       36.40    38.90    40.94    45.51    48.46    51.23
eigval :       52.90    55.78    57.06    60.07    62.43    63.81
eigval :       67.31    70.04    72.11    74.44    76.61    79.37
eigval :       83.67    86.43    87.39    90.64    93.79    97.57
eigval :      100.31   102.82   114.21   120.31   122.86   129.99
eigval :      135.35   141.80   147.51   156.64   160.10   165.42
eigval :      168.21   171.08   185.30   187.33   203.19   214.22
eigval :      217.26   220.63   223.19   231.95   235.24   238.64
eigval :      241.71   247.25   252.25   260.82   262.71   283.43
eigval :      289.65   294.38   303.43   305.58   307.42   308.56
eigval :      311.39   321.76   331.66   348.05   353.57   354.30
eigval :      356.75   363.87   368.90   371.21   375.86   376.69
eigval :      379.01   380.56   382.59   383.63   384.18   387.86
eigval :      388.61   392.18   392.99   394.19   395.96   396.96
eigval :      399.93   406.48   411.42   416.12   422.44   427.88
eigval :      432.77   436.08   440.79   445.79   451.09   453.23
eigval :      454.48   471.33   474.34   485.29   489.02   491.62
eigval :      495.44   497.15   499.31   503.14   510.12   517.03
eigval :      522.40   526.40   528.81   530.23   535.67   537.24
eigval :      549.92   580.65   581.53   583.36   584.30   585.56
eigval :      585.64   587.01   587.74   591.62   592.08   592.75
eigval :      600.71   602.67   607.48   610.91   613.47   619.22
eigval :      621.96   627.26   630.44   642.36   643.38   650.28
eigval :      654.00   654.96   660.71   660.96   661.46   663.39
eigval :      663.97   668.69   671.35   672.31   674.03   675.18
eigval :      677.34   682.10   684.44   687.07   692.32   703.65
eigval :      708.88   716.96   729.31   731.11   735.39   739.98
eigval :      747.07   754.88   756.67   758.70   759.10   761.59
eigval :      762.69   763.83   766.29   776.75   782.45   788.75
eigval :      791.61   798.47   799.82   806.13   810.03   819.57
eigval :      822.58   824.96   828.33   854.53   862.24   865.51
eigval :      867.63   868.95   870.16   870.44   873.17   873.26
eigval :      875.27   875.93   877.35   878.64   886.07   891.39
eigval :      892.95   895.67   896.74   899.02   900.52   901.64
eigval :      905.37   906.69   907.44   909.84   910.08   910.66
eigval :      910.93   912.47   913.14   913.16   914.06   914.30
eigval :      915.30   917.14   917.59   919.21   922.69   923.52
eigval :      923.92   925.73   925.92   926.54   926.96   927.30
eigval :      928.16   928.38   928.60   929.05   929.25   930.52
eigval :      930.78   931.83   933.91   936.14   940.30   944.85
eigval :      955.40   963.06   979.28   985.48   987.05   999.17
eigval :     1003.19  1004.32  1004.75  1005.28  1014.21  1016.83
eigval :     1018.14  1027.75  1034.05  1059.71  1070.92  1080.02
eigval :     1081.92  1083.04  1083.15  1084.28  1085.22  1086.15
eigval :     1086.27  1095.51  1105.08  1108.85  1121.91  1123.44
eigval :     1123.90  1124.68  1127.06  1132.46  1133.10  1134.50
eigval :     1134.59  1136.68  1137.20  1138.50  1151.70  1152.97
eigval :     1159.79  1169.83  1174.54  1179.82  1180.21  1180.81
eigval :     1181.34  1181.62  1182.40  1182.87  1183.14  1184.01
eigval :     1185.30  1186.02  1188.55  1189.59  1191.17  1192.10
eigval :     1195.30  1195.87  1197.43  1203.07  1206.66  1208.21
eigval :     1216.22  1217.50  1221.60  1243.90  1251.40  1253.53
eigval :     1254.10  1258.09  1260.41  1264.45  1264.92  1265.03
eigval :     1267.93  1272.42  1275.69  1277.85  1278.93  1280.63
eigval :     1281.21  1283.20  1284.19  1284.94  1285.70  1297.69
eigval :     1304.81  1308.95  1309.21  1311.59  1314.98  1316.77
eigval :     1317.43  1318.83  1320.20  1323.11  1324.37  1326.37
eigval :     1327.15  1328.53  1328.66  1331.54  1332.92  1335.10
eigval :     1338.51  1340.03  1340.49  1346.53  1349.54  1366.90
eigval :     1383.65  1391.58  1396.05  1396.57  1408.10  1408.79
eigval :     1411.08  1412.82  1415.59  1417.34  1421.63  1428.47
eigval :     1432.17  1433.96  1435.95  1436.64  1437.57  1439.27
eigval :     1440.77  1444.32  1445.17  1454.33  1458.48  1461.43
eigval :     1467.51  1471.03  1471.44  1472.91  1474.30  1476.69
eigval :     1477.96  1484.01  1490.48  1493.49  1503.02  1513.68
eigval :     1518.13  1520.00  1540.91  1541.56  1543.02  1545.76
eigval :     1550.17  1557.76  1558.05  1565.08  1565.48  1568.64
eigval :     1570.80  1572.55  1575.02  1576.80  1578.24  1580.00
eigval :     1582.25  1582.71  1586.98  1588.19  1592.06  1594.42
eigval :     1595.39  1595.65  1595.86  1597.63  1598.55  1601.43
eigval :     1605.15  3069.54  3071.58  3072.20  3072.47  3073.48
eigval :     3073.65  3074.04  3074.05  3074.88  3075.03  3076.75
eigval :     3077.30  3077.63  3077.78  3078.50  3078.85  3079.87
eigval :     3080.00  3081.26  3081.87  3081.90  3082.88  3083.63
eigval :     3084.48  3084.63  3084.82  3084.88  3085.38  3085.91
eigval :     3086.32  3086.81  3088.26  3088.34  3088.87  3089.34
eigval :     3089.59  3090.78  3092.26  3092.48  3092.82  3094.80
eigval :     3095.26  3095.90  3096.14  3096.59  3098.33  3098.55
eigval :     3098.81  3099.21  3099.61  3099.85  3100.59  3102.03
eigval :     3102.58  3104.70  3105.36  3106.13  3106.22  3108.85
eigval :     3109.73  3110.65  3113.75  3114.11  3114.62  3117.97

   temp. (K)  partition function   enthalpy   heat capacity  entropy
                                   cal/mol     cal/K/mol   cal/K/mol   J/K/mol
 298.15  VIB  0.444E+41            49978.047    311.189    315.651
         ROT  0.749E+09              888.752      2.981     43.589
         INT  0.332E+50            50866.799    314.170    359.240
         TR   0.462E+29             1481.254      4.968     47.380
         TOT                       52348.0530   319.1382   406.6196  1701.2965

       T/K    H(0)-H(T)+PV         H(T)/Eh          T*S/Eh         G(T)/Eh
   ------------------------------------------------------------------------
    298.15    0.834219E-01    0.137905E+01    0.193198E+00    0.118585E+01
   ------------------------------------------------------------------------

         :::::::::::::::::::::::::::::::::::::::::::::::::::::
         ::                  THERMODYNAMIC                  ::
         :::::::::::::::::::::::::::::::::::::::::::::::::::::
         :: total free energy        -258.063025683143 Eh   ::
         ::.................................................::
         :: total energy             -259.248879234893 Eh   ::
         :: zero point energy           1.295629724717 Eh   ::
         :: G(RRHO) w/o ZPVE           -0.109776172968 Eh   ::
         :: G(RRHO) contrib.            1.185853551750 Eh   ::
         :::::::::::::::::::::::::::::::::::::::::::::::::::::

           -------------------------------------------------
          | TOTAL ENERGY             -259.248879234893 Eh   |
          | TOTAL ENTHALPY           -257.869827577615 Eh   |
          | TOTAL FREE ENERGY        -258.063025683143 Eh   |
          | GRADIENT NORM               0.000103714184 Eh/α |
           -------------------------------------------------

 * finished run on 2025/09/07 at 08:18:55.081
