   * xtb version 6.7.1 (edcfbbe) compiled by 'albert@albert-system' on 2024-07-22

   ID    Z sym.   atoms
    1    6 C      1-4, 6-14, 16-29, 31-34, 36-62, 64-77, 79-82, 84-103
    2    7 N      5, 15, 30, 35, 63, 78, 83
    3    1 H      104-168

          program call               : xtb data2507/gas/TPA–2PPITPA/TPA–2PPITPA_gas_S0_finalOpt.xtbopt.xyz --gfn 2 --spinpol --tblite --uhf 2 --ohess vtight --parallel 40 --molden --ceasefiles --namespace data2507/gas/TPA–2PPITPA/TPA–2PPITPA_gas_T1_preOpt
 * total energy  :  -259.2347236 Eh     change       -0.1311709E-06 Eh
 * total energy  :  -259.2385958 Eh     change       -0.3872177E-02 Eh
 * total energy  :  -259.2414563 Eh     change       -0.2860469E-02 Eh
 * total energy  :  -259.2419647 Eh     change       -0.5083992E-03 Eh
 * total energy  :  -259.2426323 Eh     change       -0.6676676E-03 Eh
 * total energy  :  -259.2429674 Eh     change       -0.3350323E-03 Eh
 * total energy  :  -259.2433065 Eh     change       -0.3391263E-03 Eh
 * total energy  :  -259.2435384 Eh     change       -0.2319589E-03 Eh
 * total energy  :  -259.2437045 Eh     change       -0.1660361E-03 Eh
 * total energy  :  -259.2438269 Eh     change       -0.1223964E-03 Eh
 * total energy  :  -259.2450545 Eh     change       -0.1150251E-05 Eh
 * total energy  :  -259.2450561 Eh     change       -0.1602567E-05 Eh
 * total energy  :  -259.2450573 Eh     change       -0.1166581E-05 Eh
 * total energy  :  -259.2450584 Eh     change       -0.1156947E-05 Eh
 * total energy  :  -259.2450597 Eh     change       -0.1267828E-05 Eh
 * total energy  :  -259.2450598 Eh     change       -0.1177664E-06 Eh
 * total energy  :  -259.2450597 Eh     change        0.1425893E-06 Eh
 * total energy  :  -259.2450602 Eh     change       -0.5066400E-06 Eh
 * total energy  :  -259.2450602 Eh     change       -0.5029597E-07 Eh
   *** GEOMETRY OPTIMIZATION CONVERGED AFTER 155 ITERATIONS ***

 final structure:
================
168
 xtb: 6.7.1 (edcfbbe)
C           -0.19845832415317      -10.55564238679695       -0.20963249760742
C            0.77540508326100       -9.79789016586296       -0.84130786737233
C            0.76900528814563       -8.42185795165685       -0.73786952599113
C           -0.21818140424563       -7.77778532783737        0.01315588722474
N           -0.22895416153682       -6.39387744957920        0.11963447868558
C            0.95484630989239       -5.64714445335735        0.01163772594227
C            2.10582940348921       -5.99575824077225        0.71861455465648
C            3.22711689659157       -5.19343042648190        0.65109205962920
C            3.24395165834913       -4.05306360197521       -0.14901683187440
C            4.42265803880446       -3.17151042808400       -0.20171908111919
C            5.06766111975923       -2.91156168137756       -1.40720102875623
C            6.14443320016568       -2.04797622482641       -1.45730345221843
C            6.56758182338901       -1.38896165759384       -0.30748410876498
C            7.63435494434132       -0.38994096153328       -0.37194563911962
N            8.86614969850729       -0.59528442945974       -0.74767746741575
C            9.50085301310199        0.60288191320096       -0.60247604967390
C           10.87233132275782        0.89805255669202       -0.83540326966063
C           11.76424708333990       -0.09092328457954       -1.26390831400905
C           13.09140881006753        0.20519801228748       -1.44795294940689
C           13.54464187860591        1.49967449785942       -1.20058741218920
C           12.67571729568147        2.48124487285582       -0.78520338222569
C           11.30995422284973        2.22108495887871       -0.59402594805647
C           10.36270687640628        3.24417971247634       -0.18681209399707
C           10.74868644578506        4.58115662253202       -0.01363086557889
C            9.84854107372743        5.56126962440524        0.33117701696406
C            8.50386672554392        5.24740473596111        0.50280778893605
C            8.08521838872216        3.94895584562299        0.35021263436552
C            8.99290744850506        2.93022040718304        0.02758971121981
C            8.61191976903180        1.56950356698632       -0.13645135845813
N            7.41217364706895        0.91427296367460        0.01682905454025
C            6.15701207876577        1.35662979286514        0.47127560062311
C            5.04550980864501        1.16888418727922       -0.34479935453504
C            3.78260689940162        1.44188895448132        0.13112649076333
C            3.60300751606832        1.91512677671583        1.43206966472258
N            2.31480760756284        2.10169416176317        1.94089100798610
C            2.04204964824475        3.21667946351000        2.74137024839468
C            2.62603884976244        4.44665183960351        2.44024222162314
C            2.36566241707457        5.55223227649811        3.22579970004131
C            1.51684972014586        5.45306881258724        4.31588061021506
C            0.93495429186125        4.23318055722953        4.61963559335273
C            1.19609242142918        3.11961836116336        3.84501061377389
C            1.33804910337425        1.13541536271656        1.67749557721180
C           -0.00898136885605        1.48324169757918        1.57839360004220
C           -0.95427267083018        0.51973532073697        1.28234693918510
C           -0.57472201708320       -0.79461496721530        1.06837992412525
C            0.75842608638459       -1.14854364201814        1.18248121046890
C            1.70865620082976       -0.19785918923856        1.49408733564719
C            4.72636627083058        2.16019031479545        2.22356452907038
C            5.99089587368100        1.87152258678009        1.75339301661201
C            5.93403849039733       -1.65856350519697        0.90320199672310
C            4.88711417959054       -2.55619934751496        0.95728015853659
C            2.10363358392361       -3.73015778255857       -0.88253981613706
C            0.96737120142470       -4.50434074578288       -0.78887695474337
C           -1.40040937215728       -5.67461270313521        0.34544427440440
C           -2.61092397748409       -5.97617807942517       -0.30327249640174
C           -3.71039943321412       -5.17870691349665       -0.13631211577370
C           -3.68154978083875       -4.02236368010196        0.68892147342398
C           -4.74901079865955       -3.08478999661625        0.73038475276852
C           -6.08825882265041       -3.39313545994920        0.34091396859536
C           -7.05783818775030       -2.44352064126371        0.27743110337807
C           -6.75753358537912       -1.06802638726763        0.50691997254122
C           -7.71028247524434       -0.06641170300554        0.25708824424625
N           -9.03611843151813       -0.21825862251706        0.31598290536149
C           -9.56042761301618        0.99245144260147        0.11286891714415
C          -10.93600595632109        1.36346783397328        0.14024076803389
C          -11.92434555076322        0.41872863115147        0.42897486886210
C          -13.24838925546718        0.78777255655208        0.47553756783642
C          -13.59300997144630        2.11421123186484        0.23570840359007
C          -12.62662000576497        3.05325081637942       -0.05370834257215
C          -11.26773981792886        2.71476800534741       -0.11714831828761
C          -10.22942769064659        3.67949904695267       -0.43669462236654
C          -10.52674234610271        5.00965814713124       -0.74791366217354
C           -9.54781071376907        5.92541312373215       -1.06616479835475
C           -8.20867057560731        5.53816960590896       -1.09526029369405
C           -7.86951067217362        4.24536960609326       -0.79458858907696
C           -8.85224418950801        3.29450137959308       -0.45417435996694
C           -8.54895628757295        1.95510479341370       -0.14083182569973
N           -7.36485739820234        1.27279263894106       -0.03481866492761
C           -6.08845310968409        1.56579887460115       -0.55577661132745
C           -5.68795915793498        0.89452543147759       -1.70863835941641
C           -4.38900575624528        0.98337358121695       -2.15225629661447
C           -3.44195648178066        1.71694049231408       -1.43366833535977
N           -2.09662040873663        1.65291658588723       -1.80424066093071
C           -1.25737748950732        2.75988180494718       -1.64105766624709
C           -1.75409500298391        4.05045082662007       -1.82606330345985
C           -0.93666979860455        5.14753612446199       -1.63590021666192
C            0.38891386003409        4.98083334959485       -1.27075755621646
C            0.89396142478890        3.70166808021421       -1.10772739475783
C            0.08317737699917        2.59858917881762       -1.28972347005445
C           -1.58506270634732        0.42842974906436       -2.26054116048844
C           -2.07526011629151       -0.77782478204201       -1.75829842593511
C           -1.57594222832887       -1.98101617741324       -2.21542406179386
C           -0.57354417636898       -2.00654768339799       -3.17130463686001
C           -0.08273216501834       -0.81296841384785       -3.67422812837001
C           -0.58559053043752        0.39563795731963       -3.23204268419854
C           -3.86683241448177        2.45505398256239       -0.32621510011478
C           -5.17686128973599        2.38594330360715        0.10493384315108
C           -5.45551094787300       -0.77314287919120        1.00518907533086
C           -4.51482609469556       -1.73840978546234        1.14092420334034
C           -2.47982722304749       -3.80719778075357        1.41845171995290
C           -1.37606364546829       -4.58738728323727        1.23558533600156
C           -1.19335770653171       -8.54710769962110        0.65372730298141
C           -1.18027642911091       -9.92196499300497        0.53611205494546
H           -0.19129566970388      -11.63121802377493       -0.29660287599220
H            1.54208576043710      -10.28314998153166       -1.42703537234953
H            1.51965508817606       -7.83356791504031       -1.24491046422036
H            2.10241355171216       -6.88238286455301        1.33576106627073
H            4.10825849304681       -5.45338137907192        1.21937028480316
H            4.72366157922268       -3.40026312821318       -2.30739754184689
H            6.65313560393857       -1.85796075957408       -2.39046300452003
H           11.37330751331453       -1.08207881701397       -1.43397553420480
H           13.78396054901882       -0.55572639504450       -1.77640962986870
H           14.59038425815466        1.73562615232406       -1.33628165792409
H           13.07273430213228        3.46741311769929       -0.60323887425311
H           11.77805007504307        4.86561116337534       -0.16072389119333
H           10.18393118447166        6.58035666714113        0.45636782027883
H            7.79254276033429        6.02144020744694        0.75083238362479
H            7.03937407952417        3.70931435130916        0.46409677252846
H            5.17842475384361        0.79688835494463       -1.34929583682650
H            2.92206027982328        1.26892945925097       -0.49681495717964
H            3.28197250098065        4.52807855685741        1.58566588570529
H            2.82254680947321        6.49962220962293        2.98048550393899
H            1.31161506649036        6.31973116508455        4.92545272344221
H            0.27874596826155        4.14506552196179        5.47297274942134
H            0.75181831044648        2.16671762331648        4.09225931090938
H           -0.30458864216530        2.51276836574648        1.71625258390444
H           -1.99390226495302        0.80279358885969        1.20176146985405
H           -1.30265065054412       -1.54479564847146        0.80884549922840
H            1.06064283228947       -2.17368866204101        1.02896222192911
H            2.74574602385385       -0.48498908765259        1.58889473192322
H            4.59691057531815        2.54378295728444        3.22458607418612
H            6.85391750173508        2.02039471707388        2.38575579911932
H            6.26899501895119       -1.16635651439935        1.80507176393393
H            4.40117878824513       -2.76506699268098        1.89990154062842
H            2.10199020161036       -2.84878307998991       -1.50756574808323
H            0.07693943001175       -4.23167922012689       -1.33382099701234
H           -2.64934164630202       -6.82277700827269       -0.97412905637838
H           -4.60476509755041       -5.40170364228502       -0.69701250681281
H           -6.34232860124211       -4.42008849500018        0.12392440960363
H           -8.06942295302060       -2.69384876371483       -0.00227709417474
H          -11.61035820708938       -0.59631617826902        0.61641569636135
H          -14.01429557331431        0.06032212490847        0.69948126883947
H          -14.63026603589415        2.41453841994751        0.27666516755839
H          -12.94360841315166        4.06901846934781       -0.22942239390657
H          -11.55159032784057        5.34488866741589       -0.74830276415288
H           -9.81933048883740        6.94414369227367       -1.29983735041240
H           -7.44348800799380        6.25465936533749       -1.35572912096624
H           -6.83565830982771        3.94058710823041       -0.82933108198934
H           -6.40419724517240        0.28656545153873       -2.24110274429341
H           -4.08675192590919        0.45372116115746       -3.04288425298587
H           -2.78361499488664        4.18631518399602       -2.12368261169884
H           -1.33712238006283        6.13998809819357       -1.78132190252181
H            1.02426199745369        5.83997812605087       -1.11959901350567
H            1.92795831508622        3.56244998739159       -0.82868912957725
H            0.47610093523603        1.60266221477097       -1.15098701320056
H           -2.85794231158125       -0.77272041078805       -1.01475402671433
H           -1.97841584006559       -2.90118571608436       -1.81568806387250
H           -0.18327658213411       -2.94649377382665       -3.53201768384512
H            0.69031872895903       -0.82167825331276       -4.42880679095974
H           -0.21175643392924        1.32172975976648       -3.64376180617190
H           -3.15416277334240        3.05236045406590        0.22316505495216
H           -5.48348489683771        2.92386075031890        0.99093119907080
H           -5.23345789727831        0.22901338662787        1.33544718427828
H           -3.55141626975179       -1.46167805990486        1.53929072488588
H           -2.44701144042517       -3.03656066708452        2.17191327791483
H           -0.47396373445710       -4.39419645139489        1.79883349816496
H           -1.94638641979190       -8.05720648326867        1.25289912201254
H           -1.93748515501979      -10.50526464210802        1.03876599929143

 projected vibrational frequencies (cm⁻¹)
eigval :       -0.00    -0.00    -0.00     0.00     0.00     0.00
eigval :        4.70     9.44    10.24    13.07    16.29    17.00
eigval :       17.68    21.33    22.27    26.11    29.91    30.54
eigval :       33.77    36.19    39.28    43.26    46.04    47.71
eigval :       52.41    55.58    60.38    61.93    62.22    63.88
eigval :       70.29    72.49    73.44    76.80    79.02    82.58
eigval :       83.17    85.71    89.37    91.84    94.07   101.55
eigval :      105.50   108.42   115.50   123.12   125.85   130.98
eigval :      138.35   140.62   147.17   152.44   157.42   161.90
eigval :      170.66   174.95   186.95   193.55   207.65   211.90
eigval :      216.73   221.51   223.02   230.61   237.46   240.50
eigval :      246.54   249.83   258.37   259.10   261.96   282.92
eigval :      287.68   296.00   304.61   306.27   308.40   310.01
eigval :      312.89   322.52   331.41   342.35   348.00   353.74
eigval :      356.89   367.27   370.41   373.74   375.03   378.50
eigval :      380.05   380.72   384.12   385.29   387.15   389.44
eigval :      390.92   392.80   393.56   394.92   397.43   398.11
eigval :      401.21   405.92   411.13   417.28   421.27   426.30
eigval :      431.51   437.13   438.77   446.08   451.09   452.63
eigval :      455.69   469.34   474.37   484.17   490.88   494.12
eigval :      495.51   498.58   500.24   501.80   513.33   517.46
eigval :      522.74   526.58   529.02   534.13   535.79   539.63
eigval :      546.78   580.91   581.14   583.24   584.58   585.65
eigval :      585.90   587.49   587.62   590.81   592.13   592.53
eigval :      599.67   605.27   606.72   611.58   613.80   617.64
eigval :      623.22   629.14   631.11   641.91   642.22   650.44
eigval :      655.51   656.13   660.25   660.82   662.51   664.07
eigval :      665.51   668.63   671.16   671.79   675.41   676.55
eigval :      677.64   682.35   687.30   690.00   696.49   702.45
eigval :      708.98   716.58   728.53   731.17   735.11   740.84
eigval :      747.88   755.55   757.68   758.43   759.57   762.38
eigval :      764.45   766.54   768.64   776.30   782.68   790.09
eigval :      795.68   798.79   804.55   808.47   811.82   821.56
eigval :      822.23   826.47   833.54   854.52   863.10   867.68
eigval :      867.86   869.80   870.50   870.74   873.35   873.80
eigval :      875.99   877.88   880.55   883.54   888.00   892.27
eigval :      894.59   896.69   898.64   900.19   902.56   905.98
eigval :      907.23   908.05   908.42   909.74   909.86   910.89
eigval :      911.18   913.14   913.24   913.87   914.83   915.02
eigval :      917.04   918.28   918.53   919.27   923.11   923.53
eigval :      925.33   926.14   926.63   926.71   927.23   928.04
eigval :      928.14   928.15   928.75   929.67   929.72   933.66
eigval :      934.32   936.10   940.73   941.41   944.03   944.61
eigval :      954.66   963.23   978.94   985.67   986.61   998.38
eigval :     1002.64  1003.24  1004.64  1006.05  1014.05  1017.33
eigval :     1018.83  1025.54  1033.49  1056.79  1070.81  1081.18
eigval :     1081.91  1082.48  1083.89  1085.80  1086.21  1088.11
eigval :     1088.64  1092.58  1103.18  1107.60  1122.69  1124.11
eigval :     1124.41  1128.69  1130.54  1131.30  1133.38  1133.59
eigval :     1134.42  1135.16  1136.07  1139.18  1147.29  1152.68
eigval :     1158.45  1164.64  1174.50  1179.46  1180.16  1180.89
eigval :     1181.29  1181.90  1182.49  1182.70  1183.90  1184.62
eigval :     1185.18  1185.36  1187.40  1191.03  1191.19  1193.00
eigval :     1194.18  1198.23  1200.55  1200.85  1205.03  1206.28
eigval :     1216.92  1217.69  1219.67  1240.90  1246.85  1252.95
eigval :     1253.03  1257.08  1258.66  1263.63  1263.67  1264.78
eigval :     1267.28  1267.83  1274.09  1275.83  1278.71  1280.85
eigval :     1281.72  1282.37  1283.65  1284.50  1284.99  1295.52
eigval :     1302.47  1305.45  1308.26  1311.62  1312.78  1314.08
eigval :     1314.54  1320.10  1321.42  1324.86  1325.39  1325.62
eigval :     1326.38  1328.03  1328.50  1329.17  1330.64  1334.27
eigval :     1334.79  1340.68  1341.09  1344.22  1347.84  1363.51
eigval :     1383.80  1389.66  1393.63  1394.16  1406.64  1408.42
eigval :     1408.78  1411.06  1415.41  1416.26  1422.51  1428.23
eigval :     1429.28  1432.65  1436.46  1437.19  1438.18  1438.67
eigval :     1440.22  1445.26  1445.75  1451.64  1459.86  1461.40
eigval :     1465.38  1468.93  1472.36  1473.40  1476.48  1477.91
eigval :     1478.46  1485.18  1492.17  1494.74  1499.24  1515.92
eigval :     1518.49  1522.14  1540.45  1543.40  1543.67  1546.87
eigval :     1553.69  1557.80  1559.64  1566.07  1566.73  1567.88
eigval :     1574.05  1575.22  1576.70  1576.85  1578.57  1581.01
eigval :     1582.39  1582.70  1587.30  1588.78  1594.37  1594.80
eigval :     1595.29  1595.85  1596.26  1599.57  1601.03  1601.81
eigval :     1606.17  3069.67  3070.39  3071.19  3071.31  3071.93
eigval :     3073.06  3074.09  3074.72  3074.82  3075.05  3075.57
eigval :     3076.49  3077.36  3077.40  3077.77  3077.95  3078.08
eigval :     3079.08  3079.48  3080.28  3080.36  3081.01  3082.63
eigval :     3082.92  3084.16  3084.31  3084.75  3084.87  3085.73
eigval :     3085.81  3086.22  3087.34  3088.56  3088.94  3090.16
eigval :     3090.27  3090.68  3091.04  3091.41  3091.81  3092.15
eigval :     3092.65  3093.46  3093.95  3095.06  3095.52  3095.54
eigval :     3095.92  3097.27  3098.19  3098.99  3099.52  3100.03
eigval :     3100.48  3102.15  3102.83  3104.00  3104.60  3105.17
eigval :     3105.75  3107.98  3110.00  3110.07  3112.30  3123.29

   temp. (K)  partition function   enthalpy   heat capacity  entropy
                                   cal/mol     cal/K/mol   cal/K/mol   J/K/mol
 298.15  VIB  0.219E+41            49870.701    310.956    314.265
         ROT  0.753E+09              888.752      2.981     43.599
         INT  0.165E+50            50759.453    313.937    357.864
         TR   0.462E+29             1481.254      4.968     47.380
         TOT                       52240.7074   318.9047   405.2440  1695.5411

       T/K    H(0)-H(T)+PV         H(T)/Eh          T*S/Eh         G(T)/Eh
   ------------------------------------------------------------------------
    298.15    0.832509E-01    0.137908E+01    0.192545E+00    0.118654E+01
   ------------------------------------------------------------------------

         :::::::::::::::::::::::::::::::::::::::::::::::::::::
         ::                  THERMODYNAMIC                  ::
         :::::::::::::::::::::::::::::::::::::::::::::::::::::
         :: total free energy        -258.058521004120 Eh   ::
         ::.................................................::
         :: total energy             -259.245060203968 Eh   ::
         :: zero point energy           1.295832856415 Eh   ::
         :: G(RRHO) w/o ZPVE           -0.109293656566 Eh   ::
         :: G(RRHO) contrib.            1.186539199848 Eh   ::
         :::::::::::::::::::::::::::::::::::::::::::::::::::::

           -------------------------------------------------
          | TOTAL ENERGY             -259.245060203968 Eh   |
          | TOTAL ENTHALPY           -257.865976481142 Eh   |
          | TOTAL FREE ENERGY        -258.058521004120 Eh   |
          | GRADIENT NORM               0.000136360021 Eh/α |
           -------------------------------------------------

 * finished run on 2025/09/07 at 07:15:29.382
