   * xtb version 6.7.1 (edcfbbe) compiled by 'albert@albert-system' on 2024-07-22

   ID    Z sym.   atoms
    1    6 C      1-4, 6-14, 16-29, 31-34, 36-62, 64-77, 79-82, 84-103
    2    7 N      5, 15, 30, 35, 63, 78, 83
    3    1 H      104-168

          program call               : xtb data2507/gas/TPA–2PPITPA/TPA–2PPITPA_gas_S0_crest.xyz --gfn 2 --ohess vtight --parallel 40 --molden --ceasefiles --namespace data2507/gas/TPA–2PPITPA/TPA–2PPITPA_gas_S0_finalOpt
          :  Hamiltonian                  GFN2-xTB          :
 * total energy  :  -259.3287016 Eh     change       -0.5011771E-08 Eh
 * total energy  :  -259.3287026 Eh     change       -0.9399839E-06 Eh
 * total energy  :  -259.3287047 Eh     change       -0.2157674E-05 Eh
 * total energy  :  -259.3287084 Eh     change       -0.3666866E-05 Eh
 * total energy  :  -259.3287113 Eh     change       -0.2874594E-05 Eh
 * total energy  :  -259.3287130 Eh     change       -0.1694596E-05 Eh
 * total energy  :  -259.3287146 Eh     change       -0.1586426E-05 Eh
 * total energy  :  -259.3287164 Eh     change       -0.1861736E-05 Eh
 * total energy  :  -259.3287181 Eh     change       -0.1684434E-05 Eh
 * total energy  :  -259.3287196 Eh     change       -0.1489403E-05 Eh
 * total energy  :  -259.3287242 Eh     change       -0.8052396E-06 Eh
 * total energy  :  -259.3287250 Eh     change       -0.7777712E-06 Eh
 * total energy  :  -259.3287258 Eh     change       -0.7683121E-06 Eh
 * total energy  :  -259.3287264 Eh     change       -0.6034966E-06 Eh
 * total energy  :  -259.3287269 Eh     change       -0.5103544E-06 Eh
 * total energy  :  -259.3287273 Eh     change       -0.4488733E-06 Eh
 * total energy  :  -259.3287278 Eh     change       -0.4210565E-06 Eh
 * total energy  :  -259.3287282 Eh     change       -0.4163734E-06 Eh
 * total energy  :  -259.3287282 Eh     change       -0.8802488E-08 Eh
   *** GEOMETRY OPTIMIZATION CONVERGED AFTER 22 ITERATIONS ***

 final structure:
================
168
 xtb: 6.7.1 (edcfbbe)
C           -0.22915362039031      -10.52854396226243       -0.03738619663234
C            0.82307696881942       -9.79685206372376       -0.56282275031955
C            0.85069476051218       -8.42142659022877       -0.44448833389456
C           -0.17910148863451       -7.75160867709702        0.21807142492561
N           -0.15987822220959       -6.36853784945636        0.35079567589592
C            1.03032684619609       -5.62818541181346        0.28023015799594
C            2.16620458785412       -5.98797263706522        1.00286968307766
C            3.30345879223002       -5.20538147177750        0.94183623825022
C            3.34559183608689       -4.06997969171676        0.13870708035845
C            4.53616645724149       -3.20223176998429        0.07171440175871
C            5.21696603764217       -3.02630592346629       -1.12873657945759
C            6.27862843075933       -2.14700602065055       -1.21325641190778
C            6.65114724315514       -1.39271724350538       -0.10531980043523
C            7.67500157667931       -0.35595155011693       -0.23061594928517
N            8.91528261989051       -0.52609549931694       -0.59477523495929
C            9.48674704833632        0.71114143358109       -0.54839891523074
C           10.83853021987914        1.05854087841894       -0.82051512656361
C           11.77852423010315        0.08667982367183       -1.17993910438055
C           13.08512947459398        0.43748234162966       -1.40910388751631
C           13.46921238174459        1.77066199596243       -1.27700179442850
C           12.55259032904846        2.73512904848526       -0.92974844159124
C           11.20552945673778        2.41859868025955       -0.69556610188548
C           10.20790410900671        3.41945708555832       -0.35979317342939
C           10.52304680869199        4.78456562448255       -0.29900945609503
C            9.57445422933094        5.74057386170982       -0.02353643584311
C            8.24994142723196        5.37104772370526        0.18896851032644
C            7.90033316260617        4.04423630556000        0.14636941912377
C            8.85853329584526        3.05188265290083       -0.10456112647282
C            8.54929866257497        1.66427265763583       -0.15541452336717
N            7.38535652324606        0.96182567243393        0.05557224290015
C            6.10829355328969        1.37619965592223        0.47472599933797
C            5.00990333210486        1.07926488893615       -0.32652468512011
C            3.73378267941293        1.33586309421520        0.12308700044781
C            3.52670701863618        1.90323053450942        1.38156012456708
N            2.22900939387569        2.09414770856566        1.86353217473459
C            1.92129757522926        3.25604457064879        2.58101061207402
C            2.48038589593872        4.47627672900724        2.20316285935601
C            2.18561912311454        5.62576740307615        2.90957277573363
C            1.32660250525367        5.58033807913648        3.99522841910727
C            0.76821577373620        4.37057866655190        4.37418160376176
C            1.06366230304244        3.21395030676876        3.67905018966574
C            1.27150395417623        1.09618133983104        1.65407197779816
C           -0.07675341761886        1.41725561602637        1.49720033596113
C           -1.00400601366058        0.42157238926464        1.25568436801872
C           -0.60566165394802       -0.90130429353414        1.16008374398296
C            0.72805273395280       -1.22777130429639        1.33559305445571
C            1.66100263985179       -0.24243591321767        1.58645581828268
C            4.63462952045356        2.24784649593719        2.15780402451192
C            5.91269149881798        1.97591044924660        1.71516800286137
C            5.99330308898772       -1.59084008020700        1.10583737136228
C            4.95903017371056       -2.50084667549206        1.19611675567567
C            2.21603116133773       -3.72650944372002       -0.59850751127716
C            1.06756060237059       -4.48493529171487       -0.51670352700001
C           -1.34415468192124       -5.62885835519725        0.49739354374242
C           -2.43045110452790       -5.79784368451503       -0.35879914193227
C           -3.53551735635851       -4.97788694515888       -0.24883044936921
C           -3.60896553643858       -3.98583358071851        0.73125673726473
C           -4.72108044377809       -3.02902428899711        0.76442612610107
C           -6.00400298994416       -3.35387111996809        0.32105976148227
C           -6.99540013434561       -2.39555264925643        0.24109877884564
C           -6.73409201161098       -1.07649018570435        0.60249142382132
C           -7.72355422792849       -0.02667167456847        0.39842733732518
N           -8.98791181331056       -0.07294638863157        0.72379986855272
C           -9.50786920022398        1.13213732430109        0.36112763690873
C          -10.84320996332882        1.59594492976909        0.51994154611072
C          -11.82131944668359        0.79633597269239        1.12073406108402
C          -13.10133036752594        1.26561146626710        1.27681367804842
C          -13.41893188321425        2.54787069710455        0.83300201815507
C          -12.46624854847410        3.34185800212934        0.23879099232189
C          -11.14753355822271        2.89752120202084        0.05698282816609
C          -10.12559004050348        3.70919957174448       -0.58138264229418
C          -10.40079995679274        4.98946152240705       -1.08276383159432
C           -9.43920809703012        5.75108805207344       -1.70374821294023
C           -8.14712796538752        5.25867414409082       -1.86086847452857
C           -7.83428721587714        4.01104989248962       -1.38134207736301
C           -8.79789187467859        3.22572941153994       -0.73347442360502
C           -8.52239484495330        1.93038496495164       -0.21808689959520
N           -7.37494395481166        1.17765718454579       -0.17950575719340
C           -6.09023800851961        1.40717200232557       -0.71584912232784
C           -5.68551313516814        0.66027014753445       -1.81686216750441
C           -4.37844786605066        0.71243650534600       -2.24778365525380
C           -3.43503327609617        1.48667183051905       -1.56807783697647
N           -2.08898696075574        1.41128701071600       -1.92629182755326
C           -1.25283271200187        2.52779571179527       -1.80198029867391
C           -1.74573710947580        3.80721204098182       -2.05804441776538
C           -0.93097503123803        4.91250961918692       -1.90673455090059
C            0.38826327991247        4.76355225205804       -1.51236212143141
C            0.89021149976250        3.49391330234422       -1.28065955361479
C            0.08123691745426        2.38333212681555       -1.42173380023189
C           -1.56359682229676        0.17359619965973       -2.32952795544396
C           -2.03785160532873       -1.01476517223351       -1.77375427846946
C           -1.52454535864729       -2.23025426319044       -2.18041765479554
C           -0.52158750692468       -2.28443512748062       -3.13447781857837
C           -0.04411649323593       -1.10781716851467       -3.68750437590589
C           -0.56298565754336        0.11213184003315       -3.29809114709499
C           -3.86600209231944        2.29079652337289       -0.50937025697986
C           -5.18040769059720        2.25496756851478       -0.09097736649985
C           -5.48204418279975       -0.76587418819352        1.12940765710391
C           -4.49506250607421       -1.72256304660297        1.20151504872574
C           -2.54492166085365       -3.87795258359009        1.62987269820596
C           -1.42439088126352       -4.66936279040220        1.50502621374953
C           -1.23556778312768       -8.49420984720716        0.74847683079458
C           -1.25749907299742       -9.86815798699696        0.61468372569232
H           -0.24774292332689      -11.60317401862140       -0.13539273137562
H            1.62746651468848      -10.30081701311935       -1.07850665632253
H            1.66681275258375       -7.85663239531126       -0.87058888001415
H            2.14518835759854       -6.87430510677417        1.61995340238355
H            4.17530272656047       -5.47917913521333        1.51816036345500
H            4.90593887135223       -3.58526556970264       -1.99956593184994
H            6.81000396559917       -2.01357414202589       -2.14358319495612
H           11.44046109902583       -0.93463394380036       -1.26216557015162
H           13.81460192211576       -0.30960690207099       -1.68523141461023
H           14.49857306627464        2.05060226179862       -1.44939263779533
H           12.89681239477114        3.75306869498353       -0.83712367407847
H           11.53468439374492        5.11002122187025       -0.48005439902259
H            9.85581661121322        6.78270484805713        0.01531018961989
H            7.50013740199763        6.12400410147110        0.38274105091095
H            6.86985988928109        3.75979647814411        0.29247316884352
H            5.16363043723647        0.63725225940849       -1.29917320425849
H            2.88529617632785        1.08070322130279       -0.49317976195142
H            3.14482447752685        4.51560343935033        1.35227256091818
H            2.62405858115906        6.56488076788778        2.60582417549288
H            1.09538060324151        6.48084819948232        4.54330204890136
H            0.10406982391292        4.32476908864007        5.22468941942056
H            0.63771851272140        2.26963565471389        3.98478331457225
H           -0.38679961203378        2.45055993920417        1.54798139694777
H           -2.04361307159741        0.68660485175666        1.12576393100962
H           -1.31863058525261       -1.68108422527497        0.94668197198412
H            1.04368149922717       -2.25840139229686        1.27721104760806
H            2.69922892118941       -0.50642324114534        1.72522325404890
H            4.48397257812846        2.70011513363427        3.12665769024564
H            6.76488355609460        2.20676948066013        2.33752172668819
H            6.29447867627925       -1.02880319679222        1.97835787536380
H            4.44957395640378       -2.65074617335254        2.13757916122985
H            2.23317108394522       -2.84549146347143       -1.22420568956162
H            0.18865619452172       -4.19518953983054       -1.07126028854023
H           -2.38564743821396       -6.55329852020504       -1.12999672979100
H           -4.33873561315299       -5.08343235824926       -0.96285654959465
H           -6.22989197047246       -4.37058793218209        0.03557578380558
H           -7.97918372018795       -2.65244742923294       -0.12090682446153
H          -11.53168884285471       -0.18808940221711        1.45420831942700
H          -13.85916770611459        0.65174146039368        1.74091979551337
H          -14.42462769647659        2.92330742836041        0.95669119412236
H          -12.75821271966572        4.32745281678408       -0.08775279827639
H          -11.39285605666123        5.40098211663510       -0.98951856671984
H           -9.68946364574156        6.73338035860696       -2.07693569899242
H           -7.39582373266165        5.85374330636588       -2.35899066814348
H           -6.83624041950179        3.62116305239712       -1.51108730558051
H           -6.40054226828840        0.02631970008484       -2.31959441368341
H           -4.06922711255478        0.12480923140618       -3.09865983840638
H           -2.77006556540502        3.92873330464389       -2.37889628641352
H           -1.32852440561672        5.89672679903897       -2.10579425995749
H            1.02132219938571        5.62918001811428       -1.39193923143981
H            1.91978224335133        3.36779431276636       -0.98026655147558
H            0.47108780884994        1.39505289041103       -1.22961578085828
H           -2.81833995095695       -0.98588455069127       -1.02827040532621
H           -1.91603163903221       -3.13794147578782       -1.74323984266518
H           -0.11893769884559       -3.23445797666502       -3.45222709443462
H            0.73078379602031       -1.13943037914623       -4.43935082274701
H           -0.19966903515592        1.02495199007176       -3.74711998750630
H           -3.15601885503022        2.91730083745795        0.00965596975213
H           -5.49968315569096        2.85495479152877        0.74931227421449
H           -5.27839514821838        0.23146221412183        1.48799598457183
H           -3.52620487451794       -1.43785349190380        1.58144158613273
H           -2.60039062076437       -3.17718052488021        2.44926845303767
H           -0.59691999338501       -4.55321217767210        2.18979528124899
H           -2.03334535318644       -7.98634019643720        1.27051242019649
H           -2.08140848857893      -10.42872242312661        1.03161277778831

          :  Hamiltonian                  GFN2-xTB          :
         :: gradient norm              0.000070809810 Eh/a0 ::
         :: HOMO-LUMO gap              2.369525942646 eV    ::
         :: SCC energy              -264.218302868466 Eh    ::
         :: -> dispersion             -0.279378822797 Eh    ::
         :: repulsion energy           4.889574672919 Eh    ::

    * Orbital Energies and Occupations

         #    Occupation            Energy/Eh            Energy/eV
      -------------------------------------------------------------
         1        2.0000           -0.6858026             -18.6616
       ...           ...                  ...                  ...
       230        2.0000           -0.3993821             -10.8677
       231        2.0000           -0.3978794             -10.8268
       232        2.0000           -0.3955487             -10.7634
       233        2.0000           -0.3924403             -10.6788
       234        2.0000           -0.3792962             -10.3212
       235        2.0000           -0.3785848             -10.3018
       236        2.0000           -0.3756278             -10.2214
       237        2.0000           -0.3750505             -10.2056
       238        2.0000           -0.3631047              -9.8806
       239        2.0000           -0.3618680              -9.8469
       240        2.0000           -0.3588728              -9.7654
       241        2.0000           -0.3579945              -9.7415
       242        2.0000           -0.3519608              -9.5773 (HOMO)
       243                         -0.2648824              -7.2078 (LUMO)
       244                         -0.2570602              -6.9950
       245                         -0.2511585              -6.8344
       246                         -0.2497539              -6.7961
       247                         -0.2455324              -6.6813
       248                         -0.2448555              -6.6629
       249                         -0.2438680              -6.6360
       250                         -0.2428393              -6.6080
       251                         -0.2424775              -6.5981
       252                         -0.2409172              -6.5557
       253                         -0.2395446              -6.5183
       ...                                ...                  ...
       477                          0.7323633              19.9286
      -------------------------------------------------------------
                  HL-Gap            0.0870785 Eh            2.3695 eV

     #   Z          covCN         q      C6AA      α(0)
     1   6 C        2.919    -0.041    29.019     8.834
     2   6 C        2.920    -0.029    28.732     8.790
     3   6 C        2.922    -0.052    29.302     8.877
     4   6 C        2.919     0.065    26.544     8.449
     5   7 N        2.753    -0.081    22.808     7.093
     6   6 C        2.930     0.064    26.562     8.452
     7   6 C        2.919    -0.045    29.129     8.851
     8   6 C        2.923    -0.033    28.831     8.805
     9   6 C        2.978     0.004    27.930     8.669
    10   6 C        2.979     0.012    27.734     8.639
    11   6 C        2.924    -0.033    28.812     8.803
    12   6 C        2.923    -0.028    28.691     8.784
    13   6 C        2.975     0.003    27.962     8.674
    14   6 C        3.205     0.129    24.647     8.087
    15   7 N        1.890    -0.289    28.350     7.894
    16   6 C        3.218     0.055    26.088     8.307
    17   6 C        2.985     0.003    27.945     8.671
    18   6 C        2.922    -0.031    28.783     8.798
    19   6 C        2.917    -0.030    28.756     8.794
    20   6 C        2.917    -0.033    28.826     8.804
    21   6 C        2.922    -0.035    28.870     8.811
    22   6 C        2.979    -0.002    28.066     8.690
    23   6 C        2.980     0.002    27.982     8.677
    24   6 C        2.922    -0.034    28.840     8.807
    25   6 C        2.917    -0.034    28.841     8.807
    26   6 C        2.917    -0.032    28.801     8.800
    27   6 C        2.919    -0.040    28.998     8.831
    28   6 C        2.979    -0.002    28.062     8.689
    29   6 C        3.073     0.018    27.521     8.601
    30   7 N        2.844    -0.045    22.101     6.982
    31   6 C        2.914     0.057    26.715     8.476
    32   6 C        2.922    -0.040    29.004     8.832
    33   6 C        2.923    -0.045    29.128     8.851
    34   6 C        2.927     0.066    26.527     8.446
    35   7 N        2.753    -0.073    22.656     7.069
    36   6 C        2.923     0.064    26.562     8.452
    37   6 C        2.923    -0.047    29.162     8.856
    38   6 C        2.920    -0.029    28.714     8.787
    39   6 C        2.919    -0.037    28.932     8.821
    40   6 C        2.920    -0.029    28.719     8.788
    41   6 C        2.922    -0.047    29.174     8.858
    42   6 C        2.924     0.064    26.560     8.452
    43   6 C        2.922    -0.046    29.145     8.853
    44   6 C        2.920    -0.027    28.682     8.782
    45   6 C        2.920    -0.040    28.994     8.830
    46   6 C        2.920    -0.030    28.745     8.792
    47   6 C        2.923    -0.049    29.222     8.865
    48   6 C        2.922    -0.047    29.158     8.855
    49   6 C        2.919    -0.038    28.940     8.822
    50   6 C        2.923    -0.032    28.786     8.799
    51   6 C        2.924    -0.033    28.824     8.804
    52   6 C        2.925    -0.032    28.789     8.799
    53   6 C        2.923    -0.048    29.195     8.861
    54   6 C        2.931     0.065    26.544     8.449
    55   6 C        2.918    -0.045    29.124     8.850
    56   6 C        2.925    -0.034    28.852     8.809
    57   6 C        2.974     0.004    27.942     8.671
    58   6 C        2.974     0.010    27.795     8.648
    59   6 C        2.923    -0.034    28.837     8.806
    60   6 C        2.922    -0.028    28.707     8.786
    61   6 C        2.974     0.001    27.995     8.679
    62   6 C        3.203     0.128    24.682     8.094
    63   7 N        1.891    -0.290    28.357     7.894
    64   6 C        3.215     0.055    26.111     8.314
    65   6 C        2.985     0.003    27.950     8.672
    66   6 C        2.922    -0.031    28.785     8.798
    67   6 C        2.917    -0.030    28.758     8.794
    68   6 C        2.917    -0.033    28.829     8.805
    69   6 C        2.922    -0.035    28.869     8.811
    70   6 C        2.979    -0.002    28.069     8.690
    71   6 C        2.980     0.002    27.978     8.676
    72   6 C        2.922    -0.034    28.839     8.807
    73   6 C        2.917    -0.034    28.838     8.806
    74   6 C        2.917    -0.032    28.799     8.800
    75   6 C        2.920    -0.040    28.983     8.828
    76   6 C        2.979    -0.002    28.070     8.691
    77   6 C        3.075     0.020    27.473     8.594
    78   7 N        2.843    -0.047    22.148     6.990
    79   6 C        2.914     0.057    26.715     8.476
    80   6 C        2.922    -0.039    28.965     8.826
    81   6 C        2.924    -0.046    29.152     8.854
    82   6 C        2.924     0.067    26.509     8.443
    83   7 N        2.752    -0.070    22.604     7.061
    84   6 C        2.921     0.064    26.566     8.452
    85   6 C        2.923    -0.048    29.200     8.861
    86   6 C        2.920    -0.029    28.728     8.789
    87   6 C        2.919    -0.038    28.936     8.821
    88   6 C        2.920    -0.028    28.693     8.784
    89   6 C        2.922    -0.045    29.121     8.850
    90   6 C        2.925     0.064    26.565     8.452
    91   6 C        2.923    -0.046    29.142     8.853
    92   6 C        2.919    -0.027    28.682     8.782
    93   6 C        2.919    -0.037    28.912     8.817
    94   6 C        2.920    -0.030    28.740     8.791
    95   6 C        2.922    -0.047    29.172     8.857
    96   6 C        2.922    -0.048    29.189     8.860
    97   6 C        2.919    -0.037    28.928     8.820
    98   6 C        2.924    -0.035    28.878     8.813
    99   6 C        2.926    -0.037    28.931     8.821
   100   6 C        2.925    -0.033    28.833     8.806
   101   6 C        2.921    -0.045    29.118     8.849
   102   6 C        2.923    -0.052    29.294     8.876
   103   6 C        2.920    -0.029    28.731     8.790
   104   1 H        0.926     0.028     2.613     2.528
   105   1 H        0.926     0.029     2.594     2.519
   106   1 H        0.926     0.028     2.616     2.529
   107   1 H        0.926     0.037     2.486     2.465
   108   1 H        0.926     0.035     2.511     2.478
   109   1 H        0.926     0.036     2.501     2.473
   110   1 H        0.926     0.044     2.401     2.423
   111   1 H        0.926     0.051     2.313     2.378
   112   1 H        0.926     0.030     2.593     2.518
   113   1 H        0.926     0.027     2.625     2.534
   114   1 H        0.926     0.030     2.587     2.515
   115   1 H        0.926     0.034     2.534     2.489
   116   1 H        0.926     0.028     2.618     2.530
   117   1 H        0.926     0.026     2.651     2.546
   118   1 H        0.926     0.025     2.661     2.551
   119   1 H        0.926     0.040     2.447     2.446
   120   1 H        0.926     0.040     2.444     2.445
   121   1 H        0.926     0.029     2.598     2.520
   122   1 H        0.926     0.033     2.539     2.492
   123   1 H        0.926     0.033     2.549     2.496
   124   1 H        0.926     0.034     2.536     2.490
   125   1 H        0.926     0.033     2.541     2.493
   126   1 H        0.926     0.030     2.591     2.517
   127   1 H        0.926     0.028     2.616     2.529
   128   1 H        0.926     0.033     2.541     2.493
   129   1 H        0.926     0.031     2.570     2.507
   130   1 H        0.926     0.029     2.606     2.525
   131   1 H        0.926     0.041     2.429     2.437
   132   1 H        0.926     0.046     2.374     2.410
   133   1 H        0.926     0.029     2.607     2.525
   134   1 H        0.926     0.032     2.557     2.500
   135   1 H        0.926     0.031     2.574     2.509
   136   1 H        0.926     0.036     2.507     2.476
   137   1 H        0.926     0.035     2.513     2.479
   138   1 H        0.926     0.036     2.504     2.475
   139   1 H        0.926     0.037     2.487     2.466
   140   1 H        0.926     0.047     2.363     2.404
   141   1 H        0.926     0.050     2.318     2.381
   142   1 H        0.926     0.029     2.595     2.519
   143   1 H        0.926     0.027     2.628     2.535
   144   1 H        0.926     0.030     2.589     2.516
   145   1 H        0.926     0.034     2.536     2.490
   146   1 H        0.926     0.028     2.619     2.531
   147   1 H        0.926     0.026     2.650     2.546
   148   1 H        0.926     0.024     2.668     2.554
   149   1 H        0.926     0.041     2.441     2.443
   150   1 H        0.926     0.041     2.433     2.439
   151   1 H        0.926     0.032     2.559     2.502
   152   1 H        0.926     0.034     2.534     2.489
   153   1 H        0.926     0.032     2.563     2.504
   154   1 H        0.926     0.031     2.572     2.508
   155   1 H        0.926     0.028     2.616     2.529
   156   1 H        0.926     0.032     2.557     2.501
   157   1 H        0.926     0.030     2.592     2.517
   158   1 H        0.926     0.033     2.548     2.496
   159   1 H        0.926     0.034     2.535     2.490
   160   1 H        0.926     0.034     2.532     2.488
   161   1 H        0.926     0.041     2.433     2.439
   162   1 H        0.926     0.043     2.406     2.426
   163   1 H        0.926     0.027     2.623     2.533
   164   1 H        0.926     0.035     2.510     2.478
   165   1 H        0.926     0.037     2.488     2.467
   166   1 H        0.926     0.032     2.555     2.499
   167   1 H        0.926     0.028     2.620     2.531
   168   1 H        0.926     0.030     2.593     2.518

molecular dipole:
                 x           y           z       tot (Debye)
 q only:        0.079       0.178      -0.068
   full:        0.103       0.829      -0.134       2.150

 projected vibrational frequencies (cm⁻¹)
eigval :       -0.00    -0.00     0.00     0.00     0.00     0.00
eigval :        4.38     9.86    10.38    13.01    17.06    17.63
eigval :       19.00    21.23    22.71    26.12    29.24    30.35
eigval :       35.37    36.15    39.93    41.96    46.58    49.00
eigval :       52.67    56.19    59.79    61.05    62.06    64.93
eigval :       69.68    71.91    73.67    76.72    80.58    83.23
eigval :       83.72    84.06    88.46    89.42    92.01    98.67
eigval :      100.75   105.67   108.87   122.07   125.29   132.02
eigval :      136.47   142.47   149.46   152.17   156.07   161.25
eigval :      171.16   175.74   186.07   191.50   205.36   208.72
eigval :      216.64   221.24   227.60   237.04   237.46   243.00
eigval :      248.59   249.22   258.45   258.80   267.41   281.93
eigval :      287.26   303.74   304.61   306.41   308.89   311.59
eigval :      316.22   323.02   343.98   348.10   354.18   357.89
eigval :      360.63   369.08   373.65   374.24   375.50   377.12
eigval :      379.58   380.52   384.86   385.34   386.92   388.38
eigval :      393.15   395.40   396.90   397.99   399.72   400.71
eigval :      405.07   409.82   416.59   419.77   425.15   430.95
eigval :      436.46   442.39   444.95   450.42   453.29   456.79
eigval :      467.27   471.35   482.31   489.95   494.11   494.38
eigval :      496.55   503.09   515.29   517.35   518.41   521.82
eigval :      526.70   533.11   535.57   535.82   539.20   544.09
eigval :      552.92   581.24   582.10   585.39   585.55   586.95
eigval :      587.51   587.71   592.19   592.58   593.47   598.50
eigval :      601.66   609.38   612.98   614.55   616.04   621.92
eigval :      627.95   632.09   641.46   642.37   655.37   655.74
eigval :      656.63   660.29   662.66   664.32   665.75   670.93
eigval :      672.48   674.99   676.57   678.47   680.73   682.58
eigval :      683.54   691.44   693.68   696.86   701.81   706.11
eigval :      713.39   720.02   735.06   735.12   738.40   741.99
eigval :      751.97   757.71   758.16   760.30   764.62   766.01
eigval :      766.31   768.09   769.00   782.68   782.84   796.19
eigval :      800.71   807.10   810.83   822.57   824.30   826.44
eigval :      831.78   863.01   863.12   866.24   869.87   870.09
eigval :      871.06   871.96   872.80   873.99   874.50   875.32
eigval :      876.10   878.40   881.00   884.25   885.59   892.70
eigval :      895.15   898.71   902.76   907.17   907.23   909.82
eigval :      910.46   910.90   911.57   913.99   914.04   914.30
eigval :      915.48   916.92   917.38   917.80   918.26   918.95
eigval :      921.52   923.59   923.65   925.34   926.82   927.02
eigval :      927.15   927.40   927.50   927.54   927.68   928.95
eigval :      929.46   929.72   930.29   931.27   932.71   934.07
eigval :      935.90   940.54   940.74   941.86   944.04   961.99
eigval :      965.07   981.91   984.72   990.17  1002.53  1003.89
eigval :     1005.31  1006.21  1013.80  1014.43  1018.23  1021.27
eigval :     1033.37  1034.60  1070.70  1071.65  1076.21  1083.57
eigval :     1084.00  1085.55  1085.60  1085.68  1085.88  1087.73
eigval :     1087.89  1106.53  1107.37  1122.67  1124.32  1125.80
eigval :     1128.22  1130.79  1133.25  1133.92  1134.31  1135.12
eigval :     1135.95  1135.99  1136.89  1149.94  1152.61  1153.02
eigval :     1174.45  1175.49  1180.63  1181.07  1181.71  1182.32
eigval :     1183.03  1183.14  1184.28  1184.67  1185.44  1185.77
eigval :     1186.77  1188.03  1190.52  1191.51  1193.95  1194.27
eigval :     1196.88  1198.57  1201.01  1205.33  1206.57  1209.33
eigval :     1217.19  1218.61  1223.03  1253.17  1253.27  1257.04
eigval :     1257.58  1264.19  1264.61  1265.34  1267.27  1267.76
eigval :     1273.96  1278.99  1279.92  1281.18  1282.78  1283.39
eigval :     1284.06  1284.67  1284.89  1287.04  1297.35  1303.02
eigval :     1307.13  1308.49  1310.71  1312.09  1312.63  1315.46
eigval :     1317.87  1319.76  1322.45  1324.37  1325.05  1325.59
eigval :     1327.38  1328.07  1328.70  1329.06  1329.41  1334.90
eigval :     1341.25  1341.57  1342.28  1347.25  1348.15  1383.48
eigval :     1384.10  1393.30  1394.92  1407.13  1408.17  1408.93
eigval :     1413.95  1415.24  1415.64  1422.81  1423.24  1433.16
eigval :     1433.68  1436.91  1437.59  1438.84  1439.67  1442.19
eigval :     1445.47  1446.08  1464.43  1465.97  1473.47  1473.94
eigval :     1477.25  1477.84  1479.82  1485.33  1486.79  1497.59
eigval :     1500.25  1516.10  1516.17  1522.24  1522.78  1548.74
eigval :     1552.93  1553.84  1555.95  1556.95  1558.07  1561.46
eigval :     1564.67  1566.39  1567.08  1573.98  1577.93  1578.18
eigval :     1578.72  1579.13  1582.25  1582.56  1586.13  1595.17
eigval :     1595.22  1595.34  1595.54  1595.96  1596.58  1597.01
eigval :     1601.22  1601.42  1601.89  1603.52  1604.54  1606.30
eigval :     1607.28  3070.35  3071.52  3071.65  3072.13  3072.75
eigval :     3074.05  3074.24  3075.21  3076.00  3076.54  3076.58
eigval :     3077.21  3077.69  3078.24  3078.31  3078.63  3079.33
eigval :     3080.12  3080.27  3080.88  3082.01  3082.95  3083.11
eigval :     3083.30  3083.49  3084.49  3084.59  3085.01  3086.43
eigval :     3086.54  3086.68  3088.06  3088.41  3088.80  3088.89
eigval :     3090.20  3090.54  3090.83  3091.64  3091.95  3092.18
eigval :     3093.23  3093.40  3094.44  3095.05  3096.11  3096.25
eigval :     3096.34  3096.38  3096.56  3097.92  3099.39  3099.57
eigval :     3100.36  3100.69  3101.86  3103.09  3104.61  3104.86
eigval :     3105.09  3105.25  3109.12  3109.76  3110.24  3113.63

   temp. (K)  partition function   enthalpy   heat capacity  entropy
                                   cal/mol     cal/K/mol   cal/K/mol   J/K/mol
 298.15  VIB  0.166E+41            49616.187    309.056    313.086
         ROT  0.745E+09              888.752      2.981     43.578
         INT  0.124E+50            50504.940    312.037    356.664
         TR   0.462E+29             1481.254      4.968     47.380
         TOT                       51986.1934   317.0052   404.0442  1690.5211

       T/K    H(0)-H(T)+PV         H(T)/Eh          T*S/Eh         G(T)/Eh
   ------------------------------------------------------------------------
    298.15    0.828453E-01    0.138297E+01    0.191974E+00    0.119100E+01
   ------------------------------------------------------------------------

         :::::::::::::::::::::::::::::::::::::::::::::::::::::
         ::                  THERMODYNAMIC                  ::
         :::::::::::::::::::::::::::::::::::::::::::::::::::::
         :: total free energy        -258.137729338458 Eh   ::
         ::.................................................::
         :: total energy             -259.328728195549 Eh   ::
         :: zero point energy           1.300128040484 Eh   ::
         :: G(RRHO) w/o ZPVE           -0.109129183393 Eh   ::
         :: G(RRHO) contrib.            1.190998857091 Eh   ::
         :::::::::::::::::::::::::::::::::::::::::::::::::::::

           -------------------------------------------------
          | TOTAL ENERGY             -259.328728195549 Eh   |
          | TOTAL ENTHALPY           -257.945754882479 Eh   |
          | TOTAL FREE ENERGY        -258.137729338458 Eh   |
          | GRADIENT NORM               0.000070809899 Eh/α |
          | HOMO-LUMO GAP               2.369525601759 eV   |
           -------------------------------------------------

 * finished run on 2025/09/07 at 07:13:51.436
