   * xtb version 6.7.1 (edcfbbe) compiled by 'albert@albert-system' on 2024-07-22

   ID    Z sym.   atoms
    1    9 F      1, 3, 4
    2    6 C      2, 5-8, 10-14, 16-21, 23-35, 37-42, 44-51, 53, 54
    3    7 N      9, 15, 36, 52
    4    8 O      22, 43
    5    1 H      55-81

          program call               : xtb data2507/toluene/TFM-QP/TFM-QP.xyz --gfn 2 --gbsa toluene --ohess vtight --parallel 40 --molden --ceasefiles --namespace data2507/toluene/TFM-QP/TFM-QP_toluene_S0_preOpt
      * Solvation model:               GBSA
        Solvent                        toluene
        Solvent mass                       9.2140E+01 g/mol
          :  Hamiltonian                  GFN2-xTB          :
 * total energy  :  -144.2546267 Eh     change       -0.5011032E-09 Eh
 * total energy  :  -144.2699433 Eh     change       -0.1531661E-01 Eh
 * total energy  :  -144.2754093 Eh     change       -0.5466061E-02 Eh
 * total energy  :  -144.2769453 Eh     change       -0.1535966E-02 Eh
 * total energy  :  -144.2782663 Eh     change       -0.1320971E-02 Eh
 * total energy  :  -144.2788361 Eh     change       -0.5698733E-03 Eh
 * total energy  :  -144.2792612 Eh     change       -0.4250357E-03 Eh
 * total energy  :  -144.2797723 Eh     change       -0.5111681E-03 Eh
 * total energy  :  -144.2803380 Eh     change       -0.5656097E-03 Eh
 * total energy  :  -144.2809038 Eh     change       -0.5658651E-03 Eh
 * total energy  :  -144.2822544 Eh     change       -0.4603242E-06 Eh
 * total energy  :  -144.2822548 Eh     change       -0.4452311E-06 Eh
 * total energy  :  -144.2822553 Eh     change       -0.4501223E-06 Eh
 * total energy  :  -144.2822557 Eh     change       -0.4551972E-06 Eh
 * total energy  :  -144.2822562 Eh     change       -0.4700105E-06 Eh
 * total energy  :  -144.2822567 Eh     change       -0.4971266E-06 Eh
 * total energy  :  -144.2822572 Eh     change       -0.5357839E-06 Eh
 * total energy  :  -144.2822578 Eh     change       -0.5732287E-06 Eh
 * total energy  :  -144.2822578 Eh     change       -0.2308582E-08 Eh
   *** GEOMETRY OPTIMIZATION CONVERGED AFTER 122 ITERATIONS ***

 final structure:
================
81
 xtb: 6.7.1 (edcfbbe)
F           -9.72582007626340        1.94809798440511        0.73128419692789
C           -8.98189875823263        1.76122600258547       -0.37908416781020
F           -9.30663362579934        0.54584630464472       -0.84302738434109
F           -9.45925923188695        2.64421633795225       -1.28277438348945
C           -7.51479278180592        1.94274860887169       -0.12392670255430
C           -7.09661453311749        3.17546164624045        0.41797028062053
C           -5.77033695318339        3.40722348239944        0.65478426087318
C           -4.82173118782334        2.41015949637671        0.35352683575870
N           -3.50530885594941        2.66303788812552        0.48078799567524
C           -2.64380576090362        1.71068496160310        0.21205327744550
C           -1.22805839379710        2.08243846950302        0.21447323236329
C           -0.76401703442447        3.00675767507694        1.15116620979077
C            0.56805293474914        3.36273788350939        1.18676077001319
C            1.46233019739627        2.81584670273900        0.26854258337329
N            2.82920676004468        3.15656616188319        0.31138621722824
C            3.24558505895870        4.47476573937120        0.10384992922872
C            2.35425379012782        5.49649411243216       -0.20157263089634
C            2.80220578947095        6.79215507064308       -0.41003710273114
C            4.14828235161818        7.08776068399205       -0.32910559087061
C            5.05451178806590        6.07354203103264       -0.05553363715944
C            4.61256347073233        4.77990207955805        0.15237343636837
O            5.57503579755643        3.82531737300737        0.38598618519803
C            5.14826471684163        2.53444361332783        0.59313779815913
C            6.12304422602706        1.58719807207420        0.84840111371775
C            5.77003046700864        0.26981930788006        1.10283652993342
C            4.43630823091115       -0.08608286388195        1.11560980315658
C            3.45639059813470        0.85945845817541        0.85405967762480
C            3.79354068227304        2.17712337446827        0.56818404482023
C            0.99431592892790        1.92620967047978       -0.69740424515388
C           -0.33520162633857        1.56165808178999       -0.72380638746494
C           -3.10098467765665        0.37931666297826       -0.09379187598474
C           -2.20507575558567       -0.77822363523530       -0.13561307800558
C           -1.15426523416331       -0.91717504875951        0.77266316617910
C           -0.32649212735843       -2.01867748477107        0.71732512313892
C           -0.52860567534399       -3.00408248115722       -0.24753202742774
N            0.33829974915188       -4.11396909713365       -0.31573152943418
C            1.69116532969078       -3.93653827373833       -0.62018165702676
C            2.22466140920034       -2.69189203532856       -0.93265966633864
C            3.56901312773230       -2.55015467083693       -1.24162160129193
C            4.40236245600975       -3.65058719830548       -1.24964428977380
C            3.88054383930205       -4.90496501780526       -0.96794657580279
C            2.53897305339848       -5.05127450474699       -0.66594503841769
O            2.08954035343144       -6.33018532852485       -0.43280887592724
C            0.75190528778023       -6.48942562225190       -0.15365557827162
C            0.31198950786096       -7.77974526300895        0.07720963342513
C           -1.01676631452991       -8.02025417367474        0.39588776827717
C           -1.89365584748062       -6.95897473971077        0.49791114404809
C           -1.45733214301394       -5.66327383757537        0.26576181393281
C           -0.13660374081685       -5.40785239492624       -0.08326502567946
C           -1.59402128827998       -2.88372367237097       -1.13737581968553
C           -2.42798245452771       -1.78669075530021       -1.07357518778494
N           -4.37260342180828        0.15086027383508       -0.32040311704436
C           -5.25615826103742        1.15295413992993       -0.15032678456498
C           -6.62300578733310        0.93949289919519       -0.40788134870718
H           -7.83776354996013        3.92955444465175        0.63457049164914
H           -5.42299755935990        4.34649248394806        1.05446133984936
H           -1.46125335325692        3.42087600014769        1.86273177137210
H            0.92699686441707        4.05867875466391        1.93014666718422
H            1.30172162654616        5.27740855241941       -0.28664106257623
H            2.08643074536918        7.56614555758429       -0.64081333085830
H            4.50247730525882        8.09422152122852       -0.48698960344101
H            6.11491142404695        6.26511314804393       -0.00393460195650
H            7.15423186881750        1.90414367260489        0.85007425138083
H            6.53708384834054       -0.46271058913124        1.29845115049731
H            4.14549359370279       -1.10327407660269        1.32698784114115
H            2.41819194168643        0.57029500859337        0.87750333364169
H            1.68141159208951        1.53026243369434       -1.43011697930311
H           -0.68957375593784        0.89112079357690       -1.49183814588266
H           -1.00423445608797       -0.17480928657462        1.54175247497630
H            0.47956492858637       -2.12934102202415        1.42700049497610
H            1.58230166388934       -1.82626895602675       -0.93933768852559
H            3.95725372197605       -1.57074589453709       -1.47392718694826
H            5.45023085446388       -3.54545003461196       -1.48232853499371
H            4.49890219378478       -5.78879290355814       -0.98452451300448
H            1.02822087813061       -8.58345349196994        0.00717073167691
H           -1.35084845491809       -9.03063093194270        0.57160044703254
H           -2.92607272563014       -7.12733247381358        0.76335089507460
H           -2.14986372826733       -4.84269396125081        0.36638789843282
H           -1.75693273984236       -3.65043718077339       -1.87998072072583
H           -3.25215620742518       -1.68466013464737       -1.76231839747257
H           -6.93907787442856       -0.01148558471652       -0.80713574084094

          :  Hamiltonian                  GFN2-xTB          :
         :: gradient norm              0.000048613498 Eh/a0 ::
         :: HOMO-LUMO gap              0.796362665396 eV    ::
         :: SCC energy              -146.550451753123 Eh    ::
         :: -> dispersion             -0.118452414667 Eh    ::
         :: -> Gsolv                  -0.052350002500 Eh    ::
         :: repulsion energy           2.268193943982 Eh    ::

    * Orbital Energies and Occupations

         #    Occupation            Energy/Eh            Energy/eV
      -------------------------------------------------------------
         1        2.0000           -0.8905949             -24.2343
       ...           ...                  ...                  ...
       118        2.0000           -0.4249254             -11.5628
       119        2.0000           -0.4219028             -11.4806
       120        2.0000           -0.4199334             -11.4270
       121        2.0000           -0.4178352             -11.3699
       122        2.0000           -0.4171389             -11.3509
       123        2.0000           -0.4148088             -11.2875
       124        2.0000           -0.4145780             -11.2812
       125        2.0000           -0.4079133             -11.0999
       126        2.0000           -0.3928557             -10.6901
       127        2.0000           -0.3919090             -10.6644
       128        2.0000           -0.3720663             -10.1244
       129        2.0000           -0.3465410              -9.4299
       130        2.0000           -0.3457894              -9.4094 (HOMO)
       131        0.0000           -0.3165237              -8.6130 (LUMO)
       132                         -0.2876849              -7.8283
       133                         -0.2501328              -6.8065
       134                         -0.2471584              -6.7255
       135                         -0.2449580              -6.6656
       136                         -0.2408258              -6.5532
       137                         -0.2406624              -6.5488
       138                         -0.2394962              -6.5170
       139                         -0.2323201              -6.3218
       140                         -0.2319028              -6.3104
       141                         -0.2314277              -6.2975
       ...                                ...                  ...
       243                          0.6732263              18.3194
      -------------------------------------------------------------
                  HL-Gap            0.0292658 Eh            0.7964 eV

     #   Z          covCN         q      C6AA      α(0)
     1   9 F        0.791    -0.217    11.416     3.991
     2   6 C        3.337     0.486    17.267     6.579
     3   9 F        0.791    -0.211    11.349     3.979
     4   9 F        0.791    -0.218    11.426     3.993
     5   6 C        2.974    -0.026    28.636     8.778
     6   6 C        2.918    -0.025    28.616     8.772
     7   6 C        2.917    -0.035    28.861     8.810
     8   6 C        2.961     0.082    26.172     8.391
     9   7 N        1.851    -0.234    26.966     7.696
    10   6 C        2.948     0.090    25.994     8.362
    11   6 C        2.981     0.002    27.971     8.675
    12   6 C        2.924    -0.024    28.609     8.771
    13   6 C        2.919    -0.038    28.947     8.823
    14   6 C        2.921     0.069    26.455     8.435
    15   7 N        2.751    -0.068    22.557     7.054
    16   6 C        2.921     0.041    27.071     8.532
    17   6 C        2.923    -0.061    29.505     8.908
    18   6 C        2.919    -0.039    28.961     8.825
    19   6 C        2.919    -0.040    29.005     8.832
    20   6 C        2.919    -0.058    29.432     8.896
    21   6 C        2.882     0.123    25.302     8.246
    22   8 O        1.708    -0.271    18.494     5.806
    23   6 C        2.882     0.123    25.299     8.246
    24   6 C        2.919    -0.057    29.427     8.896
    25   6 C        2.919    -0.040    28.997     8.830
    26   6 C        2.919    -0.038    28.941     8.822
    27   6 C        2.924    -0.060    29.500     8.907
    28   6 C        2.922     0.041    27.078     8.533
    29   6 C        2.920    -0.039    28.965     8.826
    30   6 C        2.921    -0.029    28.714     8.787
    31   6 C        2.948     0.090    26.002     8.363
    32   6 C        2.981     0.002    27.970     8.675
    33   6 C        2.921    -0.029    28.718     8.788
    34   6 C        2.920    -0.039    28.963     8.825
    35   6 C        2.921     0.069    26.455     8.435
    36   7 N        2.751    -0.069    22.574     7.057
    37   6 C        2.922     0.041    27.075     8.533
    38   6 C        2.924    -0.060    29.502     8.907
    39   6 C        2.919    -0.038    28.942     8.822
    40   6 C        2.919    -0.040    29.001     8.831
    41   6 C        2.919    -0.057    29.429     8.896
    42   6 C        2.882     0.123    25.302     8.246
    43   8 O        1.708    -0.271    18.499     5.807
    44   6 C        2.882     0.123    25.305     8.247
    45   6 C        2.919    -0.058    29.434     8.897
    46   6 C        2.919    -0.041    29.009     8.832
    47   6 C        2.919    -0.039    28.963     8.825
    48   6 C        2.923    -0.061    29.508     8.908
    49   6 C        2.921     0.042    27.068     8.532
    50   6 C        2.919    -0.038    28.943     8.822
    51   6 C        2.924    -0.024    28.611     8.772
    52   7 N        1.852    -0.235    27.013     7.703
    53   6 C        2.964     0.081    26.183     8.393
    54   6 C        2.918    -0.035    28.881     8.813
    55   1 H        0.926     0.067     2.114     2.274
    56   1 H        0.926     0.079     1.991     2.206
    57   1 H        0.926     0.059     2.208     2.324
    58   1 H        0.926     0.054     2.265     2.353
    59   1 H        0.926     0.042     2.422     2.434
    60   1 H        0.926     0.042     2.420     2.433
    61   1 H        0.926     0.042     2.420     2.433
    62   1 H        0.926     0.048     2.347     2.396
    63   1 H        0.926     0.048     2.346     2.395
    64   1 H        0.926     0.043     2.414     2.430
    65   1 H        0.926     0.042     2.417     2.431
    66   1 H        0.926     0.040     2.443     2.444
    67   1 H        0.926     0.052     2.294     2.369
    68   1 H        0.926     0.042     2.416     2.431
    69   1 H        0.926     0.043     2.409     2.427
    70   1 H        0.926     0.052     2.292     2.367
    71   1 H        0.926     0.040     2.448     2.447
    72   1 H        0.926     0.042     2.416     2.431
    73   1 H        0.926     0.043     2.415     2.430
    74   1 H        0.926     0.048     2.347     2.396
    75   1 H        0.926     0.048     2.347     2.396
    76   1 H        0.926     0.042     2.422     2.434
    77   1 H        0.926     0.042     2.426     2.436
    78   1 H        0.926     0.041     2.432     2.439
    79   1 H        0.926     0.054     2.271     2.357
    80   1 H        0.926     0.058     2.223     2.331
    81   1 H        0.926     0.077     2.008     2.216

molecular dipole:
                 x           y           z       tot (Debye)
 q only:        1.874       0.254       0.316
   full:        1.643       0.271       0.295       4.298

 projected vibrational frequencies (cm⁻¹)
eigval :       -0.00    -0.00    -0.00     0.00     0.00     0.00
eigval :        8.60    10.16    15.35    22.91    23.62    24.71
eigval :       29.26    37.29    41.39    43.09    52.20    61.94
eigval :       62.46    73.09    83.81    95.24   113.52   115.80
eigval :      123.63   129.87   139.20   147.90   158.58   195.69
eigval :      196.98   212.09   228.65   233.63   247.80   250.96
eigval :      258.42   264.45   269.18   284.52   291.01   299.98
eigval :      329.74   354.59   357.16   370.67   377.88   382.91
eigval :      384.91   388.58   392.57   400.33   403.27   415.90
eigval :      419.53   426.10   429.89   431.45   441.07   445.54
eigval :      452.66   455.89   477.24   497.04   505.40   509.71
eigval :      511.37   516.39   522.32   524.06   542.57   550.69
eigval :      553.65   565.04   574.03   585.50   589.62   594.10
eigval :      603.33   607.25   617.32   619.05   625.37   654.92
eigval :      659.28   660.84   661.46   661.97   669.79   678.04
eigval :      690.87   702.18   712.77   729.18   733.51   764.89
eigval :      775.79   776.12   778.48   779.86   797.78   799.29
eigval :      820.10   822.20   827.91   843.10   852.69   853.10
eigval :      862.75   864.36   865.29   866.60   874.63   876.48
eigval :      876.71   896.50   897.31   898.12   898.54   899.48
eigval :      911.99   912.69   912.78   913.53   914.29   915.52
eigval :      916.04   917.41   918.72   925.19   927.47   932.76
eigval :      934.68   972.77   995.06  1008.17  1030.16  1041.22
eigval :     1058.00  1089.32  1089.54  1090.63  1091.85  1096.26
eigval :     1105.57  1105.86  1117.32  1117.81  1132.86  1134.36
eigval :     1146.63  1168.20  1169.60  1172.35  1174.75  1180.61
eigval :     1182.13  1187.00  1188.92  1195.37  1197.00  1197.68
eigval :     1216.22  1219.84  1224.48  1240.56  1241.06  1258.23
eigval :     1258.37  1259.26  1262.03  1263.80  1266.85  1288.34
eigval :     1303.94  1304.30  1304.95  1310.83  1313.16  1313.47
eigval :     1329.05  1332.16  1332.82  1350.84  1352.72  1373.72
eigval :     1395.54  1401.30  1404.89  1421.81  1422.25  1436.63
eigval :     1440.63  1441.72  1469.68  1478.34  1479.80  1480.30
eigval :     1482.13  1500.58  1501.98  1502.24  1531.37  1551.56
eigval :     1552.26  1566.13  1566.36  1578.56  1578.87  1579.60
eigval :     1583.58  1588.22  1589.21  1597.56  1601.15  1601.53
eigval :     3087.13  3087.70  3087.80  3088.13  3089.74  3090.88
eigval :     3090.98  3092.14  3096.05  3096.11  3096.43  3097.28
eigval :     3098.20  3098.73  3099.46  3104.33  3104.74  3104.90
eigval :     3105.11  3105.66  3106.37  3106.40  3109.30  3109.53
eigval :     3111.80  3112.16  3112.71

   temp. (K)  partition function   enthalpy   heat capacity  entropy
                                   cal/mol     cal/K/mol   cal/K/mol   J/K/mol
 298.15  VIB  0.122E+21            24917.966    155.480    155.216
         ROT  0.151E+09              888.752      2.981     40.410
         INT  0.185E+29            25806.718    158.461    195.626
         TR   0.184E+29             1481.254      4.968     45.551
         TOT                       27287.9723   163.4293   241.1776  1009.0871

       T/K    H(0)-H(T)+PV         H(T)/Eh          T*S/Eh         G(T)/Eh
   ------------------------------------------------------------------------
    298.15    0.434862E-01    0.631728E+00    0.114591E+00    0.517137E+00
   ------------------------------------------------------------------------

         :::::::::::::::::::::::::::::::::::::::::::::::::::::
         ::                  THERMODYNAMIC                  ::
         :::::::::::::::::::::::::::::::::::::::::::::::::::::
         :: total free energy        -143.765121203894 Eh   ::
         ::.................................................::
         :: total energy             -144.282257810250 Eh   ::
         :: zero point energy           0.588241717054 Eh   ::
         :: G(RRHO) w/o ZPVE           -0.071105110698 Eh   ::
         :: G(RRHO) contrib.            0.517136606356 Eh   ::
         :::::::::::::::::::::::::::::::::::::::::::::::::::::

           -------------------------------------------------
          | TOTAL ENERGY             -144.282257810250 Eh   |
          | TOTAL ENTHALPY           -143.650529941343 Eh   |
          | TOTAL FREE ENERGY        -143.765121203894 Eh   |
          | GRADIENT NORM               0.000048613143 Eh/α |
          | HOMO-LUMO GAP               0.796361983392 eV   |
           -------------------------------------------------

 * finished run on 2025/07/16 at 18:48:01.629
