   * xtb version 6.7.1 (edcfbbe) compiled by 'albert@albert-system' on 2024-07-22

   ID    Z sym.   atoms
    1    9 F      1, 3, 4
    2    6 C      2, 5-8, 10-14, 16-21, 23-35, 37-42, 44-51, 53, 54
    3    7 N      9, 15, 36, 52
    4    8 O      22, 43
    5    1 H      55-81

          program call               : xtb data2507/toluene/TFM-QP/TFM-QP_toluene_T1_crest.xyz --gfn 2 --uhf 2 --gbsa toluene --ohess vtight --parallel 40 --molden --ceasefiles --namespace data2507/toluene/TFM-QP/TFM-QP_toluene_T1_finalOpt
      * Solvation model:               GBSA
        Solvent                        toluene
        Solvent mass                       9.2140E+01 g/mol
          :  Hamiltonian                  GFN2-xTB          :
 * total energy  :  -144.2333759 Eh     change       -0.1397672E-07 Eh
 * total energy  :  -144.2335435 Eh     change       -0.1676162E-03 Eh
 * total energy  :  -144.2336431 Eh     change       -0.9963055E-04 Eh
 * total energy  :  -144.2336643 Eh     change       -0.2122317E-04 Eh
 * total energy  :  -144.2337066 Eh     change       -0.4225120E-04 Eh
 * total energy  :  -144.2337337 Eh     change       -0.2711023E-04 Eh
 * total energy  :  -144.2337865 Eh     change       -0.5277157E-04 Eh
 * total energy  :  -144.2338393 Eh     change       -0.5280933E-04 Eh
 * total energy  :  -144.2338769 Eh     change       -0.3759262E-04 Eh
 * total energy  :  -144.2339014 Eh     change       -0.2452863E-04 Eh
 * total energy  :  -144.2345611 Eh     change       -0.1305759E-05 Eh
 * total energy  :  -144.2345624 Eh     change       -0.1271229E-05 Eh
 * total energy  :  -144.2345636 Eh     change       -0.1246648E-05 Eh
 * total energy  :  -144.2345649 Eh     change       -0.1237664E-05 Eh
 * total energy  :  -144.2345661 Eh     change       -0.1246183E-05 Eh
 * total energy  :  -144.2345674 Eh     change       -0.1264806E-05 Eh
 * total energy  :  -144.2345687 Eh     change       -0.1297948E-05 Eh
 * total energy  :  -144.2345700 Eh     change       -0.1279695E-05 Eh
 * total energy  :  -144.2345700 Eh     change       -0.6013522E-08 Eh
   *** GEOMETRY OPTIMIZATION CONVERGED AFTER 122 ITERATIONS ***

 final structure:
================
81
 xtb: 6.7.1 (edcfbbe)
F           -8.95233410823021       -0.90085008432360        0.60224950194759
C           -8.68439560874707        0.18434639954028       -0.16542552116148
F           -8.93624745124752       -0.22615452260195       -1.43461342793790
F           -9.65235276863253        1.07315613093618        0.12026316578869
C           -7.30157818321871        0.70431702224899        0.01705246207499
C           -7.07244371385619        2.01956684794110        0.39898003075931
C           -5.77673430400249        2.47745074505712        0.55003694586958
C           -4.68467070062338        1.63090953988383        0.32147694772748
N           -3.42989776042983        2.07211257553349        0.40648447291442
C           -2.40089366884663        1.24230440710420        0.19338194612659
C           -1.05884947242093        1.81482411293338        0.19218379170067
C           -0.72574984321487        2.81091305538826        1.11381011660721
C            0.54799786179443        3.33983066945716        1.15117964763785
C            1.51260194629446        2.89313677468743        0.25285571291762
N            2.83376090592120        3.40528798463426        0.30544029889495
C            3.09565215112189        4.72787823686430       -0.03193611761399
C            2.09648647457730        5.59572215505993       -0.46457318143324
C            2.39569880009188        6.90629325850671       -0.79438618236398
C            3.69590782962541        7.37312203313203       -0.70768421493563
C            4.70684699304538        6.51773521515509       -0.29970583367957
C            4.41543242480278        5.20544070023045        0.03154602656370
O            5.46367681874643        4.40672066763457        0.40593870063898
C            5.18993669382968        3.10328976960624        0.72594542898847
C            6.25795593618866        2.30647752976774        1.10278669481356
C            6.04756577509626        0.98453866505848        1.46081124538712
C            4.76392878488628        0.46745100575786        1.45104222236636
C            3.69182366531863        1.25657498201311        1.07193845371876
C            3.88595099799413        2.58152843910811        0.68954003238617
C            1.17713935592064        1.93764097766332       -0.70342221919088
C           -0.09453272973392        1.40833841621440       -0.73583439155340
C           -2.64282801971909       -0.12585003910557       -0.03915113204077
C           -1.55701123947069       -1.10682381684771       -0.08496955209749
C           -0.52282181236815       -1.07310474784860        0.85370836144750
C            0.51484622995435       -1.97728801513944        0.78391184428058
C            0.53814398213970       -2.93697549388369       -0.22521002095476
N            1.63427732554626       -3.82986880188240       -0.32098353029045
C            2.89709719967220       -3.34745219538278       -0.65004663917367
C            3.12880340911855       -2.00527174711186       -0.94019834200584
C            4.39901573488451       -1.56287261777760       -1.26702428705025
C            5.46014283839593       -2.44966867133240       -1.31620066359833
C            5.24498954721522       -3.79264888833506       -1.05158225964847
C            3.97626468177923       -4.24340543429443       -0.72783453375314
O            3.82832539655905       -5.58633915240865       -0.50184786040834
C            2.57743077421981       -6.04587087264432       -0.18342930052938
C            2.44367705222090       -7.40357688617338        0.05212837767051
C            1.21093047737027       -7.93096842784936        0.40186884413901
C            0.11718157003202       -7.09224605404382        0.52826839891268
C            0.24317564942673       -5.73381427954218        0.29391497030730
C            1.46847446475232       -5.18951196998264       -0.08120909440494
C           -0.51118282368257       -3.00837872692082       -1.13602006957990
C           -1.55345750143935       -2.10605111107599       -1.05837385116254
N           -3.88685740359539       -0.57542865502481       -0.18584689619289
C           -4.92921157792868        0.25892840196819       -0.04482721008349
C           -6.23964467821388       -0.17811173785314       -0.20530171558341
H           -7.90552209321221        2.68290072524868        0.57333364599835
H           -5.58263935283380        3.49921196589972        0.83437628011426
H           -1.47809213634835        3.14720278281526        1.81042936932335
H            0.80467743826943        4.09376429083883        1.88066074526306
H            1.08270859515514        5.23748206037432       -0.54621267492601
H            1.60376772567575        7.56094801799754       -1.12343821827980
H            3.92944125852505        8.39471879978072       -0.96207115747630
H            5.73183270678763        6.84661265191786       -0.23427395934281
H            7.24342642736096        2.74433587173170        1.11291544455623
H            6.88327595634706        0.36840003627328        1.75153167788292
H            4.59173999601923       -0.55763019682703        1.73810986343043
H            2.69433088379537        0.84825943261467        1.07252987038540
H            1.91711592443494        1.62302949078281       -1.42409761387777
H           -0.35417843797709        0.68720857029869       -1.49558169350749
H           -0.54507420543030       -0.34097689506120        1.64656793219398
H            1.31127803390464       -1.95144459261161        1.51231832500483
H            2.30707095707482       -1.30834430908849       -0.91008979736990
H            4.55663588514627       -0.51794891049862       -1.48153994321713
H            6.45062440285135       -2.10437936013367       -1.56567477957886
H            6.04699056225360       -4.51225362073021       -1.09555229435953
H            3.31836762867482       -8.02761004365736       -0.04044288244028
H            1.11303280865986       -8.98965076067507        0.58193825449825
H           -0.84362141946655       -7.49097444105080        0.81455012123705
H           -0.61186589872276       -5.08674993461667        0.40769281047285
H           -0.50085865684189       -3.76381284206075       -1.90770539675791
H           -2.36821410518997       -2.15032617144452       -1.76469176553313
H           -6.42578925182062       -1.20247353942271       -0.48768106396923

          :  Hamiltonian                  GFN2-xTB          :
         :: gradient norm              0.000080173043 Eh/a0 ::
         :: HOMO-LUMO gap              0.734964531485 eV    ::
         :: SCC energy              -146.497680975423 Eh    ::
         :: -> dispersion             -0.119772787828 Eh    ::
         :: -> Gsolv                  -0.059528710812 Eh    ::
         :: repulsion energy           2.263111007801 Eh    ::

    * Orbital Energies and Occupations

         #    Occupation            Energy/Eh            Energy/eV
      -------------------------------------------------------------
         1        2.0000           -0.8781395             -23.8954
       ...           ...                  ...                  ...
       119        2.0000           -0.4252765             -11.5724
       120        2.0000           -0.4249556             -11.5636
       121        2.0000           -0.4209164             -11.4537
       122        2.0000           -0.4196874             -11.4203
       123        2.0000           -0.4158610             -11.3162
       124        2.0000           -0.4035624             -10.9815
       125        2.0000           -0.4032955             -10.9742
       126        2.0000           -0.3973071             -10.8113
       127        2.0000           -0.3960016             -10.7758
       128        1.9002           -0.3564154              -9.6986
       129        1.6684           -0.3549914              -9.6598
       130        1.4313           -0.3540628              -9.6345
       131        1.0000           -0.2975083              -8.0956 (HOMO)
       132        0.0000           -0.2704986              -7.3606 (LUMO)
       133                         -0.2524991              -6.8709
       134                         -0.2512404              -6.8366
       135                         -0.2445668              -6.6550
       136                         -0.2412181              -6.5639
       137                         -0.2408013              -6.5525
       138                         -0.2405126              -6.5447
       139                         -0.2357585              -6.4153
       140                         -0.2326715              -6.3313
       141                         -0.2255507              -6.1375
       142                         -0.2248238              -6.1178
       ...                                ...                  ...
       243                          0.6807708              18.5247
      -------------------------------------------------------------
                  HL-Gap            0.0270097 Eh            0.7350 eV

     #   Z          covCN         q      C6AA      α(0)
     1   9 F        0.791    -0.230    11.552     4.015
     2   6 C        3.338     0.483    17.299     6.583
     3   9 F        0.791    -0.232    11.566     4.017
     4   9 F        0.791    -0.221    11.451     3.997
     5   6 C        2.972    -0.054    29.330     8.883
     6   6 C        2.914    -0.037    28.915     8.818
     7   6 C        2.919    -0.066    29.645     8.929
     8   6 C        2.942     0.090    26.002     8.363
     9   7 N        1.850    -0.258    27.568     7.782
    10   6 C        2.935     0.068    26.485     8.440
    11   6 C        2.977     0.007    27.862     8.658
    12   6 C        2.924    -0.028    28.701     8.786
    13   6 C        2.918    -0.038    28.939     8.822
    14   6 C        2.923     0.055    26.767     8.484
    15   7 N        2.752    -0.041    22.039     6.972
    16   6 C        2.923     0.044    27.010     8.523
    17   6 C        2.922    -0.054    29.353     8.885
    18   6 C        2.918    -0.033    28.819     8.803
    19   6 C        2.919    -0.034    28.843     8.807
    20   6 C        2.918    -0.054    29.337     8.882
    21   6 C        2.884     0.127    25.209     8.231
    22   8 O        1.709    -0.245    18.062     5.738
    23   6 C        2.884     0.128    25.201     8.230
    24   6 C        2.918    -0.053    29.327     8.881
    25   6 C        2.919    -0.034    28.838     8.806
    26   6 C        2.918    -0.032    28.798     8.800
    27   6 C        2.922    -0.055    29.363     8.886
    28   6 C        2.924     0.044    27.022     8.525
    29   6 C        2.919    -0.039    28.975     8.827
    30   6 C        2.923    -0.034    28.848     8.808
    31   6 C        2.936     0.076    26.311     8.412
    32   6 C        2.978     0.008    27.825     8.653
    33   6 C        2.923    -0.032    28.791     8.799
    34   6 C        2.920    -0.039    28.962     8.825
    35   6 C        2.923     0.057    26.714     8.476
    36   7 N        2.752    -0.042    22.052     6.974
    37   6 C        2.924     0.043    27.028     8.526
    38   6 C        2.922    -0.055    29.371     8.887
    39   6 C        2.918    -0.032    28.803     8.801
    40   6 C        2.919    -0.034    28.840     8.807
    41   6 C        2.918    -0.053    29.327     8.880
    42   6 C        2.883     0.128    25.199     8.230
    43   8 O        1.709    -0.246    18.068     5.739
    44   6 C        2.884     0.127    25.209     8.231
    45   6 C        2.918    -0.054    29.337     8.882
    46   6 C        2.919    -0.034    28.844     8.807
    47   6 C        2.918    -0.033    28.822     8.804
    48   6 C        2.922    -0.055    29.357     8.885
    49   6 C        2.923     0.044    27.017     8.524
    50   6 C        2.919    -0.037    28.930     8.820
    51   6 C        2.924    -0.027    28.670     8.781
    52   7 N        1.849    -0.263    27.680     7.797
    53   6 C        2.943     0.086    26.078     8.375
    54   6 C        2.921    -0.065    29.620     8.925
    55   1 H        0.926     0.045     2.381     2.413
    56   1 H        0.926     0.051     2.306     2.374
    57   1 H        0.926     0.051     2.313     2.379
    58   1 H        0.926     0.050     2.316     2.380
    59   1 H        0.926     0.049     2.329     2.387
    60   1 H        0.926     0.050     2.318     2.381
    61   1 H        0.926     0.052     2.300     2.371
    62   1 H        0.926     0.058     2.223     2.331
    63   1 H        0.926     0.058     2.219     2.330
    64   1 H        0.926     0.053     2.284     2.363
    65   1 H        0.926     0.049     2.330     2.387
    66   1 H        0.926     0.049     2.328     2.386
    67   1 H        0.926     0.050     2.323     2.383
    68   1 H        0.926     0.038     2.474     2.460
    69   1 H        0.926     0.040     2.442     2.444
    70   1 H        0.926     0.052     2.294     2.368
    71   1 H        0.926     0.049     2.329     2.387
    72   1 H        0.926     0.049     2.336     2.390
    73   1 H        0.926     0.053     2.284     2.363
    74   1 H        0.926     0.058     2.219     2.329
    75   1 H        0.926     0.058     2.222     2.331
    76   1 H        0.926     0.052     2.301     2.372
    77   1 H        0.926     0.050     2.323     2.383
    78   1 H        0.926     0.049     2.336     2.390
    79   1 H        0.926     0.052     2.298     2.370
    80   1 H        0.926     0.050     2.323     2.383
    81   1 H        0.926     0.042     2.426     2.436

molecular dipole:
                 x           y           z       tot (Debye)
 q only:        7.618      -0.189       0.156
   full:        7.220      -0.185       0.142      18.362

 projected vibrational frequencies (cm⁻¹)
eigval :       -0.00    -0.00    -0.00     0.00     0.00     0.00
eigval :        3.11     8.30    10.88    14.73    23.95    26.25
eigval :       30.47    40.27    45.30    46.76    54.57    64.89
eigval :       68.63    70.14    81.73    95.64   108.99   115.17
eigval :      118.40   124.01   141.02   151.54   158.89   198.15
eigval :      199.52   204.16   221.97   236.92   245.40   248.45
eigval :      254.05   263.46   270.83   283.65   290.63   300.95
eigval :      311.84   355.14   360.23   375.80   377.02   381.34
eigval :      382.96   387.11   390.88   395.02   402.43   414.95
eigval :      419.88   427.68   430.73   432.77   436.25   449.09
eigval :      454.45   463.33   473.08   492.38   503.89   504.62
eigval :      506.67   512.15   526.03   526.78   538.66   546.95
eigval :      549.02   559.61   568.67   578.55   587.18   591.24
eigval :      596.59   603.82   604.29   614.74   615.45   644.03
eigval :      653.65   664.93   665.93   668.40   669.23   669.54
eigval :      687.03   691.63   697.46   699.37   719.79   726.26
eigval :      773.54   777.00   778.99   779.43   788.37   796.99
eigval :      798.54   801.46   812.70   816.40   832.92   854.32
eigval :      854.74   863.59   864.95   866.82   868.28   869.84
eigval :      870.59   873.90   895.56   899.28   900.90   901.85
eigval :      902.05   902.61   911.87   913.05   914.52   916.52
eigval :      916.97   918.18   918.76   920.32   920.56   926.13
eigval :      926.77   958.14   959.96  1005.06  1008.21  1024.49
eigval :     1067.65  1085.46  1085.62  1086.74  1088.93  1104.03
eigval :     1109.99  1110.35  1117.36  1118.97  1128.72  1131.40
eigval :     1139.36  1165.82  1168.52  1172.49  1173.20  1175.14
eigval :     1179.01  1182.04  1186.78  1192.26  1202.89  1203.25
eigval :     1212.68  1218.93  1229.00  1237.32  1238.35  1239.69
eigval :     1253.22  1254.45  1255.39  1260.34  1262.98  1279.89
eigval :     1298.88  1307.41  1308.22  1308.77  1310.00  1311.46
eigval :     1312.99  1316.83  1322.55  1323.95  1339.32  1343.23
eigval :     1347.74  1393.34  1399.67  1402.84  1407.06  1418.70
eigval :     1419.26  1439.77  1439.98  1451.48  1452.74  1461.89
eigval :     1469.36  1474.78  1477.53  1487.57  1513.73  1537.04
eigval :     1540.36  1546.40  1558.85  1559.68  1566.92  1567.28
eigval :     1572.33  1575.76  1576.98  1579.21  1587.11  1589.90
eigval :     3084.85  3085.20  3086.08  3086.56  3093.30  3093.62
eigval :     3093.70  3096.10  3097.34  3097.60  3097.73  3098.38
eigval :     3101.16  3101.21  3101.52  3102.52  3103.75  3104.56
eigval :     3104.63  3109.17  3109.46  3111.55  3112.03  3113.13
eigval :     3113.51  3115.87  3117.57

   temp. (K)  partition function   enthalpy   heat capacity  entropy
                                   cal/mol     cal/K/mol   cal/K/mol   J/K/mol
 298.15  VIB  0.682E+21            25071.435    156.909    157.881
         ROT  0.146E+09              888.752      2.981     40.340
         INT  0.995E+29            25960.187    159.890    198.221
         TR   0.184E+29             1481.254      4.968     45.551
         TOT                       27441.4411   164.8585   243.7721  1019.9424

       T/K    H(0)-H(T)+PV         H(T)/Eh          T*S/Eh         G(T)/Eh
   ------------------------------------------------------------------------
    298.15    0.437307E-01    0.629226E+00    0.115824E+00    0.513402E+00
   ------------------------------------------------------------------------

         :::::::::::::::::::::::::::::::::::::::::::::::::::::
         ::                  THERMODYNAMIC                  ::
         :::::::::::::::::::::::::::::::::::::::::::::::::::::
         :: total free energy        -143.721168171237 Eh   ::
         ::.................................................::
         :: total energy             -144.234569972490 Eh   ::
         :: zero point energy           0.585495063286 Eh   ::
         :: G(RRHO) w/o ZPVE           -0.072093262033 Eh   ::
         :: G(RRHO) contrib.            0.513401801253 Eh   ::
         :::::::::::::::::::::::::::::::::::::::::::::::::::::

           -------------------------------------------------
          | TOTAL ENERGY             -144.234569972490 Eh   |
          | TOTAL ENTHALPY           -143.605344189307 Eh   |
          | TOTAL FREE ENERGY        -143.721168171237 Eh   |
          | GRADIENT NORM               0.000078080489 Eh/α |
          | HOMO-LUMO GAP               0.734971694000 eV   |
           -------------------------------------------------

 * finished run on 2025/07/16 at 18:59:33.879
