   * xtb version 6.7.1 (edcfbbe) compiled by 'albert@albert-system' on 2024-07-22

   ID    Z sym.   atoms
    1    9 F      1, 3, 4
    2    6 C      2, 5-8, 10-14, 16-21, 23-35, 37-42, 44-51, 53, 54
    3    7 N      9, 15, 36, 52
    4    8 O      22, 43
    5    1 H      55-81

          program call               : xtb data2507/toluene/TFM-QP/TFM-QP_toluene_S0_finalOpt.xtbopt.xyz --gfn 2 --uhf 2 --gbsa toluene --ohess vtight --parallel 40 --molden --ceasefiles --namespace data2507/toluene/TFM-QP/TFM-QP_toluene_T1_preOpt
      * Solvation model:               GBSA
        Solvent                        toluene
        Solvent mass                       9.2140E+01 g/mol
          :  Hamiltonian                  GFN2-xTB          :
 * total energy  :  -144.2241251 Eh     change       -0.4852259E-07 Eh
 * total energy  :  -144.2275037 Eh     change       -0.3378573E-02 Eh
 * total energy  :  -144.2284670 Eh     change       -0.9633131E-03 Eh
 * total energy  :  -144.2285589 Eh     change       -0.9182261E-04 Eh
 * total energy  :  -144.2285950 Eh     change       -0.3615072E-04 Eh
 * total energy  :  -144.2286071 Eh     change       -0.1214307E-04 Eh
 * total energy  :  -144.2286234 Eh     change       -0.1627893E-04 Eh
 * total energy  :  -144.2286477 Eh     change       -0.2429367E-04 Eh
 * total energy  :  -144.2286655 Eh     change       -0.1774421E-04 Eh
 * total energy  :  -144.2286934 Eh     change       -0.2790851E-04 Eh
 * total energy  :  -144.2346016 Eh     change       -0.1693417E-05 Eh
 * total energy  :  -144.2346028 Eh     change       -0.1235705E-05 Eh
 * total energy  :  -144.2346038 Eh     change       -0.9709882E-06 Eh
 * total energy  :  -144.2346047 Eh     change       -0.8646095E-06 Eh
 * total energy  :  -144.2346056 Eh     change       -0.8775432E-06 Eh
 * total energy  :  -144.2346064 Eh     change       -0.8488987E-06 Eh
 * total energy  :  -144.2346071 Eh     change       -0.6952912E-06 Eh
 * total energy  :  -144.2346077 Eh     change       -0.5570588E-06 Eh
 * total energy  :  -144.2346077 Eh     change       -0.1881432E-08 Eh
   *** GEOMETRY OPTIMIZATION CONVERGED AFTER 185 ITERATIONS ***

 final structure:
================
81
 xtb: 6.7.1 (edcfbbe)
F           -8.82934165198637       -1.65489522514822        0.30530457533759
C           -8.59947597624589       -0.45006392259779       -0.27673900501456
F           -8.76961321997894       -0.67509747699313       -1.60285689621929
F           -9.63442863280703        0.32595802669247        0.09109443160555
C           -7.26243486002827        0.11447230678337        0.05396518636212
C           -7.13920955972301        1.30394845715287        0.75981149743514
C           -5.88421335717118        1.80715398532767        1.04847968705334
C           -4.72816904636774        1.13312581122009        0.63572658129255
N           -3.51263569852539        1.63572953844064        0.85061080468983
C           -2.42041331983821        0.97012908078281        0.45459587404656
C           -1.13203999261216        1.63462854507161        0.62071501886797
C           -0.88414837612248        2.38987557194164        1.76989934125417
C            0.33411413212959        3.00859487656460        1.95774026080480
C            1.32663867438007        2.90042234396380        0.98746234577104
N            2.58927685855565        3.51148294981789        1.18938180143401
C            2.70056309891380        4.89573045061151        1.25896038803803
C            1.61395480310093        5.73948280323480        1.04336423933611
C            1.76194870713702        7.11349651240126        1.12035454003871
C            2.99591880406746        7.67201440957867        1.40566953941267
C            4.09383029663245        6.84906828672763        1.59826205359493
C            3.95400395965961        5.47379615479547        1.51997041274643
O            5.08345503656766        4.71879918148012        1.69481971338392
C            4.96304399288928        3.35820061414721        1.59211803410828
C            6.11652160433575        2.60868538481893        1.75170154528893
C            6.06333559196107        1.22582118471822        1.68407081963112
C            4.84945209841305        0.59657734341568        1.47020301806885
C            3.69292050435006        1.33933069195361        1.30703354889206
C            3.72959238246075        2.73089651641796        1.34874979437725
C            1.07270035894649        2.19036345821982       -0.18375050166283
C           -0.14273376291895        1.56645915722697       -0.36515995491467
C           -2.55087744322421       -0.30973703659327       -0.11825545976094
C           -1.39574027109773       -1.16724326249802       -0.38788590872815
C           -0.35779682050545       -1.28801834501075        0.53917962171020
C            0.73005912936450       -2.09147059394518        0.27171833035917
C            0.80096025463555       -2.79347490140667       -0.92896277116737
N            1.93669058497572       -3.59054582246152       -1.21761538201053
C            3.17509433236560       -2.99397025115220       -1.43195558572809
C            3.35623412732438       -1.61417523051380       -1.38175049023186
C            4.60383728443953       -1.05699665415128       -1.60383174381296
C            5.69273351230922       -1.86356244055683       -1.88439226618842
C            5.52786017858337       -3.23729589838692       -1.95956460514808
C            4.28210086872552       -3.80149263391095       -1.74190355627900
O            4.18448892026111       -5.16324207414625       -1.85561784842776
C            2.96044867402819       -5.73587115266111       -1.63072222379502
C            2.88010615566705       -7.11482862964177       -1.72493178944017
C            1.67744305558409       -7.75989105085799       -1.48499985690696
C            0.56025135348951       -7.02047178765652       -1.13736194072425
C            0.63250586869604       -5.64130748080666       -1.04315019887748
C            1.82619372063542       -4.97405170344609       -1.30469487260258
C           -0.24580740551116       -2.70934381673256       -1.84200562018920
C           -1.33740056844504       -1.91030813304957       -1.56749841704643
N           -3.75617860687850       -0.80364968736031       -0.39526992697480
C           -4.86197245053250       -0.11697984896092       -0.06836831478396
C           -6.13348913540840       -0.60003006509174       -0.35917555011836
H           -8.02273574016977        1.83624378544324        1.07684949629044
H           -5.77260904285921        2.73585688890705        1.58469081730543
H           -1.65750895814680        2.46670122689423        2.51845071794797
H            0.52579793975743        3.57261679242375        2.85858170992331
H            0.65094369936780        5.31394768051117        0.81026704117327
H            0.90446054804691        7.74642766060565        0.95259034791901
H            3.11142786336777        8.74223029941560        1.46997358855773
H            5.07166411251212        7.25300631985294        1.80733698712279
H            7.04309155953738        3.12995487053993        1.93271826390527
H            6.96556051285169        0.64823451909769        1.80655396387556
H            4.79716692048256       -0.47973023440401        1.42671004037595
H            2.75090452688384        0.84009804859691        1.14953741143334
H            1.82941320330852        2.14320095202881       -0.95255403047039
H           -0.34091992746368        1.03779426351504       -1.28500773314769
H           -0.41809374109857       -0.76116632849694        1.47935031174238
H            1.52654935955584       -2.18941879636660        0.99402457263237
H            2.51201298239294       -0.97790426081092       -1.17149975826483
H            4.72163570895109        0.01378994046992       -1.55314855998486
H            6.66575124429681       -1.43080087819067       -2.05312798286420
H            6.35195292895636       -3.89315685538961       -2.19122872020441
H            3.77221650525415       -7.66296019418449       -1.98319525753927
H            1.62160846748609       -8.83402196812454       -1.56225206815330
H           -0.37706692105749       -7.51435469808828       -0.93337116046475
H           -0.24041997643759       -5.07494434871935       -0.76027131335749
H           -0.19643465865847       -3.26637688167631       -2.76593498043397
H           -2.15235543563243       -1.83805826484120       -2.27119792562360
H           -6.23730826755448       -1.53137001068214       -0.89354263453244

          :  Hamiltonian                  GFN2-xTB          :
         :: gradient norm              0.000053624136 Eh/a0 ::
         :: HOMO-LUMO gap              0.732171960773 eV    ::
         :: SCC energy              -146.497472223170 Eh    ::
         :: -> dispersion             -0.118894094631 Eh    ::
         :: -> Gsolv                  -0.059853279928 Eh    ::
         :: repulsion energy           2.262864560365 Eh    ::

    * Orbital Energies and Occupations

         #    Occupation            Energy/Eh            Energy/eV
      -------------------------------------------------------------
         1        2.0000           -0.8781377             -23.8953
       ...           ...                  ...                  ...
       119        2.0000           -0.4252667             -11.5721
       120        2.0000           -0.4245601             -11.5529
       121        2.0000           -0.4208267             -11.4513
       122        2.0000           -0.4196603             -11.4195
       123        2.0000           -0.4156348             -11.3100
       124        2.0000           -0.4036887             -10.9849
       125        2.0000           -0.4030025             -10.9663
       126        2.0000           -0.3971102             -10.8059
       127        2.0000           -0.3960252             -10.7764
       128        1.8981           -0.3563159              -9.6958
       129        1.6772           -0.3549517              -9.6587
       130        1.4247           -0.3539594              -9.6317
       131        1.0000           -0.2974449              -8.0939 (HOMO)
       132        0.0000           -0.2705381              -7.3617 (LUMO)
       133                         -0.2522155              -6.8631
       134                         -0.2513026              -6.8383
       135                         -0.2441919              -6.6448
       136                         -0.2411987              -6.5634
       137                         -0.2405963              -6.5470
       138                         -0.2404176              -6.5421
       139                         -0.2357616              -6.4154
       140                         -0.2324992              -6.3266
       141                         -0.2253174              -6.1312
       142                         -0.2247071              -6.1146
       ...                                ...                  ...
       243                          0.6816384              18.5483
      -------------------------------------------------------------
                  HL-Gap            0.0269068 Eh            0.7322 eV

     #   Z          covCN         q      C6AA      α(0)
     1   9 F        0.791    -0.232    11.567     4.018
     2   6 C        3.338     0.483    17.299     6.583
     3   9 F        0.791    -0.230    11.550     4.015
     4   9 F        0.791    -0.221    11.451     3.997
     5   6 C        2.972    -0.054    29.329     8.883
     6   6 C        2.914    -0.037    28.918     8.818
     7   6 C        2.919    -0.066    29.645     8.929
     8   6 C        2.941     0.090    26.003     8.363
     9   7 N        1.850    -0.258    27.570     7.782
    10   6 C        2.935     0.068    26.477     8.439
    11   6 C        2.977     0.007    27.860     8.658
    12   6 C        2.924    -0.028    28.699     8.785
    13   6 C        2.919    -0.038    28.940     8.822
    14   6 C        2.922     0.055    26.762     8.484
    15   7 N        2.751    -0.041    22.037     6.972
    16   6 C        2.923     0.044    27.015     8.523
    17   6 C        2.922    -0.054    29.348     8.884
    18   6 C        2.918    -0.033    28.821     8.804
    19   6 C        2.919    -0.034    28.841     8.807
    20   6 C        2.918    -0.054    29.338     8.882
    21   6 C        2.884     0.127    25.207     8.231
    22   8 O        1.709    -0.245    18.066     5.739
    23   6 C        2.884     0.128    25.201     8.230
    24   6 C        2.918    -0.053    29.329     8.881
    25   6 C        2.919    -0.034    28.840     8.807
    26   6 C        2.918    -0.033    28.811     8.802
    27   6 C        2.922    -0.055    29.374     8.888
    28   6 C        2.923     0.044    27.024     8.525
    29   6 C        2.919    -0.039    28.979     8.828
    30   6 C        2.922    -0.034    28.843     8.807
    31   6 C        2.935     0.075    26.321     8.414
    32   6 C        2.978     0.008    27.828     8.653
    33   6 C        2.923    -0.032    28.796     8.800
    34   6 C        2.919    -0.039    28.965     8.826
    35   6 C        2.922     0.057    26.716     8.476
    36   7 N        2.752    -0.042    22.056     6.975
    37   6 C        2.923     0.043    27.027     8.526
    38   6 C        2.922    -0.055    29.376     8.888
    39   6 C        2.918    -0.033    28.812     8.802
    40   6 C        2.919    -0.034    28.844     8.807
    41   6 C        2.918    -0.053    29.329     8.881
    42   6 C        2.884     0.128    25.202     8.230
    43   8 O        1.709    -0.246    18.073     5.740
    44   6 C        2.884     0.127    25.208     8.231
    45   6 C        2.918    -0.054    29.339     8.882
    46   6 C        2.919    -0.034    28.844     8.807
    47   6 C        2.918    -0.033    28.823     8.804
    48   6 C        2.922    -0.054    29.354     8.885
    49   6 C        2.923     0.044    27.017     8.524
    50   6 C        2.919    -0.037    28.927     8.820
    51   6 C        2.924    -0.027    28.669     8.781
    52   7 N        1.850    -0.263    27.684     7.798
    53   6 C        2.943     0.086    26.075     8.375
    54   6 C        2.921    -0.065    29.624     8.926
    55   1 H        0.926     0.045     2.383     2.414
    56   1 H        0.926     0.051     2.306     2.375
    57   1 H        0.926     0.050     2.316     2.380
    58   1 H        0.926     0.050     2.323     2.384
    59   1 H        0.926     0.049     2.329     2.387
    60   1 H        0.926     0.050     2.318     2.381
    61   1 H        0.926     0.052     2.300     2.371
    62   1 H        0.926     0.058     2.224     2.332
    63   1 H        0.926     0.058     2.223     2.332
    64   1 H        0.926     0.053     2.284     2.363
    65   1 H        0.926     0.051     2.310     2.377
    66   1 H        0.926     0.050     2.319     2.381
    67   1 H        0.926     0.051     2.311     2.377
    68   1 H        0.926     0.038     2.471     2.458
    69   1 H        0.926     0.041     2.440     2.443
    70   1 H        0.926     0.052     2.289     2.366
    71   1 H        0.926     0.049     2.326     2.385
    72   1 H        0.926     0.051     2.310     2.377
    73   1 H        0.926     0.053     2.284     2.363
    74   1 H        0.926     0.058     2.224     2.332
    75   1 H        0.926     0.058     2.223     2.331
    76   1 H        0.926     0.051     2.301     2.372
    77   1 H        0.926     0.050     2.324     2.384
    78   1 H        0.926     0.048     2.341     2.392
    79   1 H        0.926     0.051     2.307     2.375
    80   1 H        0.926     0.050     2.322     2.383
    81   1 H        0.926     0.042     2.428     2.437

molecular dipole:
                 x           y           z       tot (Debye)
 q only:        7.591       0.377       0.235
   full:        7.189       0.353       0.217      18.303

 projected vibrational frequencies (cm⁻¹)
eigval :       -0.00     0.00     0.00     0.00     0.00     0.00
eigval :        7.03    11.69    13.71    15.82    21.94    25.92
eigval :       33.92    39.93    44.65    46.95    55.43    62.50
eigval :       65.76    69.27    77.87    94.09   108.84   115.51
eigval :      119.16   124.96   141.50   150.18   157.91   197.70
eigval :      199.22   203.65   222.54   236.94   245.74   249.44
eigval :      255.04   263.28   271.08   283.69   291.37   300.97
eigval :      311.62   355.71   357.57   374.28   375.45   381.04
eigval :      383.37   387.11   389.75   394.54   402.70   414.72
eigval :      419.22   427.70   430.64   432.50   436.66   449.20
eigval :      454.23   462.95   474.79   491.90   504.03   504.80
eigval :      506.63   512.01   526.40   527.06   538.33   547.39
eigval :      548.12   559.20   567.90   578.81   587.02   590.96
eigval :      597.56   603.76   605.91   614.67   615.37   643.35
eigval :      653.43   664.24   665.39   667.83   668.60   669.69
eigval :      686.51   691.81   697.35   700.60   719.94   726.14
eigval :      776.54   777.97   778.66   779.28   786.65   796.95
eigval :      798.43   798.67   812.12   815.84   832.81   854.48
eigval :      854.90   862.73   864.66   868.35   868.67   870.49
eigval :      871.33   879.65   895.17   900.34   901.35   901.79
eigval :      902.86   903.37   911.65   913.43   915.92   916.39
eigval :      917.00   917.62   918.56   920.05   920.37   924.85
eigval :      926.94   958.85   959.80  1005.62  1007.98  1024.11
eigval :     1067.14  1085.67  1086.51  1087.66  1089.75  1103.72
eigval :     1110.10  1110.59  1117.58  1119.17  1127.92  1130.19
eigval :     1138.44  1166.35  1168.88  1172.57  1173.34  1173.69
eigval :     1179.42  1181.50  1187.52  1191.31  1203.10  1203.75
eigval :     1212.64  1219.10  1228.05  1238.04  1238.97  1239.76
eigval :     1250.98  1254.69  1256.08  1259.75  1262.32  1280.56
eigval :     1297.99  1307.80  1308.01  1308.56  1310.15  1311.19
eigval :     1312.64  1316.47  1322.40  1323.76  1339.27  1343.19
eigval :     1347.58  1392.63  1399.73  1402.86  1406.88  1418.69
eigval :     1419.21  1439.47  1439.78  1451.79  1453.12  1462.00
eigval :     1469.42  1474.54  1476.86  1487.81  1512.94  1537.01
eigval :     1540.47  1546.18  1559.30  1559.79  1566.76  1567.34
eigval :     1572.37  1575.78  1577.04  1579.05  1587.15  1589.87
eigval :     3084.88  3085.54  3086.22  3086.82  3093.11  3093.80
eigval :     3094.85  3096.03  3097.03  3097.19  3097.47  3097.85
eigval :     3101.00  3101.23  3101.36  3102.27  3103.68  3104.30
eigval :     3104.90  3109.58  3110.47  3111.57  3111.93  3113.50
eigval :     3114.31  3115.75  3117.30

   temp. (K)  partition function   enthalpy   heat capacity  entropy
                                   cal/mol     cal/K/mol   cal/K/mol   J/K/mol
 298.15  VIB  0.185E+21            25070.347    156.868    156.677
         ROT  0.149E+09              888.752      2.981     40.378
         INT  0.275E+29            25959.100    159.849    197.055
         TR   0.184E+29             1481.254      4.968     45.551
         TOT                       27440.3534   164.8175   242.6062  1015.0644

       T/K    H(0)-H(T)+PV         H(T)/Eh          T*S/Eh         G(T)/Eh
   ------------------------------------------------------------------------
    298.15    0.437290E-01    0.629224E+00    0.115270E+00    0.513954E+00
   ------------------------------------------------------------------------

         :::::::::::::::::::::::::::::::::::::::::::::::::::::
         ::                  THERMODYNAMIC                  ::
         :::::::::::::::::::::::::::::::::::::::::::::::::::::
         :: total free energy        -143.720654074164 Eh   ::
         ::.................................................::
         :: total energy             -144.234607666370 Eh   ::
         :: zero point energy           0.585494651029 Eh   ::
         :: G(RRHO) w/o ZPVE           -0.071541058823 Eh   ::
         :: G(RRHO) contrib.            0.513953592206 Eh   ::
         :::::::::::::::::::::::::::::::::::::::::::::::::::::

           -------------------------------------------------
          | TOTAL ENERGY             -144.234607666370 Eh   |
          | TOTAL ENTHALPY           -143.605384028680 Eh   |
          | TOTAL FREE ENERGY        -143.720654074164 Eh   |
          | GRADIENT NORM               0.000054100851 Eh/α |
          | HOMO-LUMO GAP               0.732170428560 eV   |
           -------------------------------------------------

 * finished run on 2025/07/16 at 18:52:49.452
