   * xtb version 6.7.1 (edcfbbe) compiled by 'albert@albert-system' on 2024-07-22

   ID    Z sym.   atoms
    1    9 F      1, 3, 4
    2    6 C      2, 5-8, 10-14, 16-21, 23-35, 37-42, 44-51, 53, 54
    3    7 N      9, 15, 36, 52
    4    8 O      22, 43
    5    1 H      55-81

          program call               : xtb data2507/toluene/TFM-QP/TFM-QP_toluene_S0_crest.xyz --gfn 2 --gbsa toluene --ohess vtight --parallel 40 --molden --ceasefiles --namespace data2507/toluene/TFM-QP/TFM-QP_toluene_S0_finalOpt
      * Solvation model:               GBSA
        Solvent                        toluene
        Solvent mass                       9.2140E+01 g/mol
          :  Hamiltonian                  GFN2-xTB          :
 * total energy  :  -144.2778291 Eh     change       -0.2097295E-08 Eh
 * total energy  :  -144.2779105 Eh     change       -0.8138794E-04 Eh
 * total energy  :  -144.2779725 Eh     change       -0.6197103E-04 Eh
 * total energy  :  -144.2780034 Eh     change       -0.3092989E-04 Eh
 * total energy  :  -144.2780305 Eh     change       -0.2714681E-04 Eh
 * total energy  :  -144.2780611 Eh     change       -0.3054526E-04 Eh
 * total energy  :  -144.2780770 Eh     change       -0.1588019E-04 Eh
 * total energy  :  -144.2780851 Eh     change       -0.8172289E-05 Eh
 * total energy  :  -144.2781006 Eh     change       -0.1547732E-04 Eh
 * total energy  :  -144.2781143 Eh     change       -0.1364609E-04 Eh
 * total energy  :  -144.2782311 Eh     change       -0.5432493E-06 Eh
 * total energy  :  -144.2782317 Eh     change       -0.6123345E-06 Eh
 * total energy  :  -144.2782323 Eh     change       -0.5126257E-06 Eh
 * total energy  :  -144.2782327 Eh     change       -0.4541027E-06 Eh
 * total energy  :  -144.2782331 Eh     change       -0.3775224E-06 Eh
 * total energy  :  -144.2782333 Eh     change       -0.2558248E-06 Eh
 * total energy  :  -144.2782335 Eh     change       -0.1959686E-06 Eh
 * total energy  :  -144.2782337 Eh     change       -0.1125971E-06 Eh
 * total energy  :  -144.2782337 Eh     change       -0.1899281E-08 Eh
   *** GEOMETRY OPTIMIZATION CONVERGED AFTER 44 ITERATIONS ***

 final structure:
================
81
 xtb: 6.7.1 (edcfbbe)
F           -9.76127445368703       -0.76147974447581        0.70456639382324
C           -9.06588040811794       -0.36514152974273       -0.38277632797852
F           -9.07683083883363       -1.40465213368216       -1.22899219131668
F           -9.81699803038527        0.59520632435378       -0.95928125073992
C           -7.68820248084112        0.11798501320528       -0.03283166123406
C           -7.58592326346771        1.26872251731737        0.77388613849266
C           -6.35617192272836        1.75688046058768        1.11965716446188
C           -5.19169418288086        1.10645521982799        0.66886892836649
N           -3.97598631104193        1.63618353378176        0.93863450119561
C           -2.92329562210417        0.99267916764368        0.51992433332067
C           -1.56589836978028        1.54804998031683        0.65332527930601
C           -0.94136405572347        1.69957060323078        1.88539563246174
C            0.40880610950160        1.99546123341146        1.94774532363459
C            1.14581905384863        2.16386880958903        0.77932615503108
N            2.54711781582816        2.33296963832748        0.82884919179965
C            3.14608369039907        3.44874733930399        0.23831804643460
C            2.40619081538123        4.55675392462246       -0.15682486355810
C            3.02546914246803        5.65646874045423       -0.73147442261806
C            4.39427097554078        5.67106250459244       -0.91108060854585
C            5.15072649631186        4.58601900689636       -0.49127913010965
C            4.53781956889420        3.48951688613713        0.08678353887823
O            5.35567582169008        2.46896248345251        0.51186028511247
C            4.75186583188949        1.36649434783099        1.06584941994748
C            5.58278488254901        0.33352825490390        1.45813534353075
C            5.05261561033550       -0.82846414263447        1.99825623114768
C            3.68457620929537       -0.95003840264010        2.12909745171192
C            2.84813989862311        0.08663525201335        1.74343545268002
C            3.36335387405102        1.26598870308696        1.22183112779675
C            0.49372895154206        2.12532579337976       -0.45084202591726
C           -0.84454305294061        1.80407206407117       -0.51214014204218
C           -3.03899610516039       -0.28991858204860       -0.13280234732763
C           -1.78896704878964       -1.03448663036838       -0.36167614109155
C           -1.03263863398292       -1.40328333311999        0.75007049289115
C            0.23559835863339       -1.91855380792888        0.59443092119483
C            0.78616569425590       -2.04200307998261       -0.67891086738129
N            2.13990873158731       -2.41660998971881       -0.82731882439711
C            3.07715792392945       -1.47887376589287       -1.27551427524118
C            2.70885734652433       -0.23179603368460       -1.76282535734230
C            3.66209470970658        0.67273227423885       -2.20594854223359
C            5.00254602727950        0.34876938291797       -2.16708898673158
C            5.38941910037816       -0.88347744557531       -1.66207895679387
C            4.44267183661835       -1.78553726294965       -1.21350356723449
O            4.91188357637211       -2.97034525185900       -0.70040611096732
C            3.98128499588635       -3.86601234988579       -0.22803590610690
C            4.46100704132509       -5.05062933096063        0.29979520687379
C            3.58085196102084       -6.01829455076887        0.76320186666148
C            2.22054442094692       -5.79791789551923        0.67811700448613
C            1.73515504450912       -4.60952735402877        0.15338774921463
C            2.60414728345907       -3.61765317068401       -0.28512162160678
C            0.00188274795452       -1.75594588045299       -1.79226534361888
C           -1.28214165422954       -1.26511331703110       -1.63475269987762
N           -4.20069150472553       -0.77368412782386       -0.47020585077084
C           -5.30354945475684       -0.07590164306666       -0.11248229496104
C           -6.57607555465806       -0.55444243906111       -0.47307543994457
H           -8.48882217458693        1.75863709866770        1.10472837607684
H           -6.24886433097728        2.64265060020147        1.72502793822484
H           -1.50549733065775        1.54781523329219        2.79303070756535
H            0.90274072495842        2.07627509670942        2.90442953863526
H            1.33756604634226        4.56057503908106       -0.00875178789014
H            2.42597209510307        6.50158575142371       -1.03329220239884
H            4.88160645241438        6.52070013969653       -1.36297567222522
H            6.22397988917762        4.57332952484982       -0.59921563005244
H            6.64579847360831        0.45606572489284        1.32293282097449
H            5.70892796670867       -1.62995899705672        2.29877416193484
H            3.25747850359830       -1.85589028781346        2.53336176335290
H            1.78043244683509       -0.02470476742451        1.83838978974156
H            1.05025726931623        2.31665658311248       -1.35515199489917
H           -1.33646645056091        1.73505526825365       -1.47111519963665
H           -1.43987953508554       -1.27015991625867        1.74145854775203
H            0.82018016719512       -2.19868311864942        1.45694880178470
H            1.66541393836042        0.03689459555951       -1.78587441856439
H            3.34789162376393        1.63506779759954       -2.58229734748261
H            5.74915898614874        1.04638476957048       -2.51251882315514
H            6.42920656914597       -1.16275442605265       -1.59857118218564
H            5.52894160673938       -5.19899122869588        0.33477277061787
H            3.96521549930829       -6.93803965228959        1.17525331672973
H            1.52352998233856       -6.54967858385696        1.01546413238386
H            0.67041178743088       -4.45222947435820        0.07811110114123
H            0.41003800415076       -1.90059139607742       -2.78133037537253
H           -1.88104382101152       -1.02461947360174       -2.50008590927112
H           -6.64643106610494       -1.44440495809007       -1.07870032245107

          :  Hamiltonian                  GFN2-xTB          :
         :: gradient norm              0.000051316506 Eh/a0 ::
         :: HOMO-LUMO gap              0.762163066789 eV    ::
         :: SCC energy              -146.549772047019 Eh    ::
         :: -> dispersion             -0.133888213264 Eh    ::
         :: -> Gsolv                  -0.046405773358 Eh    ::
         :: repulsion energy           2.271538394200 Eh    ::

    * Orbital Energies and Occupations

         #    Occupation            Energy/Eh            Energy/eV
      -------------------------------------------------------------
         1        2.0000           -0.8917571             -24.2659
       ...           ...                  ...                  ...
       118        2.0000           -0.4253957             -11.5756
       119        2.0000           -0.4235833             -11.5263
       120        2.0000           -0.4229791             -11.5098
       121        2.0000           -0.4193450             -11.4110
       122        2.0000           -0.4175122             -11.3611
       123        2.0000           -0.4160760             -11.3220
       124        2.0000           -0.4139027             -11.2629
       125        2.0000           -0.4108932             -11.1810
       126        2.0000           -0.3936225             -10.7110
       127        2.0000           -0.3912882             -10.6475
       128        2.0000           -0.3754579             -10.2167
       129        2.0000           -0.3461539              -9.4193
       130        2.0000           -0.3459848              -9.4147 (HOMO)
       131        0.0000           -0.3179758              -8.6526 (LUMO)
       132                         -0.2826880              -7.6923
       133                         -0.2528538              -6.8805
       134                         -0.2507472              -6.8232
       135                         -0.2461643              -6.6985
       136                         -0.2430141              -6.6128
       137                         -0.2417929              -6.5795
       138                         -0.2414103              -6.5691
       139                         -0.2386867              -6.4950
       140                         -0.2328043              -6.3349
       141                         -0.2309089              -6.2834
       ...                                ...                  ...
       243                          0.6716605              18.2768
      -------------------------------------------------------------
                  HL-Gap            0.0280089 Eh            0.7622 eV

     #   Z          covCN         q      C6AA      α(0)
     1   9 F        0.791    -0.217    11.410     3.990
     2   6 C        3.337     0.487    17.265     6.579
     3   9 F        0.791    -0.210    11.336     3.977
     4   9 F        0.791    -0.216    11.396     3.988
     5   6 C        2.974    -0.023    28.566     8.767
     6   6 C        2.918    -0.023    28.569     8.765
     7   6 C        2.918    -0.032    28.806     8.801
     8   6 C        2.970     0.082    26.173     8.392
     9   7 N        1.843    -0.225    26.753     7.665
    10   6 C        2.961     0.095    25.894     8.347
    11   6 C        2.979     0.001    27.996     8.679
    12   6 C        2.921    -0.026    28.648     8.777
    13   6 C        2.921    -0.039    28.968     8.826
    14   6 C        2.922     0.067    26.499     8.442
    15   7 N        2.750    -0.073    22.656     7.069
    16   6 C        2.923     0.042    27.054     8.530
    17   6 C        2.924    -0.060    29.487     8.905
    18   6 C        2.919    -0.039    28.971     8.827
    19   6 C        2.919    -0.041    29.010     8.832
    20   6 C        2.919    -0.057    29.428     8.896
    21   6 C        2.883     0.123    25.291     8.245
    22   8 O        1.708    -0.269    18.452     5.800
    23   6 C        2.884     0.124    25.282     8.243
    24   6 C        2.920    -0.058    29.433     8.897
    25   6 C        2.919    -0.040    28.987     8.829
    26   6 C        2.919    -0.039    28.972     8.827
    27   6 C        2.925    -0.064    29.601     8.922
    28   6 C        2.923     0.042    27.066     8.532
    29   6 C        2.921    -0.039    28.973     8.827
    30   6 C        2.927    -0.030    28.759     8.794
    31   6 C        2.962     0.094    25.905     8.348
    32   6 C        2.979     0.001    27.998     8.680
    33   6 C        2.927    -0.030    28.760     8.795
    34   6 C        2.921    -0.039    28.972     8.827
    35   6 C        2.922     0.067    26.499     8.442
    36   7 N        2.750    -0.073    22.660     7.070
    37   6 C        2.923     0.042    27.065     8.531
    38   6 C        2.925    -0.064    29.602     8.922
    39   6 C        2.919    -0.039    28.972     8.827
    40   6 C        2.919    -0.040    28.987     8.829
    41   6 C        2.920    -0.058    29.434     8.897
    42   6 C        2.884     0.124    25.283     8.243
    43   8 O        1.708    -0.269    18.454     5.800
    44   6 C        2.883     0.123    25.292     8.245
    45   6 C        2.919    -0.057    29.428     8.896
    46   6 C        2.919    -0.041    29.011     8.833
    47   6 C        2.919    -0.039    28.971     8.826
    48   6 C        2.924    -0.060    29.486     8.905
    49   6 C        2.923     0.042    27.053     8.530
    50   6 C        2.922    -0.039    28.968     8.826
    51   6 C        2.921    -0.026    28.650     8.778
    52   7 N        1.844    -0.227    26.803     7.673
    53   6 C        2.973     0.081    26.184     8.393
    54   6 C        2.918    -0.033    28.831     8.805
    55   1 H        0.926     0.072     2.065     2.247
    56   1 H        0.926     0.083     1.948     2.182
    57   1 H        0.926     0.052     2.293     2.368
    58   1 H        0.926     0.057     2.237     2.339
    59   1 H        0.926     0.041     2.438     2.442
    60   1 H        0.926     0.043     2.415     2.430
    61   1 H        0.926     0.043     2.411     2.428
    62   1 H        0.926     0.048     2.342     2.393
    63   1 H        0.926     0.048     2.342     2.393
    64   1 H        0.926     0.040     2.444     2.445
    65   1 H        0.926     0.034     2.528     2.486
    66   1 H        0.926     0.040     2.451     2.448
    67   1 H        0.926     0.054     2.276     2.359
    68   1 H        0.926     0.041     2.439     2.442
    69   1 H        0.926     0.041     2.436     2.441
    70   1 H        0.926     0.054     2.274     2.358
    71   1 H        0.926     0.040     2.452     2.449
    72   1 H        0.926     0.034     2.528     2.487
    73   1 H        0.926     0.040     2.443     2.444
    74   1 H        0.926     0.048     2.342     2.393
    75   1 H        0.926     0.048     2.342     2.393
    76   1 H        0.926     0.043     2.411     2.428
    77   1 H        0.926     0.042     2.418     2.431
    78   1 H        0.926     0.040     2.443     2.444
    79   1 H        0.926     0.057     2.239     2.340
    80   1 H        0.926     0.051     2.302     2.373
    81   1 H        0.926     0.081     1.966     2.193

molecular dipole:
                 x           y           z       tot (Debye)
 q only:        1.093       0.648       0.449
   full:        0.934       0.610       0.421       3.031

 projected vibrational frequencies (cm⁻¹)
eigval :       -0.00    -0.00    -0.00     0.00     0.00     0.00
eigval :       14.18    16.74    17.89    19.07    21.04    29.83
eigval :       38.54    45.06    48.20    50.07    57.95    62.96
eigval :       67.21    85.11    90.64    99.07   108.18   120.06
eigval :      124.94   126.87   141.36   144.78   162.59   191.89
eigval :      198.88   206.21   224.11   230.72   244.38   253.78
eigval :      256.20   262.99   274.34   281.76   295.96   305.11
eigval :      326.62   352.70   361.02   367.14   375.62   380.74
eigval :      382.62   390.28   393.16   399.77   403.93   415.95
eigval :      420.43   428.98   429.24   431.30   446.88   449.65
eigval :      451.59   457.24   480.83   492.86   502.85   509.10
eigval :      510.23   516.62   523.43   524.14   533.59   551.13
eigval :      554.07   568.05   578.03   583.68   593.13   596.75
eigval :      600.43   608.93   613.51   621.19   629.22   652.77
eigval :      657.91   658.73   660.76   660.92   670.60   686.21
eigval :      691.13   703.43   709.33   729.75   733.22   769.87
eigval :      774.31   778.49   780.22   781.16   798.78   800.29
eigval :      817.11   820.27   826.14   838.53   853.55   853.78
eigval :      859.19   861.54   866.99   868.28   874.12   876.18
eigval :      878.57   893.32   896.24   897.58   897.98   898.86
eigval :      910.16   911.73   913.31   913.52   914.14   915.64
eigval :      916.33   917.02   918.41   923.85   925.69   932.72
eigval :      934.90   972.30   998.25  1007.54  1029.94  1043.35
eigval :     1059.09  1088.03  1088.59  1089.65  1093.55  1093.82
eigval :     1106.44  1106.59  1117.80  1118.81  1126.70  1129.05
eigval :     1145.59  1169.01  1169.39  1173.73  1175.10  1180.16
eigval :     1181.51  1187.42  1188.08  1192.07  1200.36  1200.80
eigval :     1213.38  1217.52  1223.97  1235.73  1242.39  1242.52
eigval :     1254.72  1258.89  1259.76  1263.19  1263.89  1285.07
eigval :     1299.01  1303.67  1304.97  1305.69  1306.36  1315.06
eigval :     1318.61  1334.14  1334.69  1353.30  1354.31  1380.90
eigval :     1397.20  1397.68  1398.48  1422.58  1422.99  1437.24
eigval :     1442.22  1442.50  1469.84  1479.46  1481.77  1482.40
eigval :     1496.66  1503.43  1504.35  1543.05  1545.21  1556.54
eigval :     1557.06  1567.37  1567.47  1579.89  1579.97  1586.24
eigval :     1586.76  1591.16  1591.36  1603.09  1603.17  1604.06
eigval :     3079.50  3079.98  3082.15  3082.75  3086.98  3087.03
eigval :     3087.49  3087.93  3094.77  3095.61  3096.81  3097.36
eigval :     3097.76  3098.13  3099.75  3101.82  3102.14  3103.63
eigval :     3103.66  3107.26  3108.03  3108.22  3108.54  3109.80
eigval :     3112.97  3115.82  3116.66

   temp. (K)  partition function   enthalpy   heat capacity  entropy
                                   cal/mol     cal/K/mol   cal/K/mol   J/K/mol
 298.15  VIB  0.156E+20            24824.739    156.385    153.718
         ROT  0.108E+09              888.752      2.981     39.737
         INT  0.169E+28            25713.492    159.366    193.455
         TR   0.184E+29             1481.254      4.968     45.551
         TOT                       27194.7455   164.3342   239.0062  1000.0018

       T/K    H(0)-H(T)+PV         H(T)/Eh          T*S/Eh         G(T)/Eh
   ------------------------------------------------------------------------
    298.15    0.433376E-01    0.631782E+00    0.113560E+00    0.518222E+00
   ------------------------------------------------------------------------

         :::::::::::::::::::::::::::::::::::::::::::::::::::::
         ::                  THERMODYNAMIC                  ::
         :::::::::::::::::::::::::::::::::::::::::::::::::::::
         :: total free energy        -143.760011647533 Eh   ::
         ::.................................................::
         :: total energy             -144.278233650075 Eh   ::
         :: zero point energy           0.588443963853 Eh   ::
         :: G(RRHO) w/o ZPVE           -0.070221961311 Eh   ::
         :: G(RRHO) contrib.            0.518222002542 Eh   ::
         :::::::::::::::::::::::::::::::::::::::::::::::::::::

           -------------------------------------------------
          | TOTAL ENERGY             -144.278233650075 Eh   |
          | TOTAL ENTHALPY           -143.646452100679 Eh   |
          | TOTAL FREE ENERGY        -143.760011647533 Eh   |
          | GRADIENT NORM               0.000051317581 Eh/α |
          | HOMO-LUMO GAP               0.762162042758 eV   |
           -------------------------------------------------

 * finished run on 2025/07/16 at 18:52:26.490
