   * xtb version 6.7.1 (edcfbbe) compiled by 'albert@albert-system' on 2024-07-22

   ID    Z sym.   atoms
    1    6 C      1-7, 9-19, 21-26
    2    8 O      8, 20
    3    1 H      27-50

          program call               : xtb data2507/gas/P4CzCN–BCz/P4CzCN–BCz_gas_T1_crest.xyz --gfn 2 --spinpol --tblite --uhf 2 --ohess vtight --parallel 40 --molden --ceasefiles --namespace data2507/gas/P4CzCN–BCz/P4CzCN–BCz_gas_T1_finalOpt
 * total energy  :   -71.6326472 Eh     change        0.2291642E-08 Eh
 * total energy  :   -71.6327262 Eh     change       -0.7898318E-04 Eh
 * total energy  :   -71.6327433 Eh     change       -0.1712677E-04 Eh
 * total energy  :   -71.6327456 Eh     change       -0.2295998E-05 Eh
 * total energy  :   -71.6327467 Eh     change       -0.1138464E-05 Eh
 * total energy  :   -71.6327477 Eh     change       -0.9724380E-06 Eh
 * total energy  :   -71.6327483 Eh     change       -0.6340605E-06 Eh
 * total energy  :   -71.6327485 Eh     change       -0.1379037E-06 Eh
 * total energy  :   -71.6327489 Eh     change       -0.3958830E-06 Eh
 * total energy  :   -71.6327494 Eh     change       -0.5312593E-06 Eh
 * total energy  :   -71.6327526 Eh     change       -0.9593852E-06 Eh
 * total energy  :   -71.6327536 Eh     change       -0.9873972E-06 Eh
 * total energy  :   -71.6327544 Eh     change       -0.7893785E-06 Eh
 * total energy  :   -71.6327550 Eh     change       -0.5407850E-06 Eh
 * total energy  :   -71.6327553 Eh     change       -0.3106011E-06 Eh
 * total energy  :   -71.6327556 Eh     change       -0.3038120E-06 Eh
 * total energy  :   -71.6327558 Eh     change       -0.2388837E-06 Eh
 * total energy  :   -71.6327558 Eh     change        0.5779100E-08 Eh
 * total energy  :   -71.6327558 Eh     change       -0.8263214E-08 Eh
   *** GEOMETRY OPTIMIZATION CONVERGED AFTER 23 ITERATIONS ***

 final structure:
================
50
 xtb: 6.7.1 (edcfbbe)
C           -7.49240745122638       -2.15799246236007       -0.64279351159689
C           -6.55289446455826       -1.72518579463640        0.36270675050828
C           -5.62930354353717       -0.69079931471336        0.20001538089582
C           -4.74227982043836       -0.32296258342472        1.24208446282054
C           -3.84118040040622        0.69818870610647        1.07727450394206
C           -3.76563591059514        1.39782019894254       -0.12723540556765
C           -2.78460136904593        2.52848292975776       -0.30270896974809
O           -1.65032013898143        2.45471990727958        0.53083703201638
C           -0.74802173031720        1.45142012706108        0.32224380365961
C           -0.86707808639522        0.44674225207222       -0.62676043330299
C            0.12452031725145       -0.51488261785948       -0.74964601574131
C            1.25093167478017       -0.50226801690169        0.05582674266845
C            2.35189891627490       -1.54818445432317       -0.01680435123749
C            2.28063933422637       -2.40862603078521       -1.28660402725114
C            2.17919447367637       -2.46853574873184        1.20006532104708
C            3.69549418933197       -0.83650661678278       -0.03800041201536
C            4.78189409778991       -1.22740105798327        0.73339351169035
C            5.99359456332756       -0.56740027594576        0.65092655596586
C            6.14739888037916        0.50619851542287       -0.21658404300818
O            7.35605257558721        1.13381747849914       -0.26989224069478
C            5.07019369237335        0.90407663638648       -0.99846471458230
C            3.86477119125464        0.23686331257372       -0.90651534130401
C            1.35476221329046        0.50787486465462        1.01103696875500
C            0.37848632899589        1.46859519508125        1.14535931109906
C           -4.63007295927233        1.04932887436994       -1.16708993963122
C           -5.54135032315617        0.03647465300912       -1.01458447101258
H           -7.24962838893472       -2.95634504066384       -1.32289602609842
H           -8.48537061358136       -1.74480977403890       -0.68879333842039
H           -6.56707625592642       -2.24129810879700        1.31867198952236
H           -4.78703789580788       -0.85956543214881        2.17867282686217
H           -3.17304876285716        0.96816250195753        1.88222112704284
H           -3.26396187464202        3.47398240861476       -0.01816729039885
H           -2.48306225061383        2.60753692516683       -1.35766559136195
H           -1.73020596516406        0.38922075426788       -1.27157843861254
H           -0.00679176834601       -1.28020598305093       -1.49814565776441
H            2.28054388886452       -1.78685945918511       -2.17843101625489
H            1.38983977385033       -3.03244832941221       -1.28504284181291
H            3.15171089197026       -3.06003514235335       -1.32768922251252
H            2.35084188419656       -1.92560126737958        2.12599672299388
H            1.16113600030673       -2.85339646935430        1.21611317371021
H            2.86072584017422       -3.31447776224541        1.14958021479794
H            4.69828177582799       -2.05686644314105        1.41705963385887
H            6.83415524118232       -0.87191189577384        1.25428832520366
H            7.31720460595545        1.85656010152253       -0.90752785762769
H            5.17780483770233        1.73936477255133       -1.67883628113091
H            3.03442257078840        0.56404849367843       -1.51532695697225
H            2.22402232868874        0.54526811531815        1.65146506932068
H            0.46435165619507        2.25124655522615        1.88293174733852
H           -4.57517323234564        1.58927596022401       -2.10284459392479
H           -6.20933552959001       -0.23041486415453       -1.82057161933126

 projected vibrational frequencies (cm⁻¹)
eigval :       -0.00    -0.00    -0.00     0.00     0.00     0.00
eigval :       11.74    16.38    25.91    32.72    42.18    65.18
eigval :       78.18    86.02   128.49   148.09   161.53   173.68
eigval :      196.86   205.84   232.78   258.82   263.59   265.60
eigval :      290.74   296.96   315.76   320.68   333.20   344.00
eigval :      369.68   373.06   380.72   383.94   391.95   397.09
eigval :      421.00   426.27   453.56   464.76   477.43   510.74
eigval :      526.58   541.84   547.87   581.72   603.26   612.36
eigval :      630.22   643.44   649.34   659.26   684.59   695.18
eigval :      750.65   765.04   793.90   806.34   810.56   827.94
eigval :      842.34   860.44   863.10   863.97   865.08   901.13
eigval :      904.56   906.24   909.29   920.43   921.55   925.23
eigval :      954.88   960.83   980.22   996.32  1007.88  1011.82
eigval :     1014.45  1068.60  1110.55  1127.72  1129.61  1133.08
eigval :     1136.86  1147.17  1151.95  1171.06  1179.74  1193.02
eigval :     1195.02  1201.30  1215.00  1224.81  1243.60  1248.31
eigval :     1269.89  1275.05  1283.73  1286.44  1293.09  1306.91
eigval :     1335.40  1338.36  1347.01  1348.49  1374.30  1396.01
eigval :     1410.92  1413.39  1418.24  1424.99  1449.88  1455.22
eigval :     1487.05  1493.32  1499.93  1502.77  1509.90  1511.33
eigval :     1519.12  1571.56  1579.49  1587.47  1611.59  1614.69
eigval :     2868.87  2917.17  2971.73  3021.99  3025.14  3028.27
eigval :     3035.04  3040.24  3042.41  3050.71  3061.29  3074.67
eigval :     3075.67  3079.62  3080.68  3082.97  3088.60  3094.78
eigval :     3095.65  3100.78  3102.42  3107.46  3112.09  3523.96

   temp. (K)  partition function   enthalpy   heat capacity  entropy
                                   cal/mol     cal/K/mol   cal/K/mol   J/K/mol
 298.15  VIB  0.282E+11            13867.118     87.937     84.630
         ROT  0.162E+08              888.752      2.981     35.969
         INT  0.456E+18            14755.870     90.918    120.599
         TR   0.618E+28             1481.254      4.968     43.385
         TOT                       16237.1239    95.8863   163.9838   686.1082

       T/K    H(0)-H(T)+PV         H(T)/Eh          T*S/Eh         G(T)/Eh
   ------------------------------------------------------------------------
    298.15    0.258755E-01    0.425831E+00    0.779140E-01    0.347917E+00
   ------------------------------------------------------------------------

         :::::::::::::::::::::::::::::::::::::::::::::::::::::
         ::                  THERMODYNAMIC                  ::
         :::::::::::::::::::::::::::::::::::::::::::::::::::::
         :: total free energy         -71.284838949389 Eh   ::
         ::.................................................::
         :: total energy              -71.632755811113 Eh   ::
         :: zero point energy           0.399955351905 Eh   ::
         :: G(RRHO) w/o ZPVE           -0.052038490181 Eh   ::
         :: G(RRHO) contrib.            0.347916861724 Eh   ::
         :::::::::::::::::::::::::::::::::::::::::::::::::::::

           -------------------------------------------------
          | TOTAL ENERGY              -71.632755811113 Eh   |
          | TOTAL ENTHALPY            -71.206924955247 Eh   |
          | TOTAL FREE ENERGY         -71.284838949389 Eh   |
          | GRADIENT NORM               0.000058242329 Eh/α |
           -------------------------------------------------

 * finished run on 2025/08/30 at 13:33:21.094
