   * xtb version 6.7.1 (edcfbbe) compiled by 'albert@albert-system' on 2024-07-22

   ID    Z sym.   atoms
    1    6 C      1-7, 9-19, 21-26
    2    8 O      8, 20
    3    1 H      27-50

          program call               : xtb data2507/gas/P4CzCN–BCz/P4CzCN–BCz_gas_S0_crest.xyz --gfn 2 --ohess vtight --parallel 40 --molden --ceasefiles --namespace data2507/gas/P4CzCN–BCz/P4CzCN–BCz_gas_S0_finalOpt
          :  Hamiltonian                  GFN2-xTB          :
 * total energy  :   -71.7283639 Eh     change       -0.2015526E-09 Eh
 * total energy  :   -71.7283659 Eh     change       -0.2063453E-05 Eh
 * total energy  :   -71.7283672 Eh     change       -0.1273025E-05 Eh
 * total energy  :   -71.7283697 Eh     change       -0.2540213E-05 Eh
 * total energy  :   -71.7283732 Eh     change       -0.3477864E-05 Eh
 * total energy  :   -71.7283763 Eh     change       -0.3042807E-05 Eh
 * total energy  :   -71.7283775 Eh     change       -0.1284557E-05 Eh
 * total energy  :   -71.7283786 Eh     change       -0.1045827E-05 Eh
 * total energy  :   -71.7283793 Eh     change       -0.7520900E-06 Eh
 * total energy  :   -71.7283799 Eh     change       -0.5336094E-06 Eh
 * total energy  :   -71.7283818 Eh     change       -0.4100174E-06 Eh
 * total energy  :   -71.7283823 Eh     change       -0.4753139E-06 Eh
 * total energy  :   -71.7283828 Eh     change       -0.5236023E-06 Eh
 * total energy  :   -71.7283833 Eh     change       -0.4707122E-06 Eh
 * total energy  :   -71.7283837 Eh     change       -0.3641951E-06 Eh
 * total energy  :   -71.7283840 Eh     change       -0.3075548E-06 Eh
 * total energy  :   -71.7283844 Eh     change       -0.3706239E-06 Eh
 * total energy  :   -71.7283848 Eh     change       -0.4305163E-06 Eh
 * total energy  :   -71.7283848 Eh     change       -0.2577636E-08 Eh
   *** GEOMETRY OPTIMIZATION CONVERGED AFTER 22 ITERATIONS ***

 final structure:
================
50
 xtb: 6.7.1 (edcfbbe)
C           -7.58115879168299       -2.10212607848041       -0.47616723697176
C           -6.59659081357348       -1.75717170683517        0.34494259124506
C           -5.64036790821217       -0.67353665795267        0.15460496447567
C           -4.74964538726489       -0.36849562914333        1.18479683887970
C           -3.83222629990795        0.65515631958709        1.05825558685557
C           -3.76734944227404        1.39863915448351       -0.11204678715235
C           -2.77902832700252        2.53004889465419       -0.25770599780986
O           -1.64809093177979        2.42990895245471        0.57622052904393
C           -0.74275739005422        1.43565756684358        0.33731263747957
C           -0.85378304262166        0.46592055903689       -0.64826670861883
C            0.14068541236069       -0.48880917439091       -0.79941388477708
C            1.26130274225934       -0.50406317339073        0.01410169908823
C            2.36270793703508       -1.54712922040946       -0.08691655985399
C            2.30640860418608       -2.35639432580373       -1.39068228390891
C            2.17379420180173       -2.51458690841323        1.09042123795957
C            3.70747121660924       -0.83774880956583       -0.06329267433741
C            4.78345334331380       -1.26120918036856        0.70555598624907
C            5.99747095645312       -0.60169352197201        0.66376386279447
C            6.16433575862226        0.50443371324819       -0.15935459228584
O            7.37500033579858        1.13014387963092       -0.17351665522320
C            5.09763933934965        0.93541277545547       -0.93810775630606
C            3.88970249901467        0.26830321631949       -0.88701799902427
C            1.35663998873327        0.47062719765940        1.00631240953243
C            0.37795631224468        1.42459926789119        1.16832554227056
C           -4.64407745899417        1.09782157296661       -1.14812864356244
C           -5.56803368876110        0.08174449183339       -1.01710284105555
H           -8.24213066542956       -2.91955969872575       -0.24417025530096
H           -7.77531203014127       -1.59039063112652       -1.40314295113427
H           -6.46755134156761       -2.31032601243915        1.26768677109059
H           -4.78357973271880       -0.94071480398751        2.10118398723339
H           -3.15409661589955        0.88016117104223        1.86823110215752
H           -3.25757498826239        3.46814566671133        0.04959441914181
H           -2.47530491134099        2.63405235641844       -1.30956095927102
H           -1.71237028788412        0.43023222558135       -1.30070383657386
H            0.01611189824935       -1.22646007005384       -1.57629767428993
H            2.31665460630778       -1.69961963466757       -2.25699847510115
H            1.41586841140228       -2.97963721873938       -1.42450069806156
H            3.17801870845424       -3.00589867462888       -1.44739671504148
H            2.33497348277745       -2.00889287491651        2.03906610145655
H            1.15505412265721       -2.89780562089260        1.07890845759635
H            2.85459677615290       -3.35921219449405        1.01476437025830
H            4.68969497841569       -2.11648763765883        1.35524174238363
H            6.82988850891070       -0.93175395939980        1.26497386319027
H            7.34602415837753        1.87697548972069       -0.78331266723167
H            5.21546767692319        1.79625611471562       -1.58405134105038
H            3.06763858916040        0.62119946167017       -1.49271525635907
H            2.22100419986198        0.48545712544061        1.65422212740836
H            0.45722233899007        2.18011282868137        1.93437985570063
H           -4.59913881377902        1.66800616435471       -2.06600359329200
H           -6.23373828116684       -0.13248718144918       -1.83864002019501

          :  Hamiltonian                  GFN2-xTB          :
         :: gradient norm              0.000039317427 Eh/a0 ::
         :: HOMO-LUMO gap              3.105622355671 eV    ::
         :: SCC energy               -72.937069520322 Eh    ::
         :: -> dispersion             -0.055667599464 Eh    ::
         :: repulsion energy           1.208684731830 Eh    ::

    * Orbital Energies and Occupations

         #    Occupation            Energy/Eh            Energy/eV
      -------------------------------------------------------------
         1        2.0000           -0.7103777             -19.3304
       ...           ...                  ...                  ...
        54        2.0000           -0.4325443             -11.7701
        55        2.0000           -0.4281251             -11.6499
        56        2.0000           -0.4251788             -11.5697
        57        2.0000           -0.4209911             -11.4558
        58        2.0000           -0.4192927             -11.4095
        59        2.0000           -0.4122030             -11.2166
        60        2.0000           -0.4081043             -11.1051
        61        2.0000           -0.4068564             -11.0711
        62        2.0000           -0.4000932             -10.8871
        63        2.0000           -0.3978856             -10.8270
        64        2.0000           -0.3837508             -10.4424
        65        2.0000           -0.3750982             -10.2069
        66        2.0000           -0.3677148             -10.0060 (HOMO)
        67                         -0.2535852              -6.9004 (LUMO)
        68                         -0.2252777              -6.1301
        69                         -0.2189584              -5.9582
        70                         -0.2150383              -5.8515
        71                         -0.2088013              -5.6818
        72                         -0.2053809              -5.5887
        73                         -0.1755769              -4.7777
        74                         -0.0849189              -2.3108
        75                         -0.0841315              -2.2893
        76                         -0.0819792              -2.2308
        77                          0.0324768               0.8837
       ...                                ...                  ...
       128                          0.6817892              18.5524
      -------------------------------------------------------------
                  HL-Gap            0.1141295 Eh            3.1056 eV

     #   Z          covCN         q      C6AA      α(0)
     1   6 C        2.837    -0.086    30.143     8.997
     2   6 C        2.896    -0.030    28.747     8.791
     3   6 C        2.970     0.013    27.719     8.636
     4   6 C        2.928    -0.034    28.852     8.809
     5   6 C        2.920    -0.031    28.763     8.795
     6   6 C        2.968    -0.001    28.047     8.687
     7   6 C        3.699     0.079    19.411     6.301
     8   8 O        1.705    -0.278    18.610     5.824
     9   6 C        2.864     0.141    24.934     8.185
    10   6 C        2.917    -0.068    29.692     8.935
    11   6 C        2.926    -0.041    29.022     8.835
    12   6 C        2.978    -0.000    28.032     8.685
    13   6 C        3.909     0.018    20.215     6.391
    14   6 C        3.763    -0.103    22.509     6.763
    15   6 C        3.763    -0.103    22.519     6.764
    16   6 C        2.979     0.000    28.017     8.682
    17   6 C        2.925    -0.040    28.985     8.829
    18   6 C        2.919    -0.057    29.407     8.893
    19   6 C        2.846     0.142    24.912     8.180
    20   8 O        1.659    -0.396    20.780     6.154
    21   6 C        2.917    -0.071    29.775     8.948
    22   6 C        2.928    -0.035    28.881     8.813
    23   6 C        2.927    -0.035    28.882     8.813
    24   6 C        2.919    -0.057    29.406     8.893
    25   6 C        2.921    -0.041    29.019     8.834
    26   6 C        2.923    -0.033    28.810     8.802
    27   1 H        0.926     0.037     2.483     2.464
    28   1 H        0.926     0.039     2.459     2.452
    29   1 H        0.925     0.035     2.521     2.483
    30   1 H        0.926     0.034     2.534     2.489
    31   1 H        0.926     0.042     2.425     2.435
    32   1 H        0.924     0.056     2.244     2.343
    33   1 H        0.923     0.032     2.557     2.501
    34   1 H        0.926     0.030     2.584     2.514
    35   1 H        0.926     0.036     2.501     2.473
    36   1 H        0.925     0.037     2.487     2.466
    37   1 H        0.925     0.039     2.460     2.453
    38   1 H        0.925     0.036     2.499     2.472
    39   1 H        0.925     0.039     2.467     2.456
    40   1 H        0.925     0.036     2.504     2.474
    41   1 H        0.925     0.039     2.456     2.451
    42   1 H        0.926     0.040     2.442     2.444
    43   1 H        0.926     0.047     2.362     2.403
    44   1 H        0.805     0.297     0.731     1.343
    45   1 H        0.925     0.023     2.690     2.565
    46   1 H        0.926     0.031     2.573     2.509
    47   1 H        0.926     0.034     2.535     2.490
    48   1 H        0.926     0.043     2.404     2.424
    49   1 H        0.925     0.026     2.638     2.540
    50   1 H        0.926     0.038     2.480     2.463

molecular dipole:
                 x           y           z       tot (Debye)
 q only:       -0.486      -0.135      -0.447
   full:       -0.618       0.069      -0.726       2.430

 projected vibrational frequencies (cm⁻¹)
eigval :       -0.00    -0.00    -0.00     0.00     0.00     0.00
eigval :       11.57    15.35    24.93    32.78    33.58    42.45
eigval :       67.55    82.53   103.18   130.72   160.62   175.08
eigval :      203.86   211.69   243.66   260.02   266.95   286.20
eigval :      293.38   298.53   319.95   324.78   343.12   368.78
eigval :      373.14   380.88   384.18   396.30   414.13   426.09
eigval :      440.92   455.75   474.07   501.67   515.81   540.72
eigval :      547.42   577.33   605.88   612.16   614.57   632.29
eigval :      648.83   684.61   694.58   697.18   737.78   758.81
eigval :      806.41   808.14   810.81   827.66   854.80   862.80
eigval :      864.02   864.27   867.43   888.77   901.40   906.39
eigval :      913.21   921.56   925.45   926.14   955.17   960.99
eigval :      983.76  1004.13  1008.16  1011.78  1012.09  1014.65
eigval :     1034.71  1072.63  1110.38  1129.46  1132.78  1146.98
eigval :     1149.31  1151.74  1179.69  1195.13  1196.48  1201.99
eigval :     1204.26  1217.49  1240.19  1246.92  1253.10  1272.14
eigval :     1274.90  1283.11  1286.24  1293.34  1299.37  1324.42
eigval :     1335.27  1338.01  1343.16  1396.54  1411.29  1411.88
eigval :     1413.77  1420.20  1424.69  1452.05  1486.87  1492.61
eigval :     1493.29  1499.84  1503.26  1510.08  1512.19  1573.58
eigval :     1579.69  1587.59  1601.66  1611.93  1614.78  1676.29
eigval :     2873.61  2926.60  3022.37  3025.48  3028.92  3035.41
eigval :     3040.63  3042.56  3044.87  3050.53  3065.57  3072.41
eigval :     3079.69  3082.63  3091.07  3094.51  3096.85  3100.70
eigval :     3102.32  3107.22  3111.01  3111.90  3131.11  3522.80

   temp. (K)  partition function   enthalpy   heat capacity  entropy
                                   cal/mol     cal/K/mol   cal/K/mol   J/K/mol
 298.15  VIB  0.530E+11            13537.465     84.575     83.383
         ROT  0.162E+08              888.752      2.981     35.971
         INT  0.859E+18            14426.218     87.556    119.354
         TR   0.618E+28             1481.254      4.968     43.385
         TOT                       15907.4715    92.5237   162.7392   680.9010

       T/K    H(0)-H(T)+PV         H(T)/Eh          T*S/Eh         G(T)/Eh
   ------------------------------------------------------------------------
    298.15    0.253502E-01    0.430327E+00    0.773227E-01    0.353005E+00
   ------------------------------------------------------------------------

         :::::::::::::::::::::::::::::::::::::::::::::::::::::
         ::                  THERMODYNAMIC                  ::
         :::::::::::::::::::::::::::::::::::::::::::::::::::::
         :: total free energy         -71.375380076166 Eh   ::
         ::.................................................::
         :: total energy              -71.728384788493 Eh   ::
         :: zero point energy           0.404977205910 Eh   ::
         :: G(RRHO) w/o ZPVE           -0.051972493583 Eh   ::
         :: G(RRHO) contrib.            0.353004712327 Eh   ::
         :::::::::::::::::::::::::::::::::::::::::::::::::::::

           -------------------------------------------------
          | TOTAL ENERGY              -71.728384788493 Eh   |
          | TOTAL ENTHALPY            -71.298057413124 Eh   |
          | TOTAL FREE ENERGY         -71.375380076166 Eh   |
          | GRADIENT NORM               0.000039317832 Eh/α |
          | HOMO-LUMO GAP               3.105622434027 eV   |
           -------------------------------------------------

 * finished run on 2025/08/30 at 13:30:41.533
