   * xtb version 6.7.1 (edcfbbe) compiled by 'albert@albert-system' on 2024-07-22

   ID    Z sym.   atoms
    1    6 C      1-7, 9-19, 21-26
    2    8 O      8, 20
    3    1 H      27-50

          program call               : xtb data2507/gas/P4CzCN–BCz/P4CzCN–BCz.xyz --gfn 2 --ohess vtight --parallel 40 --molden --ceasefiles --namespace data2507/gas/P4CzCN–BCz/P4CzCN–BCz_gas_S0_preOpt
          :  Hamiltonian                  GFN2-xTB          :
 * total energy  :   -71.7157266 Eh     change       -0.1817000E-09 Eh
 * total energy  :   -71.7224545 Eh     change       -0.6727888E-02 Eh
 * total energy  :   -71.7236956 Eh     change       -0.1241183E-02 Eh
 * total energy  :   -71.7241007 Eh     change       -0.4050137E-03 Eh
 * total energy  :   -71.7244567 Eh     change       -0.3560931E-03 Eh
 * total energy  :   -71.7245912 Eh     change       -0.1344844E-03 Eh
 * total energy  :   -71.7246924 Eh     change       -0.1011422E-03 Eh
 * total energy  :   -71.7247904 Eh     change       -0.9799109E-04 Eh
 * total energy  :   -71.7248989 Eh     change       -0.1084861E-03 Eh
 * total energy  :   -71.7250123 Eh     change       -0.1134233E-03 Eh
 * total energy  :   -71.7253255 Eh     change       -0.1476064E-06 Eh
 * total energy  :   -71.7253257 Eh     change       -0.1506502E-06 Eh
 * total energy  :   -71.7253259 Eh     change       -0.2034712E-06 Eh
 * total energy  :   -71.7253262 Eh     change       -0.2859400E-06 Eh
 * total energy  :   -71.7253265 Eh     change       -0.2881592E-06 Eh
 * total energy  :   -71.7253266 Eh     change       -0.1900776E-06 Eh
 * total energy  :   -71.7253268 Eh     change       -0.1306416E-06 Eh
 * total energy  :   -71.7253269 Eh     change       -0.1039492E-06 Eh
 * total energy  :   -71.7253269 Eh     change       -0.1599315E-07 Eh
   *** GEOMETRY OPTIMIZATION CONVERGED AFTER 88 ITERATIONS ***

 final structure:
================
50
 xtb: 6.7.1 (edcfbbe)
C           -9.24681552008628       -0.71192716106111       -0.30565481542145
C           -8.07754845940964       -1.34042817946177       -0.33105053442724
C           -6.76201799903221       -0.75028062965099       -0.11703003778198
C           -5.63444759566082       -1.57067741095396       -0.18212298393037
C           -4.36642688475233       -1.06282057744296        0.01638917534617
C           -4.18480636794252        0.28837309814324        0.27833627200928
C           -2.80777290041494        0.84681477615504        0.51832907322742
O           -1.87076418243871        0.12370478424517       -0.24848864296894
C           -0.55277480467646        0.45274627478872       -0.15028588483994
C           -0.03130120005673        1.45581121033652        0.65431155591599
C            1.33503355220797        1.69521470654125        0.67238668965273
C            2.21157378032783        0.95003834036317       -0.09762457484351
C            3.71083506543919        1.19712781177515       -0.14316344851443
C            4.20942598990521        2.08048772102174        1.00978981901281
C            4.00575900705887        1.91822757133749       -1.46645466311784
C            4.42810640178435       -0.13777299041993       -0.02013377884437
C            4.03235296174225       -1.01580370401762        0.98688491733105
C            4.66393515513704       -2.22581554189661        1.17816519301218
C            5.72469233218821       -2.59223106031020        0.35580698821186
O            6.32813256284557       -3.79529420493519        0.56948442961459
C            6.13099573892919       -1.72666972771437       -0.64868977978602
C            5.48876133986619       -0.51312060585595       -0.83003230295568
C            1.67519973289740       -0.05150151593271       -0.90611559076445
C            0.32233153379286       -0.30036863231449       -0.93499912931825
C           -5.29967616302680        1.11532086518771        0.34129225949806
C           -6.56784405395031        0.60555932095073        0.15075351336520
H          -10.16914400749812       -1.24000940855080       -0.47713661607271
H           -9.33908012063565        0.34366082315092       -0.11600290043482
H           -8.06216200717338       -2.40571269371723       -0.52889691874365
H           -5.75862993659534       -2.62431540136579       -0.38969198736134
H           -3.50391481903136       -1.70852980709902       -0.04014908697724
H           -2.56581559465324        0.75939909044436        1.59107483803370
H           -2.78457480369793        1.91274270750397        0.24872384377171
H           -0.67155497104373        2.06352844899274        1.27508167249146
H            1.69979810995157        2.48425087666929        1.31088512696561
H            3.91291295962908        1.66877935961057        1.97120527954158
H            3.82453101188312        3.09361655012812        0.91967822961875
H            5.29655332555958        2.12707619476369        0.98191367138145
H            3.78292557480397        1.27796588417136       -2.31628180336304
H            3.37992383813654        2.80588456305663       -1.53798956647520
H            5.04578413133562        2.23223497215479       -1.51687203200998
H            3.20483999491634       -0.74743464628049        1.62719018956201
H            4.35210388808217       -2.90297981327470        1.95732175083499
H            7.04112844843513       -3.91843623871876       -0.06846054448790
H            6.95544849581633       -2.00147114886377       -1.29475879988570
H            5.83398548581640        0.13358544061636       -1.62085448160689
H            2.33547649373427       -0.65200644730275       -1.51476790048732
H           -0.08876604952788       -1.07751124604927       -1.56000455831016
H           -5.17159889571575        2.16983807567317        0.54262795957086
H           -7.41510957520264        1.27112932539970        0.20608191576670

          :  Hamiltonian                  GFN2-xTB          :
         :: gradient norm              0.000053148725 Eh/a0 ::
         :: HOMO-LUMO gap              3.149072726631 eV    ::
         :: SCC energy               -72.933890712536 Eh    ::
         :: -> dispersion             -0.053909544158 Eh    ::
         :: repulsion energy           1.208563812986 Eh    ::

    * Orbital Energies and Occupations

         #    Occupation            Energy/Eh            Energy/eV
      -------------------------------------------------------------
         1        2.0000           -0.7096019             -19.3093
       ...           ...                  ...                  ...
        54        2.0000           -0.4293347             -11.6828
        55        2.0000           -0.4288125             -11.6686
        56        2.0000           -0.4241541             -11.5418
        57        2.0000           -0.4196209             -11.4185
        58        2.0000           -0.4174797             -11.3602
        59        2.0000           -0.4121322             -11.2147
        60        2.0000           -0.4080176             -11.1027
        61        2.0000           -0.4051350             -11.0243
        62        2.0000           -0.4004095             -10.8957
        63        2.0000           -0.3980407             -10.8312
        64        2.0000           -0.3824729             -10.4076
        65        2.0000           -0.3751063             -10.2072
        66        2.0000           -0.3674053              -9.9976 (HOMO)
        67                         -0.2516790              -6.8485 (LUMO)
        68                         -0.2222253              -6.0471
        69                         -0.2193432              -5.9686
        70                         -0.2154224              -5.8619
        71                         -0.2089616              -5.6861
        72                         -0.2055458              -5.5932
        73                         -0.1732174              -4.7135
        74                         -0.0852443              -2.3196
        75                         -0.0842993              -2.2939
        76                         -0.0792358              -2.1561
        77                          0.0283932               0.7726
       ...                                ...                  ...
       128                          0.6855934              18.6559
      -------------------------------------------------------------
                  HL-Gap            0.1157263 Eh            3.1491 eV

     #   Z          covCN         q      C6AA      α(0)
     1   6 C        2.837    -0.086    30.148     8.998
     2   6 C        2.896    -0.030    28.743     8.790
     3   6 C        2.970     0.013    27.712     8.635
     4   6 C        2.928    -0.034    28.846     8.808
     5   6 C        2.921    -0.030    28.752     8.793
     6   6 C        2.969     0.006    27.895     8.663
     7   6 C        3.699     0.086    19.312     6.285
     8   8 O        1.706    -0.275    18.560     5.817
     9   6 C        2.865     0.140    24.954     8.188
    10   6 C        2.917    -0.070    29.752     8.945
    11   6 C        2.925    -0.041    29.017     8.834
    12   6 C        2.978    -0.001    28.036     8.685
    13   6 C        3.909     0.018    20.214     6.391
    14   6 C        3.763    -0.103    22.512     6.763
    15   6 C        3.763    -0.103    22.511     6.763
    16   6 C        2.979     0.000    28.017     8.682
    17   6 C        2.928    -0.035    28.873     8.812
    18   6 C        2.918    -0.055    29.360     8.885
    19   6 C        2.847     0.142    24.909     8.180
    20   8 O        1.659    -0.396    20.776     6.153
    21   6 C        2.918    -0.073    29.823     8.955
    22   6 C        2.924    -0.040    28.995     8.830
    23   6 C        2.927    -0.035    28.867     8.811
    24   6 C        2.919    -0.056    29.380     8.889
    25   6 C        2.922    -0.040    28.987     8.829
    26   6 C        2.923    -0.033    28.811     8.802
    27   1 H        0.926     0.037     2.484     2.465
    28   1 H        0.926     0.039     2.461     2.453
    29   1 H        0.925     0.035     2.519     2.482
    30   1 H        0.926     0.035     2.514     2.480
    31   1 H        0.926     0.049     2.331     2.388
    32   1 H        0.923     0.033     2.545     2.495
    33   1 H        0.923     0.031     2.575     2.510
    34   1 H        0.926     0.027     2.626     2.534
    35   1 H        0.926     0.036     2.496     2.471
    36   1 H        0.925     0.038     2.472     2.459
    37   1 H        0.925     0.039     2.461     2.453
    38   1 H        0.925     0.036     2.506     2.476
    39   1 H        0.925     0.038     2.474     2.460
    40   1 H        0.925     0.036     2.504     2.475
    41   1 H        0.925     0.039     2.465     2.455
    42   1 H        0.926     0.034     2.529     2.487
    43   1 H        0.926     0.047     2.356     2.400
    44   1 H        0.805     0.297     0.731     1.343
    45   1 H        0.925     0.022     2.697     2.568
    46   1 H        0.926     0.037     2.487     2.466
    47   1 H        0.926     0.033     2.538     2.491
    48   1 H        0.926     0.044     2.397     2.421
    49   1 H        0.926     0.028     2.609     2.526
    50   1 H        0.926     0.038     2.469     2.457

molecular dipole:
                 x           y           z       tot (Debye)
 q only:        0.073       0.425      -0.098
   full:        0.247       0.581      -0.145       1.646

 projected vibrational frequencies (cm⁻¹)
eigval :       -0.00    -0.00    -0.00     0.00     0.00     0.00
eigval :       10.08    12.42    20.22    30.23    34.92    46.67
eigval :       53.80    76.49   100.89   125.88   140.65   155.05
eigval :      176.52   206.17   221.89   257.93   266.29   283.98
eigval :      294.34   300.40   304.35   319.64   349.48   368.58
eigval :      374.40   379.66   380.70   395.49   419.37   426.19
eigval :      443.73   454.44   468.30   487.39   513.72   537.34
eigval :      542.86   564.42   606.25   612.60   613.74   617.17
eigval :      660.10   684.52   695.35   700.61   749.65   776.39
eigval :      802.41   809.28   810.77   845.60   862.10   864.02
eigval :      865.08   866.41   880.01   888.33   899.01   901.92
eigval :      911.90   923.81   925.27   925.58   956.02   960.73
eigval :      987.65  1006.38  1007.02  1011.33  1012.28  1014.26
eigval :     1036.34  1073.06  1113.68  1123.80  1131.81  1146.82
eigval :     1147.03  1152.15  1178.80  1194.27  1197.87  1199.17
eigval :     1200.10  1213.72  1240.69  1247.93  1253.47  1272.64
eigval :     1276.96  1282.27  1288.08  1290.43  1302.94  1327.91
eigval :     1337.72  1340.25  1345.11  1396.37  1410.68  1411.87
eigval :     1413.61  1420.47  1423.81  1467.41  1488.11  1493.37
eigval :     1494.22  1499.87  1503.49  1510.20  1512.40  1574.23
eigval :     1579.04  1588.21  1602.17  1612.37  1615.13  1676.01
eigval :     2827.53  2881.04  3022.00  3025.32  3028.46  3035.11
eigval :     3041.64  3042.08  3044.31  3049.00  3068.03  3071.67
eigval :     3080.08  3082.56  3090.25  3097.13  3103.03  3103.90
eigval :     3105.48  3105.64  3108.32  3111.06  3131.08  3522.39

   temp. (K)  partition function   enthalpy   heat capacity  entropy
                                   cal/mol     cal/K/mol   cal/K/mol   J/K/mol
 298.15  VIB  0.168E+12            13695.006     84.511     85.359
         ROT  0.203E+08              888.752      2.981     36.415
         INT  0.341E+19            14583.758     87.492    121.774
         TR   0.618E+28             1481.254      4.968     43.385
         TOT                       16065.0119    92.4601   165.1593   691.0264

       T/K    H(0)-H(T)+PV         H(T)/Eh          T*S/Eh         G(T)/Eh
   ------------------------------------------------------------------------
    298.15    0.256012E-01    0.430166E+00    0.784725E-01    0.351694E+00
   ------------------------------------------------------------------------

         :::::::::::::::::::::::::::::::::::::::::::::::::::::
         ::                  THERMODYNAMIC                  ::
         :::::::::::::::::::::::::::::::::::::::::::::::::::::
         :: total free energy         -71.373633046701 Eh   ::
         ::.................................................::
         :: total energy              -71.725326899551 Eh   ::
         :: zero point energy           0.404565124159 Eh   ::
         :: G(RRHO) w/o ZPVE           -0.052871271308 Eh   ::
         :: G(RRHO) contrib.            0.351693852850 Eh   ::
         :::::::::::::::::::::::::::::::::::::::::::::::::::::

           -------------------------------------------------
          | TOTAL ENERGY              -71.725326899551 Eh   |
          | TOTAL ENTHALPY            -71.295160549343 Eh   |
          | TOTAL FREE ENERGY         -71.373633046701 Eh   |
          | GRADIENT NORM               0.000053138679 Eh/α |
          | HOMO-LUMO GAP               3.149073398669 eV   |
           -------------------------------------------------

 * finished run on 2025/08/30 at 13:28:04.331
