   * xtb version 6.7.1 (edcfbbe) compiled by 'albert@albert-system' on 2024-07-22

   ID    Z sym.   atoms
    1    6 C      1-7, 9-19, 21-26
    2    8 O      8, 20
    3    1 H      27-50

          program call               : xtb data2507/gas/P4CzCN–BCz/P4CzCN–BCz_gas_S0_finalOpt.xtbopt.xyz --gfn 2 --spinpol --tblite --uhf 2 --ohess vtight --parallel 40 --molden --ceasefiles --namespace data2507/gas/P4CzCN–BCz/P4CzCN–BCz_gas_T1_preOpt
 * total energy  :   -71.6072247 Eh     change       -0.2094977E-07 Eh
 * total energy  :   -71.6233475 Eh     change       -0.1612279E-01 Eh
 * total energy  :   -71.6261518 Eh     change       -0.2804276E-02 Eh
 * total energy  :   -71.6263600 Eh     change       -0.2082168E-03 Eh
 * total energy  :   -71.6264409 Eh     change       -0.8087845E-04 Eh
 * total energy  :   -71.6264636 Eh     change       -0.2274254E-04 Eh
 * total energy  :   -71.6264786 Eh     change       -0.1498430E-04 Eh
 * total energy  :   -71.6264841 Eh     change       -0.5481219E-05 Eh
 * total energy  :   -71.6264934 Eh     change       -0.9321827E-05 Eh
 * total energy  :   -71.6265034 Eh     change       -0.9972639E-05 Eh
 * total energy  :   -71.6327600 Eh     change       -0.9746346E-06 Eh
 * total energy  :   -71.6327607 Eh     change       -0.6676595E-06 Eh
 * total energy  :   -71.6327610 Eh     change       -0.3344732E-06 Eh
 * total energy  :   -71.6327609 Eh     change        0.6180716E-07 Eh
 * total energy  :   -71.6327612 Eh     change       -0.2478633E-06 Eh
 * total energy  :   -71.6327611 Eh     change        0.4409414E-07 Eh
 * total energy  :   -71.6327613 Eh     change       -0.1602357E-06 Eh
 * total energy  :   -71.6327614 Eh     change       -0.1223705E-06 Eh
 * total energy  :   -71.6327615 Eh     change       -0.8801361E-07 Eh
   *** GEOMETRY OPTIMIZATION CONVERGED AFTER 66 ITERATIONS ***

 final structure:
================
50
 xtb: 6.7.1 (edcfbbe)
C           -7.45415079621014       -2.15663116400752       -0.66001583799082
C           -6.51617109068747       -1.73833422179731        0.35299252377314
C           -5.60465042764605       -0.68993693639206        0.21335372804319
C           -4.71696277002478       -0.33970236150824        1.26089698591023
C           -3.82634252776934        0.69387092710590        1.11818817278932
C           -3.76267363280458        1.42451168239229       -0.06852378240650
C           -2.79059546301035        2.56647331514301       -0.21889561715327
O           -1.64473908426384        2.46957322073107        0.59657814471277
C           -0.74729013694380        1.47071567188711        0.34918791165527
C           -0.87347573446484        0.50152742339688       -0.63519261600606
C            0.11221965393446       -0.46073871673171       -0.79409411659080
C            1.23964340875430       -0.48410244450343        0.00981177819893
C            2.32803119016708       -1.54011517870881       -0.09737721630367
C            2.26135095081652       -2.34022021185150       -1.40644798528065
C            2.12502640093052       -2.51202078388018        1.07397189934318
C            3.68276138541175       -0.85043133793688       -0.06907278106852
C            4.75203149995824       -1.29437332978516        0.69761756774242
C            5.97609528842488       -0.65351390535757        0.65931269401583
C            6.16006293790753        0.45415540479862       -0.15802476752842
O            7.38040412913694        1.06098801677863       -0.16914077551006
C            5.10015984825355        0.90572826930024       -0.93437904164419
C            3.88206385592930        0.25704510543497       -0.88690675718509
C            1.35143586552833        0.49116541460959        0.99962024566547
C            0.38139511370803        1.45276411853765        1.16924644011423
C           -4.62883151618528        1.09455970760651       -1.11295289508611
C           -5.52958455486637        0.06925525493645       -0.98243383409081
H           -7.20411736054476       -2.93415083478505       -1.36128325340275
H           -8.45233363787069       -1.75497995478995       -0.69185023346903
H           -6.52078803031662       -2.27871326066557        1.29552445628468
H           -4.75253578484662       -0.90011639318364        2.18378633468176
H           -3.15716068881526        0.94974060766391        1.92684066969028
H           -3.27035189646558        3.49905439384234        0.10477338358770
H           -2.50397806315330        2.68341152127392       -1.27444748665933
H           -1.73786817572637        0.47175290631312       -1.28008541336921
H           -0.02493719407754       -1.19821579780065       -1.56901412116996
H            2.27455499061536       -1.67756787830493       -2.26824473101470
H            1.36553158372798       -2.95571551304237       -1.44208382060063
H            3.12725133459217       -2.99668580781566       -1.47006462917383
H            2.29220702194108       -2.01379773093794        2.02555688549454
H            1.10110406253879       -2.88107957106820        1.05951685597724
H            2.79428984699043       -3.36543467675950        0.99390415117928
H            4.64505892173736       -2.15146138807721        1.34284977658872
H            6.80326080469451       -0.99963653674202        1.25874414360314
H            7.36290384085499        1.81140009908195       -0.77495663790752
H            5.23133585619596        1.76809989400540       -1.57569671841431
H            3.06549742732143        0.62582598684725       -1.49055709319541
H            2.22126782474820        0.49967561236947        1.64034321987197
H            0.47333919367400        2.20829434726406        1.93389010347633
H           -4.58347996968970        1.65853433138654       -2.03489935465042
H           -6.19846026338236       -0.18361017222345       -1.79216905906740

 projected vibrational frequencies (cm⁻¹)
eigval :       -0.00    -0.00     0.00     0.00     0.00     0.00
eigval :       11.73    16.37    25.30    32.84    41.91    64.75
eigval :       77.98    85.74   128.26   147.93   161.46   173.77
eigval :      196.41   205.92   232.82   259.19   263.43   265.45
eigval :      290.42   297.15   315.65   320.61   332.78   343.88
eigval :      369.61   372.95   380.45   383.80   391.78   397.17
eigval :      420.79   426.11   453.11   464.53   477.72   510.76
eigval :      526.45   541.98   547.58   581.88   603.16   612.36
eigval :      629.93   643.13   649.46   659.57   684.80   695.06
eigval :      750.85   765.27   793.87   805.93   810.40   827.93
eigval :      842.04   860.33   862.94   863.64   865.02   900.68
eigval :      904.35   906.03   909.02   920.19   921.36   925.14
eigval :      954.65   960.58   980.13   996.39  1007.76  1011.60
eigval :     1014.21  1068.15  1110.27  1127.42  1129.44  1132.79
eigval :     1136.66  1146.96  1151.45  1170.79  1179.24  1192.70
eigval :     1194.65  1201.13  1214.14  1224.65  1242.85  1248.16
eigval :     1269.88  1275.13  1283.52  1286.30  1293.49  1306.63
eigval :     1335.31  1338.35  1346.69  1348.16  1374.22  1395.59
eigval :     1410.21  1413.05  1418.29  1424.89  1450.00  1455.27
eigval :     1486.77  1492.87  1499.49  1502.28  1509.25  1510.83
eigval :     1519.09  1571.49  1579.57  1587.49  1611.76  1614.71
eigval :     2869.08  2917.20  2971.61  3021.86  3025.00  3028.03
eigval :     3034.69  3039.67  3041.54  3050.52  3061.39  3074.82
eigval :     3075.87  3079.22  3080.71  3082.73  3088.63  3095.07
eigval :     3095.90  3100.57  3102.01  3107.61  3112.00  3523.76

   temp. (K)  partition function   enthalpy   heat capacity  entropy
                                   cal/mol     cal/K/mol   cal/K/mol   J/K/mol
 298.15  VIB  0.294E+11            13872.452     87.938     84.682
         ROT  0.162E+08              888.752      2.981     35.966
         INT  0.476E+18            14761.205     90.919    120.648
         TR   0.618E+28             1481.254      4.968     43.385
         TOT                       16242.4585    95.8868   164.0328   686.3131

       T/K    H(0)-H(T)+PV         H(T)/Eh          T*S/Eh         G(T)/Eh
   ------------------------------------------------------------------------
    298.15    0.258840E-01    0.425788E+00    0.779373E-01    0.347851E+00
   ------------------------------------------------------------------------

         :::::::::::::::::::::::::::::::::::::::::::::::::::::
         ::                  THERMODYNAMIC                  ::
         :::::::::::::::::::::::::::::::::::::::::::::::::::::
         :: total free energy         -71.284910538455 Eh   ::
         ::.................................................::
         :: total energy              -71.632761553700 Eh   ::
         :: zero point energy           0.399904275952 Eh   ::
         :: G(RRHO) w/o ZPVE           -0.052053260707 Eh   ::
         :: G(RRHO) contrib.            0.347851015245 Eh   ::
         :::::::::::::::::::::::::::::::::::::::::::::::::::::

           -------------------------------------------------
          | TOTAL ENERGY              -71.632761553700 Eh   |
          | TOTAL ENTHALPY            -71.206973272615 Eh   |
          | TOTAL FREE ENERGY         -71.284910538455 Eh   |
          | GRADIENT NORM               0.000092486540 Eh/α |
           -------------------------------------------------

 * finished run on 2025/08/30 at 13:30:45.747
