   * xtb version 6.7.1 (edcfbbe) compiled by 'albert@albert-system' on 2024-07-22

   ID    Z sym.   atoms
    1    6 C      1-52
    2    1 H      53-86

          program call               : xtb data2507/toluene/BANE/BANE_toluene_S0_finalOpt.xtbopt.xyz --gfn 2 --uhf 2 --gbsa toluene --ohess vtight --parallel 40 --molden --ceasefiles --namespace data2507/toluene/BANE/BANE_toluene_T1_preOpt
      * Solvation model:               GBSA
        Solvent                        toluene
        Solvent mass                       9.2140E+01 g/mol
          :  Hamiltonian                  GFN2-xTB          :
 * total energy  :  -128.6615514 Eh     change       -0.2377328E-07 Eh
 * total energy  :  -128.6647032 Eh     change       -0.3151816E-02 Eh
 * total energy  :  -128.6654848 Eh     change       -0.7815520E-03 Eh
 * total energy  :  -128.6655873 Eh     change       -0.1025208E-03 Eh
 * total energy  :  -128.6658559 Eh     change       -0.2686079E-03 Eh
 * total energy  :  -128.6660335 Eh     change       -0.1776542E-03 Eh
 * total energy  :  -128.6662885 Eh     change       -0.2549495E-03 Eh
 * total energy  :  -128.6667483 Eh     change       -0.4598440E-03 Eh
 * total energy  :  -128.6668373 Eh     change       -0.8900696E-04 Eh
 * total energy  :  -128.6669222 Eh     change       -0.8486983E-04 Eh
 * total energy  :  -128.6713618 Eh     change       -0.1202548E-04 Eh
 * total energy  :  -128.6713678 Eh     change       -0.5929402E-05 Eh
 * total energy  :  -128.6713733 Eh     change       -0.5557785E-05 Eh
 * total energy  :  -128.6713781 Eh     change       -0.4775810E-05 Eh
 * total energy  :  -128.6713810 Eh     change       -0.2862392E-05 Eh
 * total energy  :  -128.6713825 Eh     change       -0.1514955E-05 Eh
 * total energy  :  -128.6713831 Eh     change       -0.6605721E-06 Eh
 * total energy  :  -128.6713834 Eh     change       -0.2753803E-06 Eh
 * total energy  :  -128.6713835 Eh     change       -0.8200092E-07 Eh
   *** GEOMETRY OPTIMIZATION CONVERGED AFTER 69 ITERATIONS ***

 final structure:
================
86
 xtb: 6.7.1 (edcfbbe)
C          -12.11605729054726        0.00983639348651        0.00111782317187
C          -11.41646113602056        0.85232921700646        0.84962365677075
C          -10.03374768947512        0.84570004438027        0.85207201594250
C           -9.32622280696528       -0.00038416463477        0.00006492395553
C           -7.85604366030826       -0.00468633990984       -0.00118671182305
C           -7.14281497425187       -0.05742655068685       -1.19794498679385
C           -5.76273473492257       -0.04974750385564       -1.20071752737823
C           -5.04615808285331       -0.00878882583986       -0.00425126903458
C           -3.57638524709562       -0.00840458793594       -0.00583442633687
C           -2.86954391414874       -1.07980859340406        0.59295212967740
C           -3.54314937491310       -2.17435564762146        1.17282694552616
C           -2.86025632051261       -3.16871707660509        1.83498945192954
C           -1.47492707887364       -3.09588527379135        1.95742589948120
C           -0.78468952646333       -2.06228943693569        1.36277834719593
C           -1.44353561115187       -1.06813795035605        0.62002422754277
C           -0.72240741645503       -0.00542651906058       -0.00634760753158
C            0.72251864584876       -0.00218712527988       -0.00456300425622
C            1.44155284989738        1.07037227069656        0.60728598926240
C            0.78034608823442        2.07528503461570        1.33333103591835
C            1.46848836266522        3.11852547811750        1.91330195594155
C            2.85403655571517        3.19062836101179        1.79264093195187
C            3.53907157338151        2.18680539403647        1.14727761437795
C            2.86756734522955        1.08292362663716        0.58280789475427
C            3.57649662607387        0.00345709198998        0.00115226879434
C            5.04622863576413        0.00591721659581        0.00575543276694
C            5.76547953976205        0.03060723930428       -1.18952751808024
C            7.14554405302689        0.04286696660196       -1.18357784149891
C            7.85592529700876        0.01126071104378        0.01558504055421
C            9.32612915216073        0.01407933354080        0.02074731446529
C           10.03549707553655       -0.81770852724850        0.88517804842207
C           11.41823880900232       -0.81677570610102        0.88699559618571
C           12.11584159301223        0.01930295182761        0.03049138780118
C           11.42111486003735        0.85284363547079       -0.83080271949334
C           10.03840611696473        0.84855389080444       -0.83869360288369
C            7.13733466866016       -0.02314354094795        1.20976947923195
C            5.75725261720051       -0.01611877856453        1.20603256411567
C            2.87425288999198       -1.07829438988208       -0.58427501811410
C            3.55221744350173       -2.17911703214954       -1.14698047958677
C            2.87355475900032       -3.18504195725046       -1.79581880975003
C            1.48820158461318       -3.11833386762371       -1.92175274774467
C            0.79374253742986       -2.07828604989567       -1.34355671637444
C            1.44829933186450       -1.07130603933639       -0.61435778202052
C           -1.44613115477042        1.05496539008740       -0.63364686044751
C           -0.78935847014010        2.04966100278105       -1.37750110650246
C           -1.48169066502045        3.08177674007127       -1.97228411389497
C           -2.86702895375451        3.15244780480978       -1.84871367988948
C           -3.54786239976342        2.15730663882345       -1.18559646197229
C           -2.87209445344629        1.06403359460115       -0.60581940789692
C           -5.75999229923588        0.03312831440154        1.19381658522683
C           -7.14005627064148        0.04489093832058        1.19405436835158
C          -10.04053865634163       -0.84146617758138       -0.85120223392525
C          -11.42326537232652       -0.83789743673728       -0.84775402012400
H          -13.19641344512964        0.01391742691587        0.00136219769938
H          -11.95157729415717        1.51889866090777        1.51105501962674
H           -9.49377106405072        1.51674491658468        1.50475262570785
H           -7.67831546946460       -0.08380425501265       -2.13621216937053
H           -5.22447186656668       -0.09302724900334       -2.13719762799995
H           -4.61848472982813       -2.22658583512620        1.09416068603616
H           -3.40011601322205       -3.99640387931413        2.27140002307115
H           -0.93887706887638       -3.85230243372070        2.51163876311969
H            0.28951859881448       -2.01737068882353        1.46036037815768
H           -0.29400428631999        2.03090986312408        1.42953888062253
H            0.93067886061121        3.88324692877658        2.45427252890820
H            3.39220716398699        4.02565586769788        2.21698291265955
H            4.61450396184919        2.23892997746484        1.06983409909735
H            5.22928482272656        0.05814148820040       -2.12781435466292
H            7.68339458236722        0.05674892579845       -2.12079914993175
H            9.49707667052323       -1.48342720485436        1.54459286039636
H           11.95494376559515       -1.47221669360191        1.55819933905570
H           13.19619810460536        0.02130551804174        0.03422048452395
H           11.96004886636872        1.51031756378940       -1.49822587938386
H            9.50210731267154        1.51232626170195       -1.50179737188761
H            7.66866029741307       -0.03493061429953        2.15073250538148
H            5.21458175806194       -0.04549553297535        2.14053315271562
H            4.62753483527571       -2.22712354930500       -1.06544423919471
H            3.41666992385441       -4.01749393364144       -2.21891545496026
H            0.95553851886403       -3.88474558193713       -2.46541757329839
H           -0.28043032527320       -2.03795425159939       -1.44363044760955
H            0.28486532592804        2.00631586045760       -1.47573243151353
H           -0.94732223085558        3.83873413058985       -2.52737684983998
H           -3.40856703048192        3.97910522591298       -2.28499759253566
H           -4.62319724084498        2.20802848125919       -1.10610277362208
H           -5.21955786089928        0.07473326469356        2.12913818822293
H           -7.67344159675350        0.07270923217146        2.13350961097786
H           -9.50599801045152       -1.51640460394985       -1.50431380629371
H          -11.96375593379280       -1.50046316544087       -1.50882375448304

          :  Hamiltonian                  GFN2-xTB          :
         :: gradient norm              0.000063896370 Eh/a0 ::
         :: HOMO-LUMO gap              0.364903175604 eV    ::
         :: SCC energy              -131.192781089684 Eh    ::
         :: -> dispersion             -0.125699155643 Eh    ::
         :: -> Gsolv                  -0.051653309126 Eh    ::
         :: repulsion energy           2.521397596966 Eh    ::

    * Orbital Energies and Occupations

         #    Occupation            Energy/Eh            Energy/eV
      -------------------------------------------------------------
         1        2.0000           -0.6539127             -17.7939
       ...           ...                  ...                  ...
       110        2.0000           -0.4053237             -11.0294
       111        2.0000           -0.4051222             -11.0239
       112        2.0000           -0.4039050             -10.9908
       113        2.0000           -0.4038434             -10.9891
       114        2.0000           -0.4021690             -10.9436
       115        2.0000           -0.3992978             -10.8654
       116        2.0000           -0.3974060             -10.8140
       117        2.0000           -0.3950582             -10.7501
       118        2.0000           -0.3839952             -10.4490
       119        2.0000           -0.3836929             -10.4408
       120        1.9984           -0.3594787              -9.7819
       121        1.0016           -0.3472697              -9.4497
       122        0.9991           -0.2897718              -7.8851 (HOMO)
       123        0.0009           -0.2763618              -7.5202 (LUMO)
       124                         -0.2445794              -6.6553
       125                         -0.2444470              -6.6517
       126                         -0.2293021              -6.2396
       127                         -0.2277137              -6.1964
       128                         -0.2240143              -6.0957
       129                         -0.2229526              -6.0668
       130                         -0.2220097              -6.0412
       131                         -0.2220044              -6.0410
       132                         -0.2209970              -6.0136
       133                         -0.2186242              -5.9491
       ...                                ...                  ...
       242                          0.7087009              19.2847
      -------------------------------------------------------------
                  HL-Gap            0.0134100 Eh            0.3649 eV

     #   Z          covCN         q      C6AA      α(0)
     1   6 C        2.920    -0.032    28.807     8.802
     2   6 C        2.918    -0.031    28.768     8.795
     3   6 C        2.925    -0.035    28.865     8.811
     4   6 C        2.976     0.009    27.808     8.650
     5   6 C        2.976     0.007    27.857     8.658
     6   6 C        2.923    -0.035    28.876     8.812
     7   6 C        2.922    -0.033    28.822     8.804
     8   6 C        2.975     0.013    27.712     8.635
     9   6 C        2.974    -0.009    28.234     8.716
    10   6 C        2.979     0.006    27.871     8.660
    11   6 C        2.920    -0.037    28.932     8.821
    12   6 C        2.914    -0.032    28.789     8.798
    13   6 C        2.915    -0.032    28.791     8.799
    14   6 C        2.920    -0.035    28.864     8.810
    15   6 C        2.979     0.008    27.846     8.656
    16   6 C        2.971    -0.003    28.100     8.695
    17   6 C        2.971    -0.003    28.099     8.695
    18   6 C        2.979     0.008    27.846     8.656
    19   6 C        2.920    -0.035    28.864     8.810
    20   6 C        2.915    -0.032    28.791     8.799
    21   6 C        2.914    -0.032    28.789     8.798
    22   6 C        2.920    -0.037    28.932     8.821
    23   6 C        2.979     0.006    27.871     8.660
    24   6 C        2.974    -0.009    28.234     8.716
    25   6 C        2.975     0.013    27.712     8.635
    26   6 C        2.922    -0.033    28.822     8.804
    27   6 C        2.923    -0.035    28.876     8.812
    28   6 C        2.976     0.007    27.857     8.658
    29   6 C        2.976     0.009    27.808     8.650
    30   6 C        2.925    -0.035    28.865     8.811
    31   6 C        2.918    -0.031    28.768     8.795
    32   6 C        2.920    -0.032    28.807     8.802
    33   6 C        2.918    -0.031    28.768     8.795
    34   6 C        2.925    -0.035    28.865     8.811
    35   6 C        2.923    -0.035    28.876     8.812
    36   6 C        2.922    -0.033    28.821     8.804
    37   6 C        2.979     0.006    27.871     8.660
    38   6 C        2.920    -0.038    28.933     8.821
    39   6 C        2.914    -0.032    28.789     8.798
    40   6 C        2.915    -0.032    28.792     8.799
    41   6 C        2.920    -0.035    28.864     8.810
    42   6 C        2.979     0.008    27.846     8.656
    43   6 C        2.979     0.008    27.846     8.656
    44   6 C        2.920    -0.035    28.864     8.810
    45   6 C        2.915    -0.032    28.792     8.799
    46   6 C        2.914    -0.032    28.789     8.798
    47   6 C        2.920    -0.038    28.933     8.821
    48   6 C        2.979     0.006    27.871     8.660
    49   6 C        2.922    -0.033    28.821     8.804
    50   6 C        2.923    -0.035    28.876     8.812
    51   6 C        2.925    -0.035    28.865     8.811
    52   6 C        2.918    -0.031    28.768     8.795
    53   1 H        0.926     0.030     2.586     2.515
    54   1 H        0.926     0.030     2.581     2.512
    55   1 H        0.926     0.032     2.561     2.502
    56   1 H        0.926     0.033     2.541     2.493
    57   1 H        0.926     0.031     2.566     2.505
    58   1 H        0.926     0.033     2.548     2.496
    59   1 H        0.926     0.030     2.592     2.518
    60   1 H        0.926     0.029     2.598     2.520
    61   1 H        0.926     0.029     2.595     2.519
    62   1 H        0.926     0.029     2.595     2.519
    63   1 H        0.926     0.029     2.598     2.520
    64   1 H        0.926     0.030     2.592     2.518
    65   1 H        0.926     0.033     2.548     2.496
    66   1 H        0.926     0.031     2.566     2.505
    67   1 H        0.926     0.033     2.542     2.493
    68   1 H        0.926     0.032     2.561     2.503
    69   1 H        0.926     0.030     2.581     2.512
    70   1 H        0.926     0.030     2.586     2.515
    71   1 H        0.926     0.030     2.581     2.512
    72   1 H        0.926     0.032     2.561     2.503
    73   1 H        0.926     0.033     2.542     2.493
    74   1 H        0.926     0.031     2.566     2.505
    75   1 H        0.926     0.033     2.548     2.496
    76   1 H        0.926     0.030     2.592     2.518
    77   1 H        0.926     0.029     2.598     2.520
    78   1 H        0.926     0.029     2.595     2.519
    79   1 H        0.926     0.029     2.595     2.519
    80   1 H        0.926     0.029     2.598     2.520
    81   1 H        0.926     0.030     2.592     2.518
    82   1 H        0.926     0.033     2.548     2.496
    83   1 H        0.926     0.031     2.566     2.505
    84   1 H        0.926     0.033     2.541     2.493
    85   1 H        0.926     0.032     2.561     2.502
    86   1 H        0.926     0.030     2.581     2.512

molecular dipole:
                 x           y           z       tot (Debye)
 q only:        0.000       0.000       0.000
   full:        0.000       0.001       0.000       0.002

 projected vibrational frequencies (cm⁻¹)
eigval :       -0.00    -0.00    -0.00    -0.00     0.00     0.00
eigval :        7.84     9.04    22.90    23.88    32.60    38.05
eigval :       38.51    47.72    52.30    70.60    74.76    77.19
eigval :       81.65    86.35    91.28    98.59   103.40   107.78
eigval :      112.65   136.98   153.96   154.86   169.09   178.61
eigval :      205.48   211.74   216.99   223.68   230.36   237.47
eigval :      274.56   311.36   313.67   315.83   354.39   360.54
eigval :      366.45   368.52   373.31   374.16   376.01   380.33
eigval :      385.08   389.52   403.23   403.74   416.32   421.20
eigval :      427.17   431.91   440.30   447.34   467.73   469.75
eigval :      486.63   488.66   524.79   526.72   553.39   557.03
eigval :      576.10   578.18   579.45   585.72   586.21   590.73
eigval :      592.80   593.40   611.68   611.97   617.64   628.17
eigval :      635.30   648.22   668.73   669.06   673.54   680.50
eigval :      682.92   695.98   697.24   704.75   725.65   729.88
eigval :      749.28   755.49   755.78   755.86   759.54   761.46
eigval :      761.98   767.37   820.73   821.47   834.20   857.70
eigval :      858.62   859.91   861.86   873.36   873.66   880.41
eigval :      880.73   886.51   898.76   900.33   900.77   902.17
eigval :      903.08   905.84   906.23   909.57   910.70   914.68
eigval :      915.32   915.57   916.43   923.70   924.65   929.20
eigval :      929.32   932.16   932.63   932.82   934.89   935.10
eigval :      955.97   967.71   967.74  1009.51  1009.64  1028.48
eigval :     1071.00  1074.70  1076.89  1087.15  1087.19  1099.16
eigval :     1099.37  1099.75  1100.12  1120.73  1120.75  1126.75
eigval :     1127.88  1139.09  1139.12  1145.76  1178.00  1179.44
eigval :     1180.98  1182.73  1182.73  1183.99  1185.94  1193.04
eigval :     1193.48  1199.74  1200.46  1211.66  1213.12  1232.35
eigval :     1237.17  1256.94  1258.26  1271.23  1271.48  1272.53
eigval :     1280.93  1281.06  1291.83  1292.83  1293.02  1306.11
eigval :     1308.43  1311.66  1316.25  1316.37  1332.91  1339.00
eigval :     1340.38  1346.01  1350.23  1353.26  1371.47  1379.14
eigval :     1392.13  1392.16  1404.34  1409.02  1411.28  1413.53
eigval :     1416.90  1418.61  1431.05  1431.08  1438.93  1461.63
eigval :     1463.40  1473.90  1497.75  1499.56  1511.40  1514.21
eigval :     1514.62  1540.98  1542.39  1542.79  1546.24  1546.38
eigval :     1564.68  1565.85  1579.95  1579.96  1586.24  1586.61
eigval :     1599.72  1599.79  3066.02  3066.04  3066.13  3066.27
eigval :     3067.71  3067.92  3068.22  3068.46  3071.33  3071.47
eigval :     3071.61  3071.85  3075.31  3075.45  3077.71  3077.92
eigval :     3079.17  3079.32  3079.38  3079.49  3079.73  3079.84
eigval :     3081.19  3081.41  3087.85  3087.95  3089.82  3090.17
eigval :     3091.12  3091.68  3094.27  3094.44  3094.71  3096.54

   temp. (K)  partition function   enthalpy   heat capacity  entropy
                                   cal/mol     cal/K/mol   cal/K/mol   J/K/mol
 298.15  VIB  0.274E+19            23909.348    154.058    148.810
         ROT  0.271E+08              888.752      2.981     36.991
         INT  0.741E+26            24798.100    157.039    185.802
         TR   0.164E+29             1481.254      4.968     45.317
         TOT                       26279.3543   162.0075   231.1187   967.0007

       T/K    H(0)-H(T)+PV         H(T)/Eh          T*S/Eh         G(T)/Eh
   ------------------------------------------------------------------------
    298.15    0.418788E-01    0.706955E+00    0.109812E+00    0.597143E+00
   ------------------------------------------------------------------------

         :::::::::::::::::::::::::::::::::::::::::::::::::::::
         ::                  THERMODYNAMIC                  ::
         :::::::::::::::::::::::::::::::::::::::::::::::::::::
         :: total free energy        -128.074240220765 Eh   ::
         ::.................................................::
         :: total energy             -128.671383491282 Eh   ::
         :: zero point energy           0.665076416901 Eh   ::
         :: G(RRHO) w/o ZPVE           -0.067933146384 Eh   ::
         :: G(RRHO) contrib.            0.597143270517 Eh   ::
         :::::::::::::::::::::::::::::::::::::::::::::::::::::

           -------------------------------------------------
          | TOTAL ENERGY             -128.671383491282 Eh   |
          | TOTAL ENTHALPY           -127.964428257545 Eh   |
          | TOTAL FREE ENERGY        -128.074240220765 Eh   |
          | GRADIENT NORM               0.000063885074 Eh/α |
          | HOMO-LUMO GAP               0.364904459037 eV   |
           -------------------------------------------------

 * finished run on 2025/08/24 at 05:53:51.493
