   * xtb version 6.7.1 (edcfbbe) compiled by 'albert@albert-system' on 2024-07-22

   ID    Z sym.   atoms
    1    6 C      1-52
    2    1 H      53-86

          program call               : xtb data2507/toluene/BANE/BANE_toluene_T1_crest.xyz --gfn 2 --uhf 2 --gbsa toluene --ohess vtight --parallel 40 --molden --ceasefiles --namespace data2507/toluene/BANE/BANE_toluene_T1_finalOpt
      * Solvation model:               GBSA
        Solvent                        toluene
        Solvent mass                       9.2140E+01 g/mol
          :  Hamiltonian                  GFN2-xTB          :
 * total energy  :  -128.6716820 Eh     change       -0.3319371E-09 Eh
 * total energy  :  -128.6717159 Eh     change       -0.3393921E-04 Eh
 * total energy  :  -128.6717328 Eh     change       -0.1689661E-04 Eh
 * total energy  :  -128.6717411 Eh     change       -0.8280765E-05 Eh
 * total energy  :  -128.6717488 Eh     change       -0.7725523E-05 Eh
 * total energy  :  -128.6717518 Eh     change       -0.2960519E-05 Eh
 * total energy  :  -128.6717551 Eh     change       -0.3292157E-05 Eh
 * total energy  :  -128.6717574 Eh     change       -0.2321945E-05 Eh
 * total energy  :  -128.6717587 Eh     change       -0.1323450E-05 Eh
 * total energy  :  -128.6717602 Eh     change       -0.1443482E-05 Eh
 * total energy  :  -128.6717647 Eh     change       -0.1712194E-05 Eh
 * total energy  :  -128.6717663 Eh     change       -0.1581140E-05 Eh
 * total energy  :  -128.6717669 Eh     change       -0.5788710E-06 Eh
 * total energy  :  -128.6717671 Eh     change       -0.1617752E-06 Eh
 * total energy  :  -128.6717672 Eh     change       -0.1444556E-06 Eh
 * total energy  :  -128.6717673 Eh     change       -0.1160841E-06 Eh
 * total energy  :  -128.6717674 Eh     change       -0.1233129E-06 Eh
 * total energy  :  -128.6717675 Eh     change       -0.1026460E-06 Eh
 * total energy  :  -128.6717676 Eh     change       -0.8375761E-07 Eh
   *** GEOMETRY OPTIMIZATION CONVERGED AFTER 21 ITERATIONS ***

 final structure:
================
86
 xtb: 6.7.1 (edcfbbe)
C          -12.11490493373269        0.00670281681665       -0.08949807490292
C          -11.43459217941235        0.35629468963809        1.06555449276868
C          -10.05206917907752        0.35838157939872        1.08523072449833
C           -9.32524002831283        0.00364826013025       -0.04988173975188
C           -7.85528895308987        0.00309691140747       -0.02987984216873
C           -7.13263749859358       -1.02721047176293       -0.63038295659319
C           -5.75303896589175       -1.03250146969801       -0.60503510371781
C           -5.04537115806277        0.00450406593166        0.00450786622094
C           -3.57688547743588        0.00581151448615        0.01929622645224
C           -2.87639315325888       -1.02697402350838        0.69039033156675
C           -3.55936956076653       -2.01830458322300        1.42465843208774
C           -2.88229829003061       -2.97636111371770        2.14293280034932
C           -1.49063135749482       -2.95481345869096        2.18896570495331
C           -0.79468212345235       -1.98717479019846        1.49887595115823
C           -1.45075011797280       -1.03038142632405        0.70576289380889
C           -0.72193582693127        0.00219524936140        0.03841016971388
C            0.72182936379027       -0.00464080565851        0.04083529454872
C            1.44845174178011        1.08093437015037        0.62143993660114
C            0.78944531063622        2.10267891184934        1.32586733951618
C            1.48294038933600        3.12377482281265        1.93752303796640
C            2.87466119852944        3.13659213853402        1.90307529135494
C            3.55405005947276        2.12010659709100        1.27193655833535
C            2.87410473839608        1.07487894229807        0.61415430776341
C            3.57741414570222       -0.00751441596086        0.02834070416345
C            5.04508203915027       -0.00449173166529        0.01406211671603
C            5.75158834768186        0.99494046624648       -0.65744519443399
C            7.13102693768902        0.99468700224559       -0.67717864583114
C            7.85664461458958       -0.00058637156730       -0.02279387208664
C            9.32616324212663       -0.00031363533423       -0.04719645361379
C           10.03506631784016       -1.18876986586430       -0.21423589347038
C           11.41729555185837       -1.18676709463149       -0.24551247180464
C           12.11626062195565        0.00095177443553       -0.10420806302804
C           11.42261751298926        1.18787092201060        0.06687059826372
C           10.04027112336784        1.18859519582106        0.09242098033353
C            7.15126863109545       -0.99674328416691        0.65196615311213
C            5.77169006034916       -1.00059794699163        0.66877608017471
C            2.86664246546980       -1.09106748247857       -0.54656416555010
C            3.53883998945013       -2.13896816659585       -1.20811564167443
C            2.85258097677025       -3.15736382297722       -1.82855754125688
C            1.46065630589506       -3.14353790711362       -1.84880688815695
C            0.77432681094523       -2.11913203955068       -1.23469198518722
C            1.44072247452471       -1.09517699319901       -0.54045096563246
C           -1.43872761986465        1.03993943717802       -0.63424327745573
C           -0.77047331105405        1.99877523322183       -1.41464528646738
C           -1.45503094714316        2.97001331450013       -2.11098872872610
C           -2.84714648606886        2.99282627106602       -2.08579089885638
C           -3.53549181923932        2.03294184499844       -1.38087332846324
C           -2.86464758271845        1.03906986224464       -0.63885572893208
C           -5.76876432273019        1.04007765079260        0.59776660802103
C           -7.14860264573728        1.03348618506768        0.58916569751955
C          -10.02038020821110       -0.34987030785511       -1.20504808532385
C          -11.40288588234287       -0.34468086418246       -1.22473380287246
H          -13.19511372627776        0.00808572869361       -0.10476226829058
H          -11.98472091295778        0.62709759223127        1.95554263029268
H           -9.52768285064999        0.61680799687309        1.99414122406332
H           -7.66101447040363       -1.84198184947992       -1.10441725747661
H           -5.20751139740511       -1.83705844120741       -1.07797712603930
H           -4.63871448637326       -2.00949528149076        1.43358322335831
H           -3.43084668806132       -3.72952483351065        2.68967491533308
H           -0.95609122996071       -3.68561161883258        2.77797955327649
H            0.28238975434192       -1.95966142584458        1.56654947710739
H           -0.28814618601128        2.08378696534851        1.38769021754728
H            0.94576861524367        3.90361644304605        2.45716519508080
H            3.42161182104424        3.93035579007197        2.39079338579758
H            4.63315108829723        2.10819340744115        1.29248153173530
H            5.20483947474958        1.76284017785330       -1.18653426141194
H            7.65633564266526        1.76238787111807       -1.22699610302442
H            9.49630381629012       -2.11676692409438       -0.34205227318872
H           11.95251254096644       -2.11559222037450       -0.38313504960135
H           13.19638561622634        0.00152524499998       -0.12698512463363
H           11.96222553792158        2.11715586182193        0.18248796538575
H            9.50635014486822        2.11609637964230        0.24226047084195
H            7.69289294784329       -1.76320554727092        1.18749708571765
H            5.24110600400145       -1.76964886055227        1.21248202882737
H            4.61762683033088       -2.12796307284731       -1.24012970850364
H            3.39407634937617       -3.95332295170054       -2.31877799464947
H            0.91745625265958       -3.92501087588247       -2.35965729594548
H           -0.30369649947633       -2.09990698570114       -1.28679452020822
H            0.30732822639253        1.97053445492655       -1.46761616810966
H           -0.91090478763670        3.70237073428810       -2.68919421223943
H           -3.38688565458886        3.74817274046463       -2.63825827121903
H           -4.61454110321383        2.02505814978115       -1.40644076426740
H           -5.23578466852585        1.84509056731819        1.08407505754947
H           -7.68918417658938        1.84763103663430        1.05033672576489
H           -9.47094873712723       -0.60960315655711       -2.09864226287511
H          -11.92800633672455       -0.61426621882668       -2.13009426350360

          :  Hamiltonian                  GFN2-xTB          :
         :: gradient norm              0.000051695866 Eh/a0 ::
         :: HOMO-LUMO gap              0.364413728828 eV    ::
         :: SCC energy              -131.193507764245 Eh    ::
         :: -> dispersion             -0.125518185545 Eh    ::
         :: -> Gsolv                  -0.051538880743 Eh    ::
         :: repulsion energy           2.521740133396 Eh    ::

    * Orbital Energies and Occupations

         #    Occupation            Energy/Eh            Energy/eV
      -------------------------------------------------------------
         1        2.0000           -0.6538186             -17.7913
       ...           ...                  ...                  ...
       110        2.0000           -0.4061655             -11.0523
       111        2.0000           -0.4045475             -11.0083
       112        2.0000           -0.4039961             -10.9933
       113        2.0000           -0.4038173             -10.9884
       114        2.0000           -0.4009874             -10.9114
       115        2.0000           -0.4003573             -10.8943
       116        2.0000           -0.3985314             -10.8446
       117        2.0000           -0.3951389             -10.7523
       118        2.0000           -0.3844398             -10.4611
       119        2.0000           -0.3840122             -10.4495
       120        1.9995           -0.3603104              -9.8045
       121        1.0005           -0.3459723              -9.4144
       122        0.9991           -0.2896470              -7.8817 (HOMO)
       123        0.0009           -0.2762550              -7.5173 (LUMO)
       124                         -0.2450580              -6.6684
       125                         -0.2446999              -6.6586
       126                         -0.2289370              -6.2297
       127                         -0.2277732              -6.1980
       128                         -0.2237205              -6.0877
       129                         -0.2230963              -6.0708
       130                         -0.2221100              -6.0439
       131                         -0.2220188              -6.0414
       132                         -0.2211874              -6.0188
       133                         -0.2188645              -5.9556
       ...                                ...                  ...
       242                          0.7082867              19.2735
      -------------------------------------------------------------
                  HL-Gap            0.0133920 Eh            0.3644 eV

     #   Z          covCN         q      C6AA      α(0)
     1   6 C        2.920    -0.032    28.805     8.801
     2   6 C        2.918    -0.031    28.767     8.795
     3   6 C        2.925    -0.035    28.864     8.810
     4   6 C        2.976     0.009    27.807     8.650
     5   6 C        2.976     0.007    27.851     8.657
     6   6 C        2.922    -0.035    28.874     8.812
     7   6 C        2.922    -0.033    28.820     8.804
     8   6 C        2.975     0.014    27.704     8.634
     9   6 C        2.975    -0.009    28.238     8.717
    10   6 C        2.979     0.006    27.870     8.660
    11   6 C        2.920    -0.038    28.942     8.822
    12   6 C        2.914    -0.032    28.790     8.799
    13   6 C        2.915    -0.032    28.793     8.799
    14   6 C        2.920    -0.035    28.869     8.811
    15   6 C        2.978     0.008    27.847     8.656
    16   6 C        2.971    -0.003    28.099     8.695
    17   6 C        2.971    -0.003    28.101     8.695
    18   6 C        2.978     0.008    27.847     8.656
    19   6 C        2.920    -0.035    28.872     8.811
    20   6 C        2.915    -0.032    28.794     8.799
    21   6 C        2.914    -0.032    28.792     8.799
    22   6 C        2.921    -0.038    28.944     8.822
    23   6 C        2.979     0.006    27.870     8.660
    24   6 C        2.974    -0.009    28.243     8.717
    25   6 C        2.975     0.014    27.707     8.634
    26   6 C        2.922    -0.033    28.821     8.804
    27   6 C        2.922    -0.035    28.877     8.812
    28   6 C        2.976     0.007    27.853     8.657
    29   6 C        2.976     0.009    27.810     8.650
    30   6 C        2.925    -0.035    28.865     8.811
    31   6 C        2.918    -0.031    28.768     8.795
    32   6 C        2.920    -0.032    28.806     8.801
    33   6 C        2.918    -0.031    28.768     8.795
    34   6 C        2.925    -0.035    28.865     8.811
    35   6 C        2.922    -0.035    28.877     8.812
    36   6 C        2.922    -0.033    28.822     8.804
    37   6 C        2.979     0.007    27.870     8.660
    38   6 C        2.921    -0.038    28.946     8.823
    39   6 C        2.914    -0.032    28.793     8.799
    40   6 C        2.915    -0.032    28.794     8.799
    41   6 C        2.920    -0.035    28.875     8.812
    42   6 C        2.978     0.008    27.846     8.656
    43   6 C        2.978     0.008    27.846     8.656
    44   6 C        2.920    -0.035    28.872     8.812
    45   6 C        2.915    -0.032    28.793     8.799
    46   6 C        2.914    -0.032    28.791     8.799
    47   6 C        2.921    -0.038    28.943     8.822
    48   6 C        2.979     0.007    27.870     8.660
    49   6 C        2.922    -0.033    28.821     8.804
    50   6 C        2.922    -0.035    28.875     8.812
    51   6 C        2.925    -0.035    28.864     8.810
    52   6 C        2.918    -0.031    28.767     8.795
    53   1 H        0.926     0.030     2.585     2.514
    54   1 H        0.926     0.030     2.579     2.511
    55   1 H        0.926     0.032     2.559     2.502
    56   1 H        0.926     0.033     2.539     2.492
    57   1 H        0.926     0.032     2.562     2.503
    58   1 H        0.926     0.033     2.548     2.496
    59   1 H        0.926     0.029     2.594     2.519
    60   1 H        0.926     0.029     2.598     2.521
    61   1 H        0.926     0.030     2.592     2.518
    62   1 H        0.926     0.030     2.593     2.518
    63   1 H        0.926     0.029     2.600     2.521
    64   1 H        0.926     0.029     2.595     2.519
    65   1 H        0.926     0.033     2.546     2.495
    66   1 H        0.926     0.032     2.562     2.503
    67   1 H        0.926     0.033     2.540     2.492
    68   1 H        0.926     0.032     2.560     2.502
    69   1 H        0.926     0.030     2.581     2.512
    70   1 H        0.926     0.030     2.586     2.515
    71   1 H        0.926     0.030     2.581     2.512
    72   1 H        0.926     0.032     2.560     2.502
    73   1 H        0.926     0.033     2.540     2.492
    74   1 H        0.926     0.032     2.560     2.502
    75   1 H        0.926     0.033     2.544     2.494
    76   1 H        0.926     0.029     2.595     2.519
    77   1 H        0.926     0.029     2.600     2.522
    78   1 H        0.926     0.030     2.592     2.518
    79   1 H        0.926     0.030     2.591     2.517
    80   1 H        0.926     0.029     2.599     2.521
    81   1 H        0.926     0.029     2.594     2.519
    82   1 H        0.926     0.033     2.546     2.495
    83   1 H        0.926     0.032     2.561     2.502
    84   1 H        0.926     0.033     2.539     2.492
    85   1 H        0.926     0.032     2.559     2.502
    86   1 H        0.926     0.030     2.579     2.512

molecular dipole:
                 x           y           z       tot (Debye)
 q only:       -0.025       0.000      -0.002
   full:       -0.026       0.000      -0.005       0.068

 projected vibrational frequencies (cm⁻¹)
eigval :       -0.00    -0.00    -0.00     0.00     0.00     0.00
eigval :        3.79     9.06     9.56    20.09    23.96    31.26
eigval :       41.81    43.93    45.74    66.69    70.49    75.69
eigval :       85.82    87.40    88.93    98.15   101.15   105.41
eigval :      106.81   123.46   149.45   155.45   175.77   180.15
eigval :      201.91   213.72   217.61   224.99   231.54   243.46
eigval :      274.39   302.68   314.13   315.55   357.81   364.21
eigval :      365.54   367.54   367.78   375.61   377.71   379.76
eigval :      390.76   395.30   404.01   406.70   408.69   416.03
eigval :      427.09   436.08   439.02   443.14   467.38   470.09
eigval :      481.06   487.48   521.74   529.58   548.73   556.84
eigval :      576.62   577.54   579.42   585.11   586.85   590.69
eigval :      592.64   592.83   606.82   616.07   616.62   628.13
eigval :      635.69   649.74   664.71   667.69   670.89   675.50
eigval :      685.18   696.14   699.35   706.31   725.82   728.74
eigval :      749.06   754.18   755.59   756.25   759.82   761.26
eigval :      764.27   766.85   818.91   825.45   834.09   858.77
eigval :      859.54   860.76   862.31   870.60   873.10   877.52
eigval :      883.33   886.49   897.92   898.47   900.64   902.73
eigval :      903.50   904.08   905.08   912.78   913.07   914.02
eigval :      914.43   914.88   915.32   922.13   926.17   926.88
eigval :      927.22   930.36   931.63   932.32   932.51   937.69
eigval :      955.47   967.46   967.54  1009.03  1010.58  1067.18
eigval :     1071.01  1074.62  1076.90  1086.83  1087.48  1100.91
eigval :     1101.30  1101.45  1102.19  1120.98  1121.69  1128.22
eigval :     1128.82  1139.60  1140.61  1146.78  1180.57  1181.46
eigval :     1181.61  1181.84  1182.22  1185.74  1186.45  1192.77
eigval :     1193.75  1200.10  1201.56  1213.08  1214.52  1233.85
eigval :     1239.21  1258.24  1259.48  1271.17  1272.20  1274.63
eigval :     1280.98  1282.54  1290.96  1291.62  1293.02  1305.69
eigval :     1309.09  1311.29  1316.31  1316.40  1332.05  1340.18
eigval :     1340.55  1347.07  1349.13  1354.39  1369.16  1380.16
eigval :     1392.42  1392.55  1404.32  1409.82  1412.30  1414.33
eigval :     1416.74  1418.24  1431.15  1431.29  1438.64  1461.13
eigval :     1462.30  1472.93  1496.89  1498.82  1512.63  1515.63
eigval :     1516.20  1542.19  1542.55  1544.14  1545.40  1546.42
eigval :     1565.95  1567.32  1579.34  1579.68  1583.02  1585.10
eigval :     1599.51  1599.56  3065.53  3065.97  3066.39  3066.60
eigval :     3067.86  3068.10  3068.87  3069.54  3070.74  3070.86
eigval :     3071.47  3071.55  3075.15  3075.17  3078.10  3078.21
eigval :     3079.17  3079.27  3079.55  3079.61  3079.90  3080.13
eigval :     3081.97  3082.47  3087.70  3087.88  3090.74  3091.09
eigval :     3092.19  3092.96  3094.84  3095.08  3095.75  3097.44

   temp. (K)  partition function   enthalpy   heat capacity  entropy
                                   cal/mol     cal/K/mol   cal/K/mol   J/K/mol
 298.15  VIB  0.343E+20            24003.183    153.550    151.102
         ROT  0.108E+09              888.752      2.981     39.746
         INT  0.372E+28            24891.936    156.531    190.848
         TR   0.164E+29             1481.254      4.968     45.317
         TOT                       26373.1895   161.4988   236.1648   988.1134

       T/K    H(0)-H(T)+PV         H(T)/Eh          T*S/Eh         G(T)/Eh
   ------------------------------------------------------------------------
    298.15    0.420284E-01    0.707073E+00    0.112210E+00    0.594863E+00
   ------------------------------------------------------------------------

         :::::::::::::::::::::::::::::::::::::::::::::::::::::
         ::                  THERMODYNAMIC                  ::
         :::::::::::::::::::::::::::::::::::::::::::::::::::::
         :: total free energy        -128.076904150062 Eh   ::
         ::.................................................::
         :: total energy             -128.671767629019 Eh   ::
         :: zero point energy           0.665044632383 Eh   ::
         :: G(RRHO) w/o ZPVE           -0.070181153426 Eh   ::
         :: G(RRHO) contrib.            0.594863478957 Eh   ::
         :::::::::::::::::::::::::::::::::::::::::::::::::::::

           -------------------------------------------------
          | TOTAL ENERGY             -128.671767629019 Eh   |
          | TOTAL ENTHALPY           -127.964694643897 Eh   |
          | TOTAL FREE ENERGY        -128.076904150062 Eh   |
          | GRADIENT NORM               0.000051639220 Eh/α |
          | HOMO-LUMO GAP               0.364414427076 eV   |
           -------------------------------------------------

 * finished run on 2025/08/24 at 05:59:33.222
