   * xtb version 6.7.1 (edcfbbe) compiled by 'albert@albert-system' on 2024-07-22

   ID    Z sym.   atoms
    1    6 C      1-52
    2    1 H      53-86

          program call               : xtb data2507/toluene/BANE/BANE.xyz --gfn 2 --gbsa toluene --ohess vtight --parallel 40 --molden --ceasefiles --namespace data2507/toluene/BANE/BANE_toluene_S0_preOpt
      * Solvation model:               GBSA
        Solvent                        toluene
        Solvent mass                       9.2140E+01 g/mol
          :  Hamiltonian                  GFN2-xTB          :
 * total energy  :  -128.7120034 Eh     change       -0.6781988E-09 Eh
 * total energy  :  -128.7303214 Eh     change       -0.1831804E-01 Eh
 * total energy  :  -128.7354472 Eh     change       -0.5125784E-02 Eh
 * total energy  :  -128.7361080 Eh     change       -0.6607459E-03 Eh
 * total energy  :  -128.7364913 Eh     change       -0.3832952E-03 Eh
 * total energy  :  -128.7366659 Eh     change       -0.1746531E-03 Eh
 * total energy  :  -128.7368214 Eh     change       -0.1555129E-03 Eh
 * total energy  :  -128.7369447 Eh     change       -0.1232803E-03 Eh
 * total energy  :  -128.7370143 Eh     change       -0.6955129E-04 Eh
 * total energy  :  -128.7370826 Eh     change       -0.6828802E-04 Eh
 * total energy  :  -128.7372622 Eh     change       -0.6715660E-06 Eh
 * total energy  :  -128.7372628 Eh     change       -0.6173461E-06 Eh
 * total energy  :  -128.7372634 Eh     change       -0.6031796E-06 Eh
 * total energy  :  -128.7372640 Eh     change       -0.5921659E-06 Eh
 * total energy  :  -128.7372646 Eh     change       -0.5639066E-06 Eh
 * total energy  :  -128.7372651 Eh     change       -0.5104313E-06 Eh
 * total energy  :  -128.7372656 Eh     change       -0.4552356E-06 Eh
 * total energy  :  -128.7372660 Eh     change       -0.4170537E-06 Eh
 * total energy  :  -128.7372660 Eh     change       -0.4527124E-08 Eh
   *** GEOMETRY OPTIMIZATION CONVERGED AFTER 44 ITERATIONS ***

 final structure:
================
86
 xtb: 6.7.1 (edcfbbe)
C          -12.10745821086127        0.00100542910658       -0.00020669124836
C          -11.41131917080626        0.61735100593175        1.02661435883192
C          -10.02851288263566        0.61998458559950        1.02599659640630
C           -9.31792945520078        0.00057607803744       -0.00000826184337
C           -7.84644799787167        0.00028844945327        0.00015206506431
C           -7.13373363761486        1.14842580298581        0.33985309595907
C           -5.75218829739247        1.14899296932401        0.33844175090015
C           -5.04506190065522       -0.00014590417385        0.00015300901424
C           -3.56384674206983       -0.00031260271672        0.00008124559712
C           -2.86751594889999        0.20053280221560       -1.19899510552834
C           -3.54378472935409        0.41844530243673       -2.42862021513431
C           -2.85517578159359        0.61379918939705       -3.58610043788986
C           -1.44489944719807        0.60299235218257       -3.58718996199019
C           -0.75869149061443        0.40168297192420       -2.42954539167386
C           -1.43795529767283        0.19773316884566       -1.19958357964997
C           -0.74150972831123       -0.00042292497216       -0.00006857203617
C            0.74151056675901       -0.00038041273861       -0.00012268991836
C            1.43795107080715       -1.19989851630139       -0.19827454525691
C            0.75868512980687       -2.42985503503530       -0.40224519488673
C            1.44489255175837       -3.58750768488348       -0.60351500810903
C            2.85516982111542       -3.58643498873638       -0.61425206648466
C            3.54378088408348       -2.42895877490911       -0.41888658274140
C            2.86751288899898       -1.19932463821584       -0.20102082049105
C            3.56384739358797       -0.00025927359073       -0.00013506651556
C            5.04506250549516       -0.00018990524930       -0.00010315914057
C            5.75234304188575       -0.33838747762326        1.14896663066455
C            7.13388770383336       -0.33965389111637        1.14824901656882
C            7.84644715938774        0.00009335707191        0.00002722596472
C            9.31792883619151        0.00035265376966        0.00017316481773
C           10.02841015225792        1.02652254610181       -0.61908086717530
C           11.41121556675093        1.02743591400235       -0.61618603383928
C           12.10745678298815        0.00073947359982        0.00025317588059
C           11.41146344272498       -1.02612833448493        0.61668570254337
C           10.02865619395749       -1.02560985295741        0.61949121922197
C            7.13393472385938        0.33966138020625       -1.14827396598568
C            5.75238709608511        0.33810546068139       -1.14911702725387
C            2.86741206833870        1.19874850340410        0.20075863793370
C            3.54357273653642        2.42843706136661        0.41865165305381
C            2.85486253025629        3.58584851846851        0.61405287064375
C            1.44458577805826        3.58680036066137        0.60331503241509
C            0.75847956807566        2.42909368175445        0.40201182677073
C            1.43785119173613        1.19919952042832        0.19801729582213
C           -1.43784564917846       -0.19856123761613        1.19951411305523
C           -0.75847187703604       -0.40257661149675        2.42940355542063
C           -1.44457722728315       -0.60384283644852        3.58711748105564
C           -2.85485474204904       -0.61451818730144        3.58618077151168
C           -3.54356735098136       -0.41909959523002        2.42877380642156
C           -2.86740767803240       -0.20124883606812        1.19907745070409
C           -5.75254180677318       -1.14908031337244       -0.33808431321581
C           -7.13408872017800       -1.14808713059097       -0.33949376879163
C          -10.02855594527133       -0.61859506725315       -1.02613100727529
C          -11.41136228047586       -0.61553176834023       -1.02694311144125
H          -13.18780679164487        0.00116930350892       -0.00028131006275
H          -11.94893501657107        1.09669214080097        1.83241301536288
H           -9.49124306803632        1.08917308995210        1.83784166594809
H           -7.66836262421617        2.05410222631425        0.58795916526860
H           -5.20987255962754        2.04764599811461        0.59743180387426
H           -4.62413203391532        0.42783891830335       -2.42543396869975
H           -3.38318983193878        0.77922129643259       -4.51419554401264
H           -0.91555961387412        0.75776651430596       -4.51630877554319
H            0.32166884398226        0.39461676117638       -2.42600213351399
H           -0.32167591292660       -2.42630250138971       -0.39523115609483
H            0.91555060530096       -4.51662160251994       -0.75830591483359
H            3.38318208196949       -4.51453982733703       -0.77963019664837
H            4.62412884306425       -2.42577942573734       -0.42821951817853
H            5.21014851390894       -0.59740529759880        2.04768492017091
H            7.66864072623704       -0.58771084504862        2.05386598516040
H            9.49105671236597        1.83824480891730       -1.08838466573161
H           11.94875101018684        1.83334076527139       -1.09543656193053
H           13.18780547032067        0.00088496297960        0.00028077119346
H           11.94919623477758       -1.83189103846311        1.09595674315629
H            9.49150063435646       -1.83748730168625        1.08875507704175
H            7.66872176536125        0.58783549362456       -2.05383804798076
H            5.21022658721205        0.59702895243816       -2.04788272648463
H            4.62392060114148        2.42535135698668        0.42799568732859
H            3.38279426410228        4.51399090687202        0.77947737317612
H            0.91516214195937        4.51586612364518        0.75811581040872
H           -0.32188082284503        2.42545456013909        0.39498774393069
H            0.32188896230439       -0.39560471499347        2.42575264018920
H           -0.91515197253149       -0.75866610934127        4.51617843575758
H           -3.38278527618075       -0.77990010674832        4.51433152199072
H           -4.62391594838995       -0.42838646448672        2.42569671934149
H           -5.21050433312300       -2.04790571027340       -0.59705807656668
H           -7.66899755903804       -2.05358790567434       -0.58763662537810
H           -9.49131844713677       -1.08796773058804       -1.83789026980707
H          -11.94901457588081       -1.09470533543104       -1.83281589455836

          :  Hamiltonian                  GFN2-xTB          :
         :: gradient norm              0.000053506126 Eh/a0 ::
         :: HOMO-LUMO gap              2.176665492729 eV    ::
         :: SCC energy              -131.281345444636 Eh    ::
         :: -> dispersion             -0.124734365993 Eh    ::
         :: -> Gsolv                  -0.052243560528 Eh    ::
         :: repulsion energy           2.544079463174 Eh    ::

    * Orbital Energies and Occupations

         #    Occupation            Energy/Eh            Energy/eV
      -------------------------------------------------------------
         1        2.0000           -0.6554577             -17.8359
       ...           ...                  ...                  ...
       109        2.0000           -0.4069578             -11.0739
       110        2.0000           -0.4060443             -11.0490
       111        2.0000           -0.4049412             -11.0190
       112        2.0000           -0.4038642             -10.9897
       113        2.0000           -0.4037865             -10.9876
       114        2.0000           -0.4036957             -10.9851
       115        2.0000           -0.3988399             -10.8530
       116        2.0000           -0.3980520             -10.8315
       117        2.0000           -0.3972115             -10.8087
       118        2.0000           -0.3830098             -10.4222
       119        2.0000           -0.3830096             -10.4222
       120        2.0000           -0.3581577              -9.7460
       121        2.0000           -0.3581577              -9.7460 (HOMO)
       122                         -0.2781667              -7.5693 (LUMO)
       123                         -0.2781667              -7.5693
       124                         -0.2444146              -6.6509
       125                         -0.2444142              -6.6508
       126                         -0.2312440              -6.2925
       127                         -0.2298535              -6.2546
       128                         -0.2231965              -6.0735
       129                         -0.2231040              -6.0710
       130                         -0.2219366              -6.0392
       131                         -0.2219364              -6.0392
       132                         -0.2195655              -5.9747
       ...                                ...                  ...
       242                          0.7147745              19.4500
      -------------------------------------------------------------
                  HL-Gap            0.0799910 Eh            2.1767 eV

     #   Z          covCN         q      C6AA      α(0)
     1   6 C        2.920    -0.032    28.808     8.802
     2   6 C        2.918    -0.031    28.769     8.796
     3   6 C        2.925    -0.035    28.866     8.811
     4   6 C        2.976     0.009    27.810     8.650
     5   6 C        2.976     0.007    27.867     8.659
     6   6 C        2.923    -0.035    28.870     8.811
     7   6 C        2.922    -0.033    28.831     8.805
     8   6 C        2.977     0.014    27.702     8.633
     9   6 C        2.977    -0.007    28.181     8.708
    10   6 C        2.984     0.005    27.908     8.666
    11   6 C        2.917    -0.034    28.859     8.809
    12   6 C        2.914    -0.031    28.766     8.795
    13   6 C        2.914    -0.031    28.767     8.795
    14   6 C        2.917    -0.033    28.821     8.803
    15   6 C        2.984     0.006    27.886     8.662
    16   6 C        2.977    -0.001    28.050     8.688
    17   6 C        2.977    -0.001    28.050     8.688
    18   6 C        2.984     0.006    27.886     8.662
    19   6 C        2.917    -0.033    28.821     8.803
    20   6 C        2.914    -0.031    28.767     8.795
    21   6 C        2.914    -0.031    28.766     8.795
    22   6 C        2.917    -0.034    28.859     8.809
    23   6 C        2.984     0.005    27.908     8.666
    24   6 C        2.977    -0.007    28.181     8.708
    25   6 C        2.977     0.014    27.702     8.633
    26   6 C        2.922    -0.033    28.831     8.805
    27   6 C        2.923    -0.035    28.871     8.811
    28   6 C        2.976     0.007    27.867     8.659
    29   6 C        2.976     0.009    27.810     8.650
    30   6 C        2.925    -0.035    28.866     8.811
    31   6 C        2.918    -0.031    28.769     8.796
    32   6 C        2.920    -0.032    28.808     8.802
    33   6 C        2.918    -0.031    28.769     8.796
    34   6 C        2.925    -0.035    28.866     8.811
    35   6 C        2.923    -0.035    28.870     8.811
    36   6 C        2.922    -0.033    28.831     8.805
    37   6 C        2.984     0.005    27.908     8.666
    38   6 C        2.917    -0.034    28.859     8.809
    39   6 C        2.914    -0.031    28.766     8.795
    40   6 C        2.914    -0.031    28.767     8.795
    41   6 C        2.917    -0.033    28.821     8.803
    42   6 C        2.984     0.006    27.886     8.662
    43   6 C        2.984     0.006    27.886     8.662
    44   6 C        2.917    -0.033    28.821     8.803
    45   6 C        2.914    -0.031    28.767     8.795
    46   6 C        2.914    -0.031    28.766     8.795
    47   6 C        2.917    -0.034    28.859     8.809
    48   6 C        2.984     0.005    27.908     8.666
    49   6 C        2.922    -0.033    28.831     8.805
    50   6 C        2.923    -0.035    28.871     8.811
    51   6 C        2.925    -0.035    28.866     8.811
    52   6 C        2.918    -0.031    28.769     8.796
    53   1 H        0.926     0.030     2.586     2.515
    54   1 H        0.926     0.030     2.581     2.512
    55   1 H        0.926     0.032     2.563     2.504
    56   1 H        0.926     0.033     2.545     2.495
    57   1 H        0.926     0.029     2.599     2.521
    58   1 H        0.926     0.030     2.581     2.512
    59   1 H        0.926     0.030     2.588     2.516
    60   1 H        0.926     0.029     2.594     2.519
    61   1 H        0.926     0.029     2.604     2.523
    62   1 H        0.926     0.029     2.604     2.523
    63   1 H        0.926     0.029     2.594     2.519
    64   1 H        0.926     0.030     2.588     2.516
    65   1 H        0.926     0.030     2.581     2.512
    66   1 H        0.926     0.029     2.599     2.521
    67   1 H        0.926     0.033     2.545     2.495
    68   1 H        0.926     0.032     2.563     2.504
    69   1 H        0.926     0.030     2.581     2.512
    70   1 H        0.926     0.030     2.586     2.515
    71   1 H        0.926     0.030     2.581     2.512
    72   1 H        0.926     0.032     2.563     2.504
    73   1 H        0.926     0.033     2.545     2.495
    74   1 H        0.926     0.029     2.599     2.521
    75   1 H        0.926     0.030     2.581     2.512
    76   1 H        0.926     0.030     2.588     2.516
    77   1 H        0.926     0.029     2.594     2.519
    78   1 H        0.926     0.029     2.604     2.523
    79   1 H        0.926     0.029     2.604     2.523
    80   1 H        0.926     0.029     2.594     2.519
    81   1 H        0.926     0.030     2.588     2.516
    82   1 H        0.926     0.030     2.581     2.512
    83   1 H        0.926     0.029     2.599     2.521
    84   1 H        0.926     0.033     2.545     2.495
    85   1 H        0.926     0.032     2.563     2.504
    86   1 H        0.926     0.030     2.581     2.512

molecular dipole:
                 x           y           z       tot (Debye)
 q only:        0.000       0.000      -0.000
   full:        0.000       0.000       0.000       0.000

 projected vibrational frequencies (cm⁻¹)
eigval :       -0.00    -0.00     0.00     0.00     0.00     0.00
eigval :        7.58     8.34    17.64    21.81    24.12    24.78
eigval :       25.51    49.53    49.92    65.02    65.13    72.75
eigval :       73.08    86.34    87.35    98.48   104.63   104.87
eigval :      105.10   112.48   151.56   159.61   159.64   168.81
eigval :      201.00   201.30   211.00   211.97   225.76   225.82
eigval :      269.24   307.26   307.28   315.33   365.27   365.32
eigval :      372.65   372.66   373.65   375.88   378.33   392.06
eigval :      392.07   405.15   414.23   415.38   415.40   427.75
eigval :      427.75   439.82   441.48   448.81   456.16   458.05
eigval :      487.03   487.04   524.46   524.47   556.63   556.63
eigval :      581.44   581.44   584.65   586.60   586.61   592.18
eigval :      592.20   594.38   617.52   617.52   619.82   641.79
eigval :      641.79   653.07   670.59   670.80   673.25   688.96
eigval :      692.58   700.64   700.65   701.43   738.65   738.65
eigval :      751.24   760.85   760.97   762.40   773.03   773.03
eigval :      774.86   775.63   817.02   817.05   841.93   873.01
eigval :      873.08   875.06   875.06   876.90   877.20   884.96
eigval :      885.15   896.34   896.34   904.33   904.35   914.91
eigval :      915.33   917.33   917.34   918.39   918.39   918.73
eigval :      919.45   926.87   926.88   927.63   927.63   927.66
eigval :      928.50   931.57   931.57   936.02   936.03   936.07
eigval :      936.07   968.27   968.58  1010.64  1012.89  1062.81
eigval :     1075.47  1076.13  1076.97  1076.97  1078.03  1078.63
eigval :     1087.71  1087.75  1121.93  1121.93  1133.72  1133.72
eigval :     1138.71  1138.71  1153.83  1177.87  1177.87  1178.23
eigval :     1181.60  1183.93  1183.94  1187.38  1193.60  1193.98
eigval :     1202.33  1202.67  1216.20  1217.35  1225.65  1225.65
eigval :     1253.51  1255.36  1261.50  1261.50  1271.79  1271.79
eigval :     1282.04  1282.08  1292.54  1293.09  1296.25  1306.49
eigval :     1306.49  1316.53  1316.53  1331.32  1348.46  1348.46
eigval :     1356.22  1384.07  1384.07  1386.39  1392.12  1392.12
eigval :     1417.55  1420.20  1428.45  1428.45  1431.96  1431.96
eigval :     1440.74  1449.55  1464.22  1469.85  1479.44  1487.37
eigval :     1506.87  1506.89  1524.91  1524.91  1529.85  1529.85
eigval :     1542.34  1542.99  1557.16  1557.17  1581.51  1581.66
eigval :     1595.28  1595.30  1603.07  1603.08  1607.67  1607.67
eigval :     1622.08  1622.34  3066.20  3066.20  3066.34  3066.34
eigval :     3068.07  3068.09  3068.09  3068.12  3068.37  3068.37
eigval :     3068.49  3068.60  3073.01  3073.18  3073.18  3073.45
eigval :     3075.67  3075.67  3078.28  3078.28  3079.99  3079.99
eigval :     3080.88  3081.34  3081.34  3081.84  3081.97  3082.18
eigval :     3087.55  3087.55  3088.06  3088.07  3088.84  3089.98

   temp. (K)  partition function   enthalpy   heat capacity  entropy
                                   cal/mol     cal/K/mol   cal/K/mol   J/K/mol
 298.15  VIB  0.242E+20            23984.616    152.275    150.668
         ROT  0.538E+08              888.752      2.981     38.355
         INT  0.130E+28            24873.368    155.256    189.023
         TR   0.164E+29             1481.254      4.968     45.317
         TOT                       26354.6218   160.2243   234.3398   980.4775

       T/K    H(0)-H(T)+PV         H(T)/Eh          T*S/Eh         G(T)/Eh
   ------------------------------------------------------------------------
    298.15    0.419988E-01    0.710025E+00    0.111342E+00    0.598683E+00
   ------------------------------------------------------------------------

         :::::::::::::::::::::::::::::::::::::::::::::::::::::
         ::                  THERMODYNAMIC                  ::
         :::::::::::::::::::::::::::::::::::::::::::::::::::::
         :: total free energy        -128.138582931770 Eh   ::
         ::.................................................::
         :: total energy             -128.737265980459 Eh   ::
         :: zero point energy           0.668026666305 Eh   ::
         :: G(RRHO) w/o ZPVE           -0.069343617615 Eh   ::
         :: G(RRHO) contrib.            0.598683048689 Eh   ::
         :::::::::::::::::::::::::::::::::::::::::::::::::::::

           -------------------------------------------------
          | TOTAL ENERGY             -128.737265980459 Eh   |
          | TOTAL ENTHALPY           -128.027240550958 Eh   |
          | TOTAL FREE ENERGY        -128.138582931770 Eh   |
          | GRADIENT NORM               0.000053519372 Eh/α |
          | HOMO-LUMO GAP               2.176665492622 eV   |
           -------------------------------------------------

 * finished run on 2025/08/24 at 05:49:19.507
