   * xtb version 6.7.1 (edcfbbe) compiled by 'albert@albert-system' on 2024-07-22

   ID    Z sym.   atoms
    1    6 C      1-52
    2    1 H      53-86

          program call               : xtb data2507/toluene/BANE/BANE_toluene_S0_crest.xyz --gfn 2 --gbsa toluene --ohess vtight --parallel 40 --molden --ceasefiles --namespace data2507/toluene/BANE/BANE_toluene_S0_finalOpt
      * Solvation model:               GBSA
        Solvent                        toluene
        Solvent mass                       9.2140E+01 g/mol
          :  Hamiltonian                  GFN2-xTB          :
 * total energy  :  -128.7373790 Eh     change       -0.3743139E-09 Eh
 * total energy  :  -128.7374036 Eh     change       -0.2458825E-04 Eh
 * total energy  :  -128.7374119 Eh     change       -0.8284734E-05 Eh
 * total energy  :  -128.7374158 Eh     change       -0.3925303E-05 Eh
 * total energy  :  -128.7374191 Eh     change       -0.3352415E-05 Eh
 * total energy  :  -128.7374206 Eh     change       -0.1462008E-05 Eh
 * total energy  :  -128.7374223 Eh     change       -0.1653583E-05 Eh
 * total energy  :  -128.7374244 Eh     change       -0.2174839E-05 Eh
 * total energy  :  -128.7374261 Eh     change       -0.1708050E-05 Eh
 * total energy  :  -128.7374275 Eh     change       -0.1333864E-05 Eh
 * total energy  :  -128.7374330 Eh     change       -0.1949087E-05 Eh
 * total energy  :  -128.7374348 Eh     change       -0.1788762E-05 Eh
 * total energy  :  -128.7374357 Eh     change       -0.8933320E-06 Eh
 * total energy  :  -128.7374358 Eh     change       -0.8407599E-07 Eh
 * total energy  :  -128.7374362 Eh     change       -0.4437635E-06 Eh
 * total energy  :  -128.7374366 Eh     change       -0.4087306E-06 Eh
 * total energy  :  -128.7374371 Eh     change       -0.4681068E-06 Eh
 * total energy  :  -128.7374373 Eh     change       -0.2631431E-06 Eh
 * total energy  :  -128.7374373 Eh     change       -0.4979171E-08 Eh
   *** GEOMETRY OPTIMIZATION CONVERGED AFTER 22 ITERATIONS ***

 final structure:
================
86
 xtb: 6.7.1 (edcfbbe)
C          -12.11089561384292        0.05186838747326        0.04571644963479
C          -11.40058985802363        1.11953780578689        0.56951917677119
C          -10.01792830357843        1.10705900594822        0.56022609976690
C           -9.32059828244457        0.02677195014057        0.02288645615116
C           -7.84960701154992        0.01329873325859        0.01168901834649
C           -7.14825809117681       -0.45557850388385       -1.09764115992566
C           -5.76709876720214       -0.46434724280838       -1.10993902947856
C           -5.04469501728514       -0.01198112036903       -0.00928096956184
C           -3.56650324935964       -0.02139936792908       -0.01902104756065
C           -2.86780401882825       -0.90469537089332        0.81788178065786
C           -3.53801494300695       -1.83239805633693        1.65898578732405
C           -2.84635966691304       -2.67552502049855        2.47360265996498
C           -1.43681545699885       -2.64960093253754        2.49615371525161
C           -0.75507209063111       -1.79116999150885        1.69020886482530
C           -1.43805147009405       -0.89927341049261        0.82191665825875
C           -0.74145426851694       -0.02601281779118       -0.02379861952730
C            0.74167189353736       -0.02157248500572       -0.01945978839058
C            1.43157097894112        0.86545281894853        0.81743513058779
C            0.74133693844981        1.76401652154092        1.67304132183093
C            1.41592630939700        2.63754164495499        2.46866161924391
C            2.82515795308802        2.67379342928852        2.44625742304945
C            3.52354610499382        1.82477661989011        1.64357747681215
C            2.86122867370058        0.87966018845513        0.81569736172269
C            3.56699209078502       -0.01105039375748       -0.00785188577628
C            5.04490184833815       -0.00436791144410       -0.00030669099220
C            5.75982443244828        0.42067457724950       -1.11680163766365
C            7.14089459991456        0.43524905466782       -1.10534152623357
C            7.85017652818451        0.01768975503227        0.01931876538753
C            9.32114183725337        0.03155305084386        0.03101425843964
C           10.03782554007392       -1.01781979815463        0.60299958952312
C           11.42047073874048       -1.00398126059473        0.61343181352582
C           12.11123651513832        0.05958003759136        0.05617175052545
C           11.40946377487938        1.10905806178399       -0.51388298592105
C           10.02686662072985        1.09492002088951       -0.52866287635539
C            7.13193658678398       -0.41247694602461        1.13352679140622
C            5.75086855271684       -0.41976384085546        1.12555146210607
C            2.87478594136941       -0.90657111682154       -0.83743562754316
C            3.55081503205278       -1.84638613711759       -1.66024675259995
C            2.86513352479562       -2.70008974993552       -2.46892227863477
C            1.45584295140487       -2.67418234618012       -2.50292415271156
C            0.76832034552123       -1.80608799985920       -1.71244242976140
C            1.44501953973438       -0.90295144495773       -0.85088946401772
C           -1.43811948724567        0.84645703321904       -0.87028583123192
C           -0.75501277924777        1.73505299911778       -1.74185993159671
C           -1.43649353868227        2.59403849906804       -2.54742093473361
C           -2.84585954564198        2.62445812312036       -2.52050323628411
C           -3.53760408899808        1.78525540709040       -1.70193129010523
C           -2.86782798224314        0.85660217746284       -0.86154741996042
C           -5.74251404311257        0.45270389791441        1.10217339472899
C           -7.12351354572750        0.46897754152187        1.11058130971132
C          -10.04586689039595       -1.04058482940567       -0.50314729174291
C          -11.42850175865651       -1.02818979632560       -0.48964957802951
H          -13.19113651237450        0.06135751708874        0.05463249985514
H          -11.92703465269720        1.96703424114429        0.98511939386342
H           -9.47072892831607        1.95124369035038        0.95476655754540
H           -7.69166484484299       -0.79720543861549       -1.96687799461379
H           -5.23621474563818       -0.82884015620962       -1.97833704254158
H           -4.61744441930017       -1.86086726078889        1.63804262430495
H           -3.37280632090162       -3.37431552505274        3.10777169256554
H           -0.90473515764596       -3.32264611579955        3.15289840053915
H            0.32512007331594       -1.77473303292848        1.69496667038412
H           -0.33869270689125        1.74009394764822        1.67693442688435
H            0.87833026365227        3.31508207793044        3.11621328164579
H            3.34608740796940        3.38535203401734        3.07070159696704
H            4.60263406572409        1.86190700417982        1.62265227903577
H            5.22291084328022        0.74656705639252       -1.99675460468741
H            7.67835036648376        0.75520302282603       -1.98646183389321
H            9.50595789364989       -1.85888587334338        1.02428823963138
H           11.96242662874559       -1.82747258791484        1.05641433532673
H           13.19146451945026        0.07047862101226        0.06620117782959
H           11.94256469593944        1.94341807169898       -0.94718301744978
H            9.48582446151477        1.92510525488812       -0.95971772923205
H            7.66195904896105       -0.72400625254770        2.02213728338694
H            5.20681358374336       -0.75393675078542        1.99797578329282
H            4.62997278547236       -1.87559277369453       -1.63046476399252
H            3.39627257373133       -3.40751073619891       -3.08945710492602
H            0.92864521394115       -3.35525721622466       -3.15530892654963
H           -0.31181927859857       -1.78969876012404       -1.72495857571020
H            0.32509756474054        1.71501546625449       -1.75007075974533
H           -0.90432733874645        3.26407076710177       -3.20716447858137
H           -3.37212601116365        3.32350683031493       -3.15453541227200
H           -4.61683210271007        1.81700037317111       -1.67781562698940
H           -5.19208036358596        0.80735411332598        1.96242501220376
H           -7.64756114239181        0.82030033362252        1.98779656843009
H           -9.52048149399461       -1.89444982498308       -0.90646116735691
H          -11.97694596068800       -1.86587156502986       -0.89652520877028

          :  Hamiltonian                  GFN2-xTB          :
         :: gradient norm              0.000051856484 Eh/a0 ::
         :: HOMO-LUMO gap              2.117580555866 eV    ::
         :: SCC energy              -131.279754609000 Eh    ::
         :: -> dispersion             -0.124877324630 Eh    ::
         :: -> Gsolv                  -0.052008461763 Eh    ::
         :: repulsion energy           2.542317269630 Eh    ::

    * Orbital Energies and Occupations

         #    Occupation            Energy/Eh            Energy/eV
      -------------------------------------------------------------
         1        2.0000           -0.6552303             -17.8297
       ...           ...                  ...                  ...
       109        2.0000           -0.4067501             -11.0682
       110        2.0000           -0.4055635             -11.0359
       111        2.0000           -0.4051504             -11.0247
       112        2.0000           -0.4037937             -10.9878
       113        2.0000           -0.4037368             -10.9862
       114        2.0000           -0.4027142             -10.9584
       115        2.0000           -0.3987640             -10.8509
       116        2.0000           -0.3978744             -10.8267
       117        2.0000           -0.3964534             -10.7880
       118        2.0000           -0.3837168             -10.4415
       119        2.0000           -0.3833851             -10.4324
       120        2.0000           -0.3573541              -9.7241
       121        2.0000           -0.3571065              -9.7174 (HOMO)
       122                         -0.2792869              -7.5998 (LUMO)
       123                         -0.2781540              -7.5690
       124                         -0.2446449              -6.6571
       125                         -0.2445573              -6.6547
       126                         -0.2310948              -6.2884
       127                         -0.2296896              -6.2502
       128                         -0.2230942              -6.0707
       129                         -0.2229955              -6.0680
       130                         -0.2219060              -6.0384
       131                         -0.2219039              -6.0383
       132                         -0.2192168              -5.9652
       ...                                ...                  ...
       242                          0.7154507              19.4684
      -------------------------------------------------------------
                  HL-Gap            0.0778197 Eh            2.1176 eV

     #   Z          covCN         q      C6AA      α(0)
     1   6 C        2.920    -0.032    28.807     8.801
     2   6 C        2.918    -0.031    28.769     8.796
     3   6 C        2.925    -0.035    28.867     8.811
     4   6 C        2.976     0.009    27.811     8.650
     5   6 C        2.976     0.007    27.864     8.659
     6   6 C        2.923    -0.035    28.879     8.813
     7   6 C        2.922    -0.033    28.830     8.805
     8   6 C        2.976     0.013    27.715     8.635
     9   6 C        2.976    -0.007    28.189     8.709
    10   6 C        2.983     0.005    27.908     8.666
    11   6 C        2.917    -0.035    28.874     8.812
    12   6 C        2.914    -0.031    28.772     8.796
    13   6 C        2.914    -0.031    28.769     8.795
    14   6 C        2.917    -0.033    28.826     8.804
    15   6 C        2.984     0.006    27.887     8.662
    16   6 C        2.978    -0.001    28.049     8.687
    17   6 C        2.978    -0.001    28.049     8.687
    18   6 C        2.984     0.006    27.887     8.662
    19   6 C        2.918    -0.033    28.827     8.804
    20   6 C        2.914    -0.031    28.770     8.795
    21   6 C        2.914    -0.031    28.773     8.796
    22   6 C        2.917    -0.035    28.877     8.812
    23   6 C        2.983     0.005    27.908     8.666
    24   6 C        2.976    -0.007    28.189     8.709
    25   6 C        2.976     0.013    27.716     8.636
    26   6 C        2.922    -0.033    28.830     8.805
    27   6 C        2.923    -0.035    28.879     8.813
    28   6 C        2.976     0.007    27.863     8.659
    29   6 C        2.976     0.009    27.811     8.650
    30   6 C        2.925    -0.035    28.867     8.811
    31   6 C        2.918    -0.031    28.769     8.796
    32   6 C        2.920    -0.032    28.807     8.802
    33   6 C        2.918    -0.031    28.769     8.796
    34   6 C        2.925    -0.035    28.867     8.811
    35   6 C        2.923    -0.035    28.879     8.813
    36   6 C        2.922    -0.033    28.829     8.805
    37   6 C        2.983     0.005    27.908     8.666
    38   6 C        2.917    -0.035    28.876     8.812
    39   6 C        2.914    -0.031    28.773     8.796
    40   6 C        2.914    -0.031    28.770     8.795
    41   6 C        2.918    -0.033    28.826     8.804
    42   6 C        2.984     0.006    27.888     8.663
    43   6 C        2.984     0.006    27.887     8.662
    44   6 C        2.918    -0.033    28.826     8.804
    45   6 C        2.914    -0.031    28.769     8.795
    46   6 C        2.914    -0.031    28.772     8.796
    47   6 C        2.917    -0.035    28.876     8.812
    48   6 C        2.983     0.005    27.908     8.666
    49   6 C        2.922    -0.033    28.829     8.805
    50   6 C        2.923    -0.035    28.878     8.813
    51   6 C        2.925    -0.035    28.867     8.811
    52   6 C        2.918    -0.031    28.770     8.796
    53   1 H        0.926     0.030     2.587     2.515
    54   1 H        0.926     0.030     2.582     2.513
    55   1 H        0.926     0.032     2.560     2.502
    56   1 H        0.926     0.033     2.545     2.495
    57   1 H        0.926     0.030     2.583     2.513
    58   1 H        0.926     0.032     2.561     2.503
    59   1 H        0.926     0.030     2.591     2.517
    60   1 H        0.926     0.029     2.598     2.521
    61   1 H        0.926     0.029     2.607     2.525
    62   1 H        0.926     0.028     2.608     2.525
    63   1 H        0.926     0.029     2.599     2.521
    64   1 H        0.926     0.030     2.591     2.517
    65   1 H        0.926     0.032     2.558     2.501
    66   1 H        0.926     0.030     2.582     2.513
    67   1 H        0.926     0.033     2.546     2.495
    68   1 H        0.926     0.032     2.560     2.502
    69   1 H        0.926     0.030     2.582     2.513
    70   1 H        0.926     0.030     2.587     2.515
    71   1 H        0.926     0.030     2.582     2.513
    72   1 H        0.926     0.032     2.560     2.502
    73   1 H        0.926     0.033     2.546     2.495
    74   1 H        0.926     0.030     2.582     2.513
    75   1 H        0.926     0.032     2.558     2.501
    76   1 H        0.926     0.030     2.591     2.517
    77   1 H        0.926     0.029     2.598     2.521
    78   1 H        0.926     0.029     2.607     2.525
    79   1 H        0.926     0.029     2.607     2.525
    80   1 H        0.926     0.029     2.598     2.521
    81   1 H        0.926     0.030     2.591     2.517
    82   1 H        0.926     0.032     2.560     2.502
    83   1 H        0.926     0.030     2.585     2.514
    84   1 H        0.926     0.033     2.545     2.495
    85   1 H        0.926     0.032     2.560     2.502
    86   1 H        0.926     0.030     2.582     2.513

molecular dipole:
                 x           y           z       tot (Debye)
 q only:        0.002       0.000       0.000
   full:        0.001       0.002       0.001       0.007

 projected vibrational frequencies (cm⁻¹)
eigval :       -0.00    -0.00    -0.00    -0.00     0.00     0.00
eigval :      -15.99     6.52     7.52    19.91    21.32    23.79
eigval :       35.19    45.86    52.64    66.01    67.71    69.97
eigval :       77.01    83.67    85.68    98.70   106.10   106.58
eigval :      107.10   110.51   153.26   157.32   157.60   169.77
eigval :      205.33   208.29   214.32   215.90   222.84   225.07
eigval :      271.07   311.99   315.03   316.17   364.22   366.38
eigval :      366.81   370.39   374.42   376.70   379.73   386.08
eigval :      391.98   404.09   404.69   414.96   415.90   432.20
eigval :      434.94   438.52   442.93   451.09   458.88   460.75
eigval :      484.71   486.06   523.03   527.62   555.29   557.46
eigval :      582.60   582.86   584.62   586.64   588.32   591.18
eigval :      592.36   593.88   614.20   619.92   620.25   637.04
eigval :      645.60   652.87   667.87   669.14   672.91   690.88
eigval :      695.60   697.65   699.27   701.71   739.69   741.31
eigval :      750.96   754.76   756.83   762.17   771.94   772.52
eigval :      774.24   775.07   814.95   821.07   842.05   867.82
eigval :      872.31   872.37   872.90   874.49   875.54   877.81
eigval :      882.52   896.18   896.80   900.00   900.20   913.73
eigval :      915.05   915.31   916.34   917.58   917.71   918.06
eigval :      920.67   923.54   927.36   928.27   928.33   928.46
eigval :      929.08   929.96   930.14   930.37   931.48   933.11
eigval :      937.34   967.76   968.34  1009.92  1012.24  1062.15
eigval :     1075.15  1075.85  1077.15  1077.76  1078.71  1079.56
eigval :     1086.09  1086.41  1119.84  1120.46  1134.11  1134.13
eigval :     1138.88  1139.85  1154.26  1177.80  1178.21  1179.07
eigval :     1181.60  1181.74  1183.58  1187.35  1192.65  1193.41
eigval :     1200.86  1201.54  1216.36  1217.50  1223.94  1224.95
eigval :     1252.58  1254.62  1260.03  1260.09  1272.05  1273.04
eigval :     1279.48  1279.60  1291.35  1292.15  1295.54  1308.50
eigval :     1308.81  1316.39  1316.53  1329.17  1348.23  1348.48
eigval :     1355.42  1382.69  1382.95  1386.03  1392.20  1392.57
eigval :     1416.45  1419.22  1427.36  1427.41  1431.16  1431.55
eigval :     1439.42  1448.00  1463.27  1467.97  1477.51  1486.79
eigval :     1504.73  1504.89  1524.60  1524.70  1527.14  1527.64
eigval :     1540.82  1541.64  1556.04  1556.11  1581.01  1581.19
eigval :     1593.46  1593.51  1601.99  1602.05  1607.35  1607.38
eigval :     1621.53  1621.70  3065.58  3065.79  3066.16  3066.19
eigval :     3067.55  3067.65  3068.41  3068.45  3068.82  3068.87
eigval :     3068.92  3069.08  3074.46  3074.75  3074.84  3075.07
eigval :     3075.18  3075.38  3078.01  3078.13  3079.51  3079.71
eigval :     3082.01  3082.16  3083.87  3084.30  3084.40  3085.36
eigval :     3087.58  3087.60  3089.87  3090.03  3091.28  3092.13

   temp. (K)  partition function   enthalpy   heat capacity  entropy
                                   cal/mol     cal/K/mol   cal/K/mol   J/K/mol
 298.15  VIB  0.301E+20            23970.662    152.448    150.883
         ROT  0.108E+09              888.752      2.981     39.734
         INT  0.325E+28            24859.414    155.429    190.617
         TR   0.164E+29             1481.254      4.968     45.317
         TOT                       26340.6684   160.3968   235.9346   987.1502

       T/K    H(0)-H(T)+PV         H(T)/Eh          T*S/Eh         G(T)/Eh
   ------------------------------------------------------------------------
    298.15    0.419765E-01    0.709839E+00    0.112100E+00    0.597739E+00
   ------------------------------------------------------------------------

         :::::::::::::::::::::::::::::::::::::::::::::::::::::
         ::                  THERMODYNAMIC                  ::
         :::::::::::::::::::::::::::::::::::::::::::::::::::::
         :: total free energy        -128.139698511717 Eh   ::
         ::.................................................::
         :: total energy             -128.737437339618 Eh   ::
         :: zero point energy           0.667862425393 Eh   ::
         :: G(RRHO) w/o ZPVE           -0.070123597492 Eh   ::
         :: G(RRHO) contrib.            0.597738827901 Eh   ::
         :::::::::::::::::::::::::::::::::::::::::::::::::::::

           -------------------------------------------------
          | TOTAL ENERGY             -128.737437339618 Eh   |
          | TOTAL ENTHALPY           -128.027598387226 Eh   |
          | TOTAL FREE ENERGY        -128.139698511717 Eh   |
          | GRADIENT NORM               0.000051858428 Eh/α |
          | HOMO-LUMO GAP               2.117580541513 eV   |
           -------------------------------------------------

 * finished run on 2025/08/24 at 05:53:40.622
