   * xtb version 6.7.1 (edcfbbe) compiled by 'albert@albert-system' on 2024-07-22

   ID    Z sym.   atoms
    1    7 N      1, 7, 25, 35, 59
    2    6 C      2-6, 8-24, 26-34, 36-58, 60-83
    3    1 H      84-128

          program call               : xtb data2507/toluene/PPINCN-Cz/PPINCN-Cz_toluene_S0_finalOpt.xtbopt.xyz --gfn 2 --uhf 2 --gbsa toluene --ohess vtight --parallel 40 --molden --ceasefiles --namespace data2507/toluene/PPINCN-Cz/PPINCN-Cz_toluene_T1_preOpt
      * Solvation model:               GBSA
        Solvent                        toluene
        Solvent mass                       9.2140E+01 g/mol
          :  Hamiltonian                  GFN2-xTB          :
 * total energy  :  -204.7548431 Eh     change       -0.3002555E-08 Eh
 * total energy  :  -204.7581185 Eh     change       -0.3275335E-02 Eh
 * total energy  :  -204.7594069 Eh     change       -0.1288432E-02 Eh
 * total energy  :  -204.7596174 Eh     change       -0.2104788E-03 Eh
 * total energy  :  -204.7596573 Eh     change       -0.3988049E-04 Eh
 * total energy  :  -204.7599826 Eh     change       -0.3253431E-03 Eh
 * total energy  :  -204.7600926 Eh     change       -0.1099893E-03 Eh
 * total energy  :  -204.7602330 Eh     change       -0.1403817E-03 Eh
 * total energy  :  -204.7603194 Eh     change       -0.8642357E-04 Eh
 * total energy  :  -204.7604011 Eh     change       -0.8170914E-04 Eh
 * total energy  :  -204.7616619 Eh     change       -0.5580171E-06 Eh
 * total energy  :  -204.7616626 Eh     change       -0.6505071E-06 Eh
 * total energy  :  -204.7616631 Eh     change       -0.5445580E-06 Eh
 * total energy  :  -204.7616636 Eh     change       -0.4510599E-06 Eh
 * total energy  :  -204.7616640 Eh     change       -0.4641392E-06 Eh
 * total energy  :  -204.7616645 Eh     change       -0.4813690E-06 Eh
 * total energy  :  -204.7616650 Eh     change       -0.5296948E-06 Eh
 * total energy  :  -204.7616655 Eh     change       -0.4504791E-06 Eh
 * total energy  :  -204.7616655 Eh     change       -0.1517719E-09 Eh
   *** GEOMETRY OPTIMIZATION CONVERGED AFTER 94 ITERATIONS ***

 final structure:
================
128
 xtb: 6.7.1 (edcfbbe)
N           -8.47040878894588        3.95793376965164        1.59193924586445
C           -7.68603698868355        3.18378604430550        1.25707417459116
C           -6.71293908670362        2.24511020547844        0.88250171054249
C           -5.59905373352736        2.06560017660715        1.69443013587195
C           -4.66153070363626        1.09271579054451        1.38681745254084
C           -4.79616504863046        0.31261593228107        0.24885724030873
N           -3.92695580987412       -0.77000299441924        0.05495237410328
C           -4.31794696789562       -2.10775732248205       -0.10656036770730
C           -5.64532860082331       -2.58992529664311       -0.20716087409162
C           -5.86938754728158       -3.66666643630669       -1.10080916533799
C           -7.11362486995189       -3.93527086559445       -1.58068732551168
C           -8.24138518478166       -3.16173897697391       -1.17354806505880
C           -9.51024225483252       -3.32434982196352       -1.74367845188685
C          -10.58852689355826       -2.59254379781912       -1.30025796736680
C          -10.46339083612984       -1.69805553727890       -0.21766453788609
C          -11.55678806967192       -0.96435408646991        0.28593265202930
C          -11.40339152466221       -0.12216775440857        1.37266183380168
C          -10.18002567364067        0.00836688132235        1.99924393315504
C           -9.05158077401192       -0.69439852352067        1.52472493198564
C           -7.79703240561338       -0.62791972917004        2.15913186415407
C           -6.70042758117051       -1.27072322145792        1.63022915359391
C           -6.78931150155533       -1.99467673407475        0.43357584979288
C           -8.07082750396625       -2.22531926265747       -0.12185167744459
C           -9.19292266103955       -1.53688951753967        0.39309466258794
N           -3.25523932154623       -2.89851195474572       -0.25893163795436
C           -2.17658511734551       -2.11513983640679       -0.15302662985765
C           -0.81034143035561       -2.51004281670379       -0.16581439338866
C           -0.44479434405641       -3.85745089904443       -0.26166513787380
C            0.87600773741559       -4.22725600621488       -0.23027128384488
C            1.87155233370285       -3.25193908534971       -0.08689216877147
C            3.28882330767196       -3.63202541193381       -0.03753813960613
C            4.16847889731191       -3.00179091247245        0.84299715006858
C            5.50150561732080       -3.35473610951750        0.88933820490856
C            5.99419090363950       -4.34224340177652        0.03915232070375
N            7.35027618687816       -4.69294864126100        0.07469639828988
C            7.85200874247022       -5.97609965222973        0.17224322041805
C            7.17697336582876       -7.18172015865531        0.30580550372936
C            7.93064301741510       -8.33563365285265        0.40980024796289
C            9.32345252771831       -8.29877796264285        0.39250180079776
C           10.00115499605034       -7.09957584984813        0.28703929600304
C            9.26547048409545       -5.92657346856615        0.18029405941502
C            9.62567732834722       -4.53907806923013        0.07658165872925
C           10.84062526606705       -3.86904351349668        0.01733057177582
C           10.83268848810467       -2.49328588183523       -0.10803911354466
C            9.63356185502076       -1.78845207366888       -0.19028420246069
C            8.41224155488145       -2.43315521087002       -0.13466737698647
C            8.41343125697798       -3.81298791084791        0.01726326231544
C            5.12455071311467       -4.97632122673472       -0.84549497118721
C            3.78939696636474       -4.62896681699681       -0.87490431591086
C            1.50640879167726       -1.91552922628787        0.00141451669385
C            0.17295063857861       -1.50105371872526       -0.04679064787679
C           -0.21971073189932       -0.09844472234437       -0.00953561733402
C            0.73056848635810        0.92059954191674       -0.00748405871680
C            0.39422658651399        2.26801071828501       -0.03833777516435
C            1.43903889348551        3.29367136770686       -0.02753538582487
C            1.31842761052542        4.45201063529454       -0.79760010705047
C            2.31004131442360        5.41071808938125       -0.79867889947187
C            3.44851886120293        5.24369662222967       -0.01239027096828
N            4.45645205138336        6.21549705425233       -0.00816454426092
C            5.80570145367833        5.98000343997311       -0.19022113263124
C            6.46714339669406        4.79010449913587       -0.46134503048095
C            7.83780703320110        4.83769607617345       -0.63313007043182
C            8.54046665821324        6.03780492880408       -0.54808484959519
C            7.88472825280007        7.22868301143552       -0.30240364451931
C            6.50753472658933        7.20610834183775       -0.12587083669721
C            5.52464085184769        8.22681673617378        0.11507398866996
C            5.59933382273961        9.60180039042839        0.29403206124210
C            4.43389531025693       10.30201303825832        0.53898394127641
C            3.20764105414838        9.64548764225765        0.62087963427242
C            3.10813381169269        8.27797654573384        0.44643772359061
C            4.27240460458459        7.57225101944631        0.17579377001735
C            3.57380012333186        4.09705862355946        0.76979795319150
C            2.58556664212584        3.13558301181563        0.75415049438252
C           -0.96252450769513        2.61630581940007       -0.10155336625252
C           -1.92803724649592        1.64621354237925       -0.08111915630341
C           -1.59764499343361        0.27865953179442       -0.00690293719358
C           -2.55435241713499       -0.76137127954752        0.01309571615198
C           -5.86226635980494        0.54643532732776       -0.66596396303477
C           -5.96500909111058       -0.11749794800973       -1.90389795887345
C           -7.04044012489973        0.09063961687626       -2.72649676301739
C           -8.05757524477788        0.97366738076666       -2.35010469945994
C           -7.96000263547162        1.67549145315308       -1.17713108264896
C           -6.85790944174005        1.49744192518514       -0.32142581971050
H           -5.49016502960848        2.65666864116931        2.59175021248530
H           -3.83330891537162        0.91464372660020        2.05778675266546
H           -5.00311968667871       -4.19985897146083       -1.46265311640325
H           -7.26109992344196       -4.71427246306785       -2.31389259739748
H           -9.63367424396155       -4.03741707693458       -2.54637083893342
H          -11.55605624019904       -2.71338935906794       -1.76566069860018
H          -12.52210197182726       -1.07391771728085       -0.18613141761819
H          -12.25365383759352        0.43255600517109        1.74300490595126
H          -10.07050097818162        0.65372111871153        2.85849828913272
H           -7.70317770388666       -0.06124864413917        3.07432339584494
H           -5.75489030862867       -1.23066766669342        2.15111025045230
H           -1.23384105176255       -4.58861935779455       -0.34866427811777
H            1.15043542879729       -5.26981758415453       -0.28450634555460
H            3.79534528124925       -2.25078545279486        1.52337268881690
H            6.16645703077852       -2.88102621669102        1.59608786512826
H            6.09870506132637       -7.21957285827748        0.33850835089732
H            7.42871667500051       -9.28697508788607        0.51075502196361
H            9.87720698919294       -9.22270219310618        0.47315978184333
H           11.08057535077620       -7.07061653700554        0.29107587100947
H           11.77029030510037       -4.41631299212228        0.06372314437512
H           11.76716064247411       -1.95329828841795       -0.15272720139039
H            9.65907289417487       -0.71441227219361       -0.30411479768004
H            7.48944633954387       -1.87946849241893       -0.21797865475862
H            5.50652740395548       -5.72687354091932       -1.52132630497298
H            3.13073306282548       -5.11306526265790       -1.58034489566945
H            2.29714392195238       -1.18863842371876        0.08905016436660
H            1.77841083081671        0.67072094026205       -0.02254344964199
H            0.45373320712782        4.58475496866647       -1.43045875268801
H            2.21950204271765        6.28609891845422       -1.42438000301279
H            5.93048264767153        3.85763612636950       -0.54826474975713
H            8.37567301769354        3.92457686180123       -0.84263464523082
H            9.61178431777265        6.03392380826435       -0.68611814940645
H            8.42757794045681        8.16076315605815       -0.25358659996146
H            6.55139436719059       10.10902064223380        0.24765441425038
H            4.47015712576583       11.37248526677147        0.67876914968400
H            2.31514321024637       10.21726483181928        0.82969024095638
H            2.15552234489065        7.77725846986734        0.53046848306561
H            4.44059604215355        3.97733344581216        1.40250312749410
H            2.68503511151489        2.26468180601155        1.38462467170504
H           -1.25042643140595        3.65586298420641       -0.14372136418764
H           -2.96483468279899        1.93484273146880       -0.14335426960692
H           -5.18015709962149       -0.79426298693148       -2.20830593411122
H           -7.10583562163443       -0.43030156609021       -3.66981349655634
H           -8.91359855550759        1.11064980472170       -2.99340042931082
H           -8.72837684293334        2.37935954817818       -0.89008052958055

          :  Hamiltonian                  GFN2-xTB          :
         :: gradient norm              0.000194949883 Eh/a0 ::
         :: HOMO-LUMO gap              0.129306365342 eV    ::
         :: SCC energy              -208.678229448637 Eh    ::
         :: -> dispersion             -0.207124671790 Eh    ::
         :: -> Gsolv                  -0.084574755207 Eh    ::
         :: repulsion energy           3.916563969035 Eh    ::

    * Orbital Energies and Occupations

         #    Occupation            Energy/Eh            Energy/eV
      -------------------------------------------------------------
         1        2.0000           -0.6962444             -18.9458
       ...           ...                  ...                  ...
       180        2.0000           -0.4065952             -11.0640
       181        2.0000           -0.4017439             -10.9320
       182        2.0000           -0.3975295             -10.8173
       183        2.0000           -0.3957746             -10.7696
       184        2.0000           -0.3885676             -10.5735
       185        2.0000           -0.3852536             -10.4833
       186        2.0000           -0.3818875             -10.3917
       187        2.0000           -0.3810670             -10.3694
       188        2.0000           -0.3790863             -10.3155
       189        1.9959           -0.3656246              -9.9492
       190        1.9849           -0.3643720              -9.9151
       191        1.0192           -0.3566684              -9.7054
       192        0.9242           -0.2965147              -8.0686 (HOMO)
       193        0.0758           -0.2917629              -7.9393 (LUMO)
       194                         -0.2707092              -7.3664
       195                         -0.2596692              -7.0660
       196                         -0.2532420              -6.8911
       197                         -0.2481329              -6.7520
       198                         -0.2465860              -6.7099
       199                         -0.2450826              -6.6690
       200                         -0.2427461              -6.6055
       201                         -0.2348994              -6.3919
       202                         -0.2338061              -6.3622
       203                         -0.2333206              -6.3490
       ...                                ...                  ...
       377                          1.1584880              31.5241
      -------------------------------------------------------------
                  HL-Gap            0.0047518 Eh            0.1293 eV

     #   Z          covCN         q      C6AA      α(0)
     1   7 N        0.911    -0.300    27.722     7.615
     2   6 C        1.914     0.116    28.233     8.581
     3   6 C        2.970    -0.005    28.155     8.704
     4   6 C        2.925    -0.027    28.678     8.782
     5   6 C        2.917    -0.043    29.057     8.839
     6   6 C        2.906     0.053    26.811     8.490
     7   7 N        2.823    -0.051    22.225     7.002
     8   6 C        3.159     0.137    24.732     8.131
     9   6 C        2.970    -0.013    28.325     8.730
    10   6 C        2.920    -0.030    28.751     8.793
    11   6 C        2.913    -0.040    28.983     8.828
    12   6 C        2.980     0.011    27.770     8.644
    13   6 C        2.914    -0.037    28.909     8.817
    14   6 C        2.915    -0.037    28.924     8.819
    15   6 C        2.979     0.012    27.747     8.641
    16   6 C        2.918    -0.036    28.906     8.816
    17   6 C        2.909    -0.028    28.704     8.785
    18   6 C        2.918    -0.036    28.889     8.814
    19   6 C        2.979     0.010    27.787     8.647
    20   6 C        2.916    -0.038    28.955     8.824
    21   6 C        2.915    -0.038    28.938     8.821
    22   6 C        2.979     0.004    27.934     8.670
    23   6 C        2.996     0.002    27.971     8.676
    24   6 C        2.999     0.001    27.986     8.678
    25   7 N        1.886    -0.313    28.975     7.980
    26   6 C        3.180     0.076    25.903     8.309
    27   6 C        2.984    -0.005    28.141     8.702
    28   6 C        2.919    -0.029    28.715     8.787
    29   6 C        2.921    -0.034    28.858     8.809
    30   6 C        2.974     0.013    27.713     8.635
    31   6 C        2.976     0.010    27.800     8.649
    32   6 C        2.924    -0.032    28.809     8.802
    33   6 C        2.920    -0.042    29.051     8.839
    34   6 C        2.912     0.063    26.588     8.455
    35   7 N        2.802    -0.040    22.009     6.968
    36   6 C        3.074     0.047    26.868     8.499
    37   6 C        2.910    -0.051    29.255     8.869
    38   6 C        2.923    -0.034    28.854     8.809
    39   6 C        2.920    -0.041    29.020     8.834
    40   6 C        2.912    -0.034    28.845     8.807
    41   6 C        3.067    -0.017    28.375     8.735
    42   6 C        3.067    -0.017    28.372     8.734
    43   6 C        2.912    -0.034    28.844     8.807
    44   6 C        2.920    -0.041    29.023     8.834
    45   6 C        2.923    -0.034    28.856     8.809
    46   6 C        2.910    -0.051    29.258     8.870
    47   6 C        3.074     0.047    26.869     8.499
    48   6 C        2.920    -0.042    29.043     8.838
    49   6 C        2.924    -0.032    28.788     8.799
    50   6 C        2.928    -0.039    28.977     8.828
    51   6 C        2.977     0.000    28.019     8.683
    52   6 C        2.977     0.001    27.991     8.678
    53   6 C        2.928    -0.039    28.961     8.825
    54   6 C        2.973     0.011    27.760     8.642
    55   6 C        2.976     0.009    27.811     8.650
    56   6 C        2.924    -0.032    28.791     8.799
    57   6 C        2.920    -0.042    29.042     8.837
    58   6 C        2.913     0.063    26.587     8.455
    59   7 N        2.801    -0.039    21.995     6.966
    60   6 C        3.074     0.047    26.871     8.499
    61   6 C        2.910    -0.050    29.252     8.869
    62   6 C        2.923    -0.034    28.850     8.808
    63   6 C        2.920    -0.041    29.014     8.833
    64   6 C        2.912    -0.034    28.840     8.806
    65   6 C        3.066    -0.017    28.365     8.733
    66   6 C        3.067    -0.017    28.367     8.734
    67   6 C        2.912    -0.034    28.841     8.806
    68   6 C        2.920    -0.041    29.013     8.833
    69   6 C        2.923    -0.034    28.851     8.808
    70   6 C        2.910    -0.050    29.250     8.868
    71   6 C        3.074     0.047    26.870     8.499
    72   6 C        2.920    -0.042    29.048     8.838
    73   6 C        2.924    -0.033    28.813     8.803
    74   6 C        2.919    -0.035    28.870     8.811
    75   6 C        2.916    -0.037    28.932     8.820
    76   6 C        2.975    -0.008    28.208     8.712
    77   6 C        3.050     0.032    27.236     8.559
    78   6 C        2.984     0.002    27.974     8.676
    79   6 C        2.918    -0.034    28.842     8.807
    80   6 C        2.916    -0.028    28.704     8.785
    81   6 C        2.916    -0.026    28.660     8.779
    82   6 C        2.919    -0.035    28.860     8.810
    83   6 C        2.990     0.016    27.645     8.625
    84   1 H        0.926     0.040     2.452     2.449
    85   1 H        0.926     0.041     2.433     2.439
    86   1 H        0.926     0.051     2.312     2.378
    87   1 H        0.926     0.043     2.411     2.428
    88   1 H        0.926     0.040     2.451     2.448
    89   1 H        0.926     0.039     2.458     2.452
    90   1 H        0.926     0.039     2.462     2.453
    91   1 H        0.926     0.036     2.499     2.472
    92   1 H        0.926     0.032     2.557     2.501
    93   1 H        0.926     0.029     2.594     2.519
    94   1 H        0.926     0.023     2.690     2.565
    95   1 H        0.926     0.050     2.314     2.379
    96   1 H        0.926     0.043     2.412     2.429
    97   1 H        0.926     0.045     2.389     2.417
    98   1 H        0.926     0.045     2.383     2.414
    99   1 H        0.926     0.033     2.547     2.496
   100   1 H        0.926     0.032     2.562     2.503
   101   1 H        0.926     0.029     2.596     2.520
   102   1 H        0.926     0.032     2.563     2.503
   103   1 H        0.926     0.032     2.565     2.504
   104   1 H        0.926     0.029     2.596     2.520
   105   1 H        0.926     0.032     2.561     2.503
   106   1 H        0.926     0.033     2.545     2.495
   107   1 H        0.926     0.045     2.387     2.416
   108   1 H        0.926     0.045     2.383     2.414
   109   1 H        0.926     0.047     2.364     2.404
   110   1 H        0.926     0.048     2.339     2.392
   111   1 H        0.926     0.043     2.408     2.427
   112   1 H        0.926     0.044     2.394     2.420
   113   1 H        0.926     0.033     2.540     2.492
   114   1 H        0.926     0.032     2.552     2.498
   115   1 H        0.926     0.030     2.586     2.515
   116   1 H        0.926     0.032     2.556     2.500
   117   1 H        0.926     0.032     2.553     2.498
   118   1 H        0.926     0.030     2.589     2.516
   119   1 H        0.926     0.032     2.564     2.504
   120   1 H        0.926     0.032     2.557     2.501
   121   1 H        0.926     0.046     2.374     2.409
   122   1 H        0.926     0.045     2.378     2.412
   123   1 H        0.926     0.038     2.469     2.457
   124   1 H        0.926     0.032     2.560     2.502
   125   1 H        0.926     0.027     2.625     2.533
   126   1 H        0.926     0.040     2.454     2.450
   127   1 H        0.926     0.040     2.445     2.445
   128   1 H        0.926     0.032     2.560     2.502

molecular dipole:
                 x           y           z       tot (Debye)
 q only:        2.452      -1.136      -0.816
   full:        2.593      -0.992      -0.814       7.353

 projected vibrational frequencies (cm⁻¹)
eigval :       -0.00    -0.00    -0.00    -0.00     0.00     0.00
eigval :        6.13     8.12    10.26    13.89    14.68    15.52
eigval :       17.05    20.99    26.16    31.60    33.78    43.16
eigval :       45.60    50.70    57.50    68.43    71.85    76.69
eigval :       83.93    85.70    93.34    98.76   104.19   105.83
eigval :      108.52   110.17   119.65   122.70   123.86   131.28
eigval :      142.08   146.00   148.32   160.73   164.74   181.51
eigval :      183.58   187.41   197.73   200.16   213.16   223.38
eigval :      227.52   235.28   250.89   253.55   265.47   269.11
eigval :      272.53   274.19   279.40   284.23   296.29   320.77
eigval :      341.94   352.07   354.20   368.87   370.60   378.93
eigval :      383.13   385.26   386.75   389.34   392.10   393.86
eigval :      401.74   403.00   404.20   408.77   417.26   421.55
eigval :      423.89   427.53   430.65   434.64   437.04   439.99
eigval :      441.65   444.89   447.17   454.32   462.58   467.22
eigval :      479.02   493.45   499.36   500.80   507.62   510.97
eigval :      517.29   518.32   519.05   526.44   536.29   537.38
eigval :      541.21   541.41   543.09   555.07   562.16   572.79
eigval :      580.35   580.56   583.03   584.76   594.94   595.53
eigval :      596.01   601.58   605.09   607.68   617.78   627.89
eigval :      634.66   635.85   640.32   641.51   658.68   665.87
eigval :      668.72   673.69   674.23   675.81   681.37   684.63
eigval :      694.16   696.26   698.91   700.87   707.90   709.03
eigval :      710.68   723.85   726.16   731.84   739.09   742.12
eigval :      753.87   754.51   756.39   768.31   769.63   772.49
eigval :      773.88   778.46   779.83   780.70   787.84   800.31
eigval :      809.11   813.11   815.56   820.47   826.24   828.81
eigval :      834.83   838.60   856.16   856.81   863.11   865.41
eigval :      865.63   871.18   872.44   874.00   874.52   877.22
eigval :      879.72   891.74   897.30   897.67   901.69   902.74
eigval :      902.88   902.95   903.37   906.58   909.16   910.88
eigval :      913.86   916.17   917.88   919.72   919.98   920.57
eigval :      921.71   921.99   922.31   925.43   926.62   928.54
eigval :      932.65   936.49   938.92   944.22   985.66   997.67
eigval :     1004.44  1010.97  1011.14  1013.94  1028.08  1030.70
eigval :     1068.18  1069.17  1071.58  1072.63  1073.54  1080.81
eigval :     1087.23  1093.87  1107.09  1115.51  1116.33  1116.64
eigval :     1118.31  1135.65  1136.02  1137.90  1142.32  1149.30
eigval :     1150.11  1152.31  1167.35  1170.07  1173.90  1175.16
eigval :     1176.04  1178.68  1180.38  1180.97  1181.69  1183.06
eigval :     1188.33  1191.47  1195.90  1201.48  1202.12  1206.73
eigval :     1212.22  1222.21  1226.40  1227.84  1231.50  1233.66
eigval :     1234.21  1241.74  1242.60  1247.07  1252.70  1259.52
eigval :     1264.62  1267.82  1273.87  1284.24  1295.14  1296.51
eigval :     1297.19  1297.94  1299.84  1302.70  1307.06  1313.51
eigval :     1315.33  1317.76  1325.78  1333.53  1336.38  1340.16
eigval :     1349.97  1350.66  1353.81  1355.28  1357.21  1357.23
eigval :     1359.63  1361.35  1363.42  1371.56  1377.16  1380.58
eigval :     1390.67  1396.48  1397.81  1404.42  1408.93  1411.51
eigval :     1413.85  1419.60  1424.19  1424.24  1424.29  1424.55
eigval :     1433.40  1441.27  1452.43  1459.16  1470.02  1471.06
eigval :     1471.97  1484.64  1485.30  1485.56  1487.09  1492.18
eigval :     1495.57  1499.93  1513.22  1514.69  1525.04  1525.56
eigval :     1527.91  1533.57  1542.23  1550.07  1551.82  1553.71
eigval :     1556.67  1565.42  1571.45  1572.20  1572.49  1585.74
eigval :     1585.95  1590.94  1591.88  1593.21  1593.50  1594.06
eigval :     1608.10  1609.57  2310.12  3068.79  3069.16  3070.37
eigval :     3071.52  3072.53  3072.74  3073.34  3076.93  3077.42
eigval :     3077.46  3078.28  3078.53  3078.57  3079.13  3079.24
eigval :     3079.30  3081.09  3081.33  3081.74  3082.15  3083.79
eigval :     3083.87  3086.17  3086.47  3087.00  3087.28  3087.32
eigval :     3087.51  3087.65  3087.82  3090.65  3092.37  3092.58
eigval :     3092.97  3093.63  3093.84  3094.03  3094.49  3095.86
eigval :     3096.07  3097.30  3100.12  3104.80  3114.77  3116.77

   temp. (K)  partition function   enthalpy   heat capacity  entropy
                                   cal/mol     cal/K/mol   cal/K/mol   J/K/mol
 298.15  VIB  0.101E+31            37640.678    240.344    234.193
         ROT  0.611E+09              888.752      2.981     43.183
         INT  0.616E+39            38529.430    243.325    277.376
         TR   0.330E+29             1481.254      4.968     46.712
         TOT                       40010.6842   248.2931   324.0879  1355.9837

       T/K    H(0)-H(T)+PV         H(T)/Eh          T*S/Eh         G(T)/Eh
   ------------------------------------------------------------------------
    298.15    0.637611E-01    0.102741E+01    0.153985E+00    0.873425E+00
   ------------------------------------------------------------------------

         :::::::::::::::::::::::::::::::::::::::::::::::::::::
         ::                  THERMODYNAMIC                  ::
         :::::::::::::::::::::::::::::::::::::::::::::::::::::
         :: total free energy        -203.888240327581 Eh   ::
         ::.................................................::
         :: total energy             -204.761665477390 Eh   ::
         :: zero point energy           0.963648676534 Eh   ::
         :: G(RRHO) w/o ZPVE           -0.090223526725 Eh   ::
         :: G(RRHO) contrib.            0.873425149809 Eh   ::
         :::::::::::::::::::::::::::::::::::::::::::::::::::::

           -------------------------------------------------
          | TOTAL ENERGY             -204.761665477390 Eh   |
          | TOTAL ENTHALPY           -203.734255716940 Eh   |
          | TOTAL FREE ENERGY        -203.888240327581 Eh   |
          | GRADIENT NORM               0.000193945831 Eh/α |
          | HOMO-LUMO GAP               0.129303018991 eV   |
           -------------------------------------------------

 * finished run on 2025/09/12 at 16:05:58.177
