   * xtb version 6.7.1 (edcfbbe) compiled by 'albert@albert-system' on 2024-07-22

   ID    Z sym.   atoms
    1    7 N      1, 7, 25, 35, 59
    2    6 C      2-6, 8-24, 26-34, 36-58, 60-83
    3    1 H      84-128

          program call               : xtb data2507/toluene/PPINCN-Cz/PPINCN-Cz_toluene_S0_crest.xyz --gfn 2 --gbsa toluene --ohess vtight --parallel 40 --molden --ceasefiles --namespace data2507/toluene/PPINCN-Cz/PPINCN-Cz_toluene_S0_finalOpt
      * Solvation model:               GBSA
        Solvent                        toluene
        Solvent mass                       9.2140E+01 g/mol
          :  Hamiltonian                  GFN2-xTB          :
 * total energy  :  -204.8270246 Eh     change       -0.4236995E-08 Eh
 * total energy  :  -204.8271171 Eh     change       -0.9248011E-04 Eh
 * total energy  :  -204.8271549 Eh     change       -0.3778665E-04 Eh
 * total energy  :  -204.8273013 Eh     change       -0.1463909E-03 Eh
 * total energy  :  -204.8273762 Eh     change       -0.7488720E-04 Eh
 * total energy  :  -204.8275092 Eh     change       -0.1330020E-03 Eh
 * total energy  :  -204.8276094 Eh     change       -0.1002407E-03 Eh
 * total energy  :  -204.8276990 Eh     change       -0.8956387E-04 Eh
 * total energy  :  -204.8277839 Eh     change       -0.8486751E-04 Eh
 * total energy  :  -204.8278846 Eh     change       -0.1007818E-03 Eh
 * total energy  :  -204.8282904 Eh     change       -0.1546844E-06 Eh
 * total energy  :  -204.8282907 Eh     change       -0.2348729E-06 Eh
 * total energy  :  -204.8282909 Eh     change       -0.2621979E-06 Eh
 * total energy  :  -204.8282912 Eh     change       -0.2576103E-06 Eh
 * total energy  :  -204.8282914 Eh     change       -0.2532473E-06 Eh
 * total energy  :  -204.8282918 Eh     change       -0.3541045E-06 Eh
 * total energy  :  -204.8282923 Eh     change       -0.4688431E-06 Eh
 * total energy  :  -204.8282929 Eh     change       -0.6434548E-06 Eh
 * total energy  :  -204.8282929 Eh     change       -0.3885134E-08 Eh
   *** GEOMETRY OPTIMIZATION CONVERGED AFTER 122 ITERATIONS ***

 final structure:
================
128
 xtb: 6.7.1 (edcfbbe)
N           -8.56513762472616        3.93078145745732        1.31980287374073
C           -7.76440234001523        3.17544087517790        0.99199715684433
C           -6.76646859039936        2.25166943100858        0.61855089191154
C           -5.69175908525468        2.04680295446217        1.46150006365616
C           -4.73369333576218        1.08461756791899        1.15255001970952
C           -4.82151901962513        0.35589347776944       -0.01533566819356
N           -3.93966935487820       -0.71659205247895       -0.22898342985553
C           -4.33399115649055       -2.04314045087714       -0.33053943822267
C           -5.72786354890064       -2.43891351152692       -0.49775927072666
C           -6.05348918356800       -3.20517259237552       -1.61599787546148
C           -7.36732257487807       -3.44344625225669       -1.95622612819862
C           -8.40836030557834       -2.89092520560516       -1.20572555205805
C           -9.77454164204600       -3.01705052072181       -1.59144570313431
C          -10.76595344786447       -2.46212828626926       -0.85552020454529
C          -10.48380195889727       -1.74951084118939        0.34744817798691
C          -11.48925853555616       -1.16683520665083        1.12179932952749
C          -11.18153194911163       -0.49218533861328        2.28954016626907
C           -9.87072696795004       -0.39023663070380        2.71918710044794
C           -8.83266940320516       -0.95194523087529        1.97378923968670
C           -7.47351533739781       -0.89937885490194        2.39907372799829
C           -6.47716166435817       -1.40110205620583        1.63256643524970
C           -6.74494422325014       -1.99831675973164        0.36572274822332
C           -8.09558057034436       -2.17924278735510       -0.02126173690564
C           -9.13568857446877       -1.63042033432380        0.76765295579300
N           -3.31451873541179       -2.85648347898869       -0.36630379055199
C           -2.20121636004884       -2.07495199452778       -0.27330316271224
C           -0.84276665876103       -2.49153528733625       -0.23508679140346
C           -0.48889891197144       -3.84528884218045       -0.27760259339547
C            0.82624040526557       -4.22515561183155       -0.21189378662921
C            1.83123898218018       -3.25457109755318       -0.09066470627975
C            3.24579895047829       -3.64820793019953       -0.01491898682168
C            4.11800585217388       -3.01364770080675        0.86845508601486
C            5.44889298405608       -3.37404446534315        0.93453931438327
C            5.94503682418099       -4.37290196383003        0.10119894977940
N            7.30147991955835       -4.72859922677954        0.15363409145316
C            7.79774653102999       -6.00958705755064        0.29070703870048
C            7.11768785491772       -7.20880493019757        0.45282286424815
C            7.86613383800409       -8.36167214102405        0.59482040014619
C            9.25948337340504       -8.33054466822796        0.58594847538094
C            9.94193905284918       -7.13802172858462        0.44913332891968
C            9.21145545404649       -5.96523814142340        0.30441342005697
C            9.57727216385034       -4.58341905361999        0.16272957944850
C           10.79519498820224       -3.91890114064004        0.09104784559414
C           10.79300866157338       -2.54812094743401       -0.07465878373866
C            9.59642757842400       -1.84156350776503       -0.18156259688513
C            8.37276322375333       -2.47994654478382       -0.11334245603317
C            8.36787306606255       -3.85506404904373        0.07609200442939
C            5.08234322145328       -5.01314986453840       -0.78437244580341
C            3.74899719912669       -4.65845048787971       -0.83292406113816
C            1.48048690215780       -1.91639003964610       -0.05150070863985
C            0.14936405091980       -1.48897955334742       -0.13071099184964
C           -0.22575191577783       -0.08426904698344       -0.13533531151077
C            0.73667810870888        0.93088339185540       -0.11167424779166
C            0.41034558521388        2.27426863811901       -0.16925747545022
C            1.46462053217387        3.29699374683459       -0.13331466100141
C            1.40257305966795        4.41936273935828       -0.95762512614121
C            2.40141734952402        5.37215959960643       -0.93495838339362
C            3.48390970222961        5.23057865226469       -0.07091332393809
N            4.49964868815596        6.19764243658577       -0.04131775907832
C            5.85344335860661        5.94969735222445       -0.15063160301541
C            6.51784089133651        4.74932086464112       -0.36099146298877
C            7.89585723741355        4.78281630409989       -0.45904066119008
C            8.60358016913571        5.97944054792362       -0.36112120193123
C            7.94655963761054        7.17955360008388       -0.17483471589439
C            6.56105487771115        7.17182732166391       -0.07248987611272
C            5.57571762203267        8.20298162404641        0.09918965482888
C            5.65008042286328        9.58154293682379        0.25407708506493
C            4.47897465127364       10.29312348003099        0.42412080743245
C            3.24519217590714        9.64568054929291        0.45493470781881
C            3.14531950747699        8.27582466052312        0.30328852272266
C            4.31711174764414        7.55771448911590        0.10913602650779
C            3.54952425260863        4.11898805253358        0.76491847687297
C            2.55450185656340        3.16333868943406        0.72606851483181
C           -0.93797671266653        2.63547015340271       -0.27952961348174
C           -1.91207328511514        1.67095782086337       -0.29102324902731
C           -1.59118084114283        0.30855188811710       -0.19430672024518
C           -2.56083490507728       -0.73165559844709       -0.19471857471705
C           -5.85175966787442        0.61897295104048       -0.95767037432160
C           -5.89993404629429       -0.00211991168511       -2.22323460590134
C           -6.94327841568725        0.23119192183834       -3.07504011652399
C           -7.98323423170389        1.09587679242117       -2.70410213800395
C           -7.93898844201055        1.75399722789207       -1.50601871655826
C           -6.86745347160582        1.54894763792651       -0.61433807396839
H           -5.61352468743011        2.60577292865296        2.38190848675624
H           -3.92833841059312        0.88993605021403        1.84547254076501
H           -5.25071887638419       -3.58355071011093       -2.23175152144106
H           -7.59986596665781       -4.02884492743498       -2.83365675625231
H           -9.99794789536329       -3.56336157083287       -2.49668293367857
H          -11.79834748947309       -2.55328243608491       -1.16204534272867
H          -12.51703823312658       -1.24762059863858        0.79814081678412
H          -11.97225093785331       -0.04585218015190        2.87502653756135
H           -9.63919284549419        0.12994766923087        3.63765671366914
H           -7.25666365512946       -0.45457994673293        3.36004441335793
H           -5.45712527373952       -1.39304371924721        1.98950857208477
H           -1.28278643493237       -4.57267044576545       -0.35487389114391
H            1.09284573547709       -5.27146605831630       -0.22658315551497
H            3.74177231829593       -2.24912887710456        1.53228231876339
H            6.10987685292111       -2.89332380669895        1.64057348707330
H            6.03883967370782       -7.24132004993948        0.47741690949751
H            7.36000127586168       -9.30814798313443        0.71921152760338
H            9.80892680880469       -9.25399575685145        0.69713258381791
H           11.02157361391901       -7.11257314098588        0.45806582098143
H           11.72261850594950       -4.46807569942241        0.15846533174429
H           11.72953636181197       -2.01252996229306       -0.13055164277213
H            9.62645518191883       -0.77108074307712       -0.32529282704437
H            7.45184393566776       -1.92567372579159       -0.21429494832057
H            5.46709928316591       -5.77641390318742       -1.44443134562583
H            3.09420452356786       -5.14958296079859       -1.53747386823879
H            2.27745065149233       -1.19426991911436        0.02113722095566
H            1.78238825211157        0.67293685581894       -0.08010598343770
H            0.57831107278920        4.53128167907990       -1.64646422114042
H            2.35737033112042        6.22379509684118       -1.59766578389843
H            5.97733950579903        3.81941483999690       -0.45476456734388
H            8.43649259176878        3.86123191805000       -0.61953866664018
H            9.68083229499562        5.96393407033503       -0.44080510346681
H            8.49443005604698        8.10819352963347       -0.11438388375722
H            6.60688844534009       10.08223259191942        0.24567165991596
H            4.51506511253482       11.36612860296887        0.54406241679388
H            2.34711671838650       10.22739697881557        0.60474457074998
H            2.18643980257821        7.78138278320055        0.34513566297335
H            4.37637450895487        4.01853180787015        1.45244205358630
H            2.60690658063579        2.31524157639192        1.39280285446841
H           -1.21282334240352        3.67797837338821       -0.33818984470733
H           -2.94512177014361        1.96576212804585       -0.39041734607973
H           -5.09222869887573       -0.65397336296818       -2.52008105092801
H           -6.96936004137325       -0.24906044524809       -4.04121219709711
H           -8.81033346574025        1.25406722055285       -3.37913942216349
H           -8.72076358261319        2.44479287884798       -1.22487862013230

          :  Hamiltonian                  GFN2-xTB          :
         :: gradient norm              0.000093238887 Eh/a0 ::
         :: HOMO-LUMO gap              1.571140401635 eV    ::
         :: SCC energy              -208.763076096093 Eh    ::
         :: -> dispersion             -0.204093061468 Eh    ::
         :: -> Gsolv                  -0.084444279187 Eh    ::
         :: repulsion energy           3.934783186464 Eh    ::

    * Orbital Energies and Occupations

         #    Occupation            Energy/Eh            Energy/eV
      -------------------------------------------------------------
         1        2.0000           -0.6975279             -18.9807
       ...           ...                  ...                  ...
       179        2.0000           -0.4054753             -11.0335
       180        2.0000           -0.4046937             -11.0123
       181        2.0000           -0.4023702             -10.9491
       182        2.0000           -0.3988385             -10.8529
       183        2.0000           -0.3969131             -10.8006
       184        2.0000           -0.3881443             -10.5619
       185        2.0000           -0.3876434             -10.5483
       186        2.0000           -0.3788906             -10.3101
       187        2.0000           -0.3781233             -10.2893
       188        2.0000           -0.3775591             -10.2739
       189        2.0000           -0.3678658             -10.0101
       190        2.0000           -0.3619643              -9.8495
       191        2.0000           -0.3598561              -9.7922 (HOMO)
       192                         -0.3021178              -8.2210 (LUMO)
       193                         -0.2887528              -7.8574
       194                         -0.2667763              -7.2594
       195                         -0.2573322              -7.0024
       196                         -0.2562378              -6.9726
       197                         -0.2498207              -6.7980
       198                         -0.2488894              -6.7726
       199                         -0.2452360              -6.6732
       200                         -0.2428042              -6.6070
       201                         -0.2386659              -6.4944
       202                         -0.2324764              -6.3260
       ...                                ...                  ...
       377                          1.1527016              31.3666
      -------------------------------------------------------------
                  HL-Gap            0.0577384 Eh            1.5711 eV

     #   Z          covCN         q      C6AA      α(0)
     1   7 N        0.911    -0.268    26.931     7.506
     2   6 C        1.913     0.122    28.112     8.563
     3   6 C        2.971     0.007    27.854     8.657
     4   6 C        2.927    -0.019    28.473     8.751
     5   6 C        2.918    -0.037    28.932     8.821
     6   6 C        2.908     0.069    26.463     8.435
     7   7 N        2.838    -0.052    22.241     7.004
     8   6 C        3.183     0.141    24.521     8.082
     9   6 C        2.973    -0.011    28.275     8.722
    10   6 C        2.923    -0.030    28.750     8.793
    11   6 C        2.918    -0.037    28.925     8.819
    12   6 C        2.982     0.012    27.739     8.639
    13   6 C        2.913    -0.036    28.893     8.814
    14   6 C        2.913    -0.034    28.856     8.809
    15   6 C        2.981     0.012    27.740     8.639
    16   6 C        2.920    -0.035    28.867     8.811
    17   6 C        2.913    -0.029    28.719     8.788
    18   6 C        2.920    -0.035    28.877     8.812
    19   6 C        2.982     0.009    27.803     8.649
    20   6 C        2.914    -0.037    28.920     8.818
    21   6 C        2.913    -0.038    28.951     8.823
    22   6 C        2.983     0.003    27.940     8.671
    23   6 C        2.997     0.002    27.980     8.677
    24   6 C        2.998     0.002    27.972     8.676
    25   7 N        1.891    -0.310    28.876     7.966
    26   6 C        3.201     0.060    26.105     8.325
    27   6 C        2.985    -0.004    28.107     8.697
    28   6 C        2.918    -0.033    28.825     8.804
    29   6 C        2.921    -0.035    28.870     8.811
    30   6 C        2.974     0.008    27.840     8.655
    31   6 C        2.976     0.008    27.839     8.655
    32   6 C        2.924    -0.034    28.842     8.807
    33   6 C        2.920    -0.043    29.071     8.842
    34   6 C        2.912     0.062    26.613     8.459
    35   7 N        2.802    -0.046    22.134     6.987
    36   6 C        3.075     0.047    26.857     8.497
    37   6 C        2.909    -0.052    29.290     8.874
    38   6 C        2.924    -0.035    28.876     8.812
    39   6 C        2.920    -0.043    29.066     8.841
    40   6 C        2.912    -0.035    28.873     8.811
    41   6 C        3.067    -0.019    28.412     8.740
    42   6 C        3.067    -0.019    28.410     8.740
    43   6 C        2.912    -0.035    28.872     8.811
    44   6 C        2.919    -0.043    29.067     8.841
    45   6 C        2.924    -0.035    28.877     8.812
    46   6 C        2.909    -0.052    29.291     8.875
    47   6 C        3.076     0.047    26.858     8.497
    48   6 C        2.920    -0.043    29.066     8.841
    49   6 C        2.924    -0.033    28.822     8.804
    50   6 C        2.928    -0.041    29.027     8.836
    51   6 C        2.978    -0.003    28.105     8.696
    52   6 C        2.978    -0.000    28.024     8.684
    53   6 C        2.929    -0.040    28.997     8.831
    54   6 C        2.973     0.008    27.835     8.654
    55   6 C        2.976     0.007    27.851     8.657
    56   6 C        2.924    -0.033    28.821     8.804
    57   6 C        2.920    -0.043    29.062     8.840
    58   6 C        2.913     0.062    26.600     8.457
    59   7 N        2.802    -0.046    22.135     6.988
    60   6 C        3.076     0.047    26.859     8.497
    61   6 C        2.909    -0.052    29.289     8.874
    62   6 C        2.924    -0.035    28.873     8.812
    63   6 C        2.919    -0.043    29.062     8.840
    64   6 C        2.912    -0.035    28.869     8.811
    65   6 C        3.067    -0.019    28.408     8.740
    66   6 C        3.067    -0.019    28.409     8.740
    67   6 C        2.912    -0.035    28.870     8.811
    68   6 C        2.919    -0.043    29.063     8.841
    69   6 C        2.924    -0.035    28.876     8.812
    70   6 C        2.909    -0.052    29.292     8.875
    71   6 C        3.076     0.047    26.859     8.497
    72   6 C        2.920    -0.043    29.063     8.841
    73   6 C        2.925    -0.034    28.836     8.806
    74   6 C        2.921    -0.036    28.893     8.815
    75   6 C        2.917    -0.041    29.008     8.832
    76   6 C        2.978    -0.007    28.181     8.708
    77   6 C        3.067     0.021    27.477     8.595
    78   6 C        2.986     0.004    27.934     8.670
    79   6 C        2.917    -0.028    28.706     8.786
    80   6 C        2.916    -0.023    28.588     8.768
    81   6 C        2.916    -0.021    28.531     8.759
    82   6 C        2.918    -0.030    28.745     8.792
    83   6 C        2.991     0.019    27.564     8.612
    84   1 H        0.926     0.054     2.273     2.358
    85   1 H        0.926     0.052     2.290     2.366
    86   1 H        0.926     0.042     2.425     2.435
    87   1 H        0.926     0.045     2.384     2.415
    88   1 H        0.926     0.041     2.434     2.440
    89   1 H        0.926     0.041     2.437     2.441
    90   1 H        0.926     0.040     2.449     2.447
    91   1 H        0.926     0.038     2.479     2.462
    92   1 H        0.926     0.035     2.513     2.479
    93   1 H        0.926     0.034     2.529     2.487
    94   1 H        0.926     0.023     2.686     2.563
    95   1 H        0.926     0.046     2.371     2.408
    96   1 H        0.926     0.037     2.485     2.465
    97   1 H        0.926     0.041     2.435     2.440
    98   1 H        0.926     0.042     2.427     2.436
    99   1 H        0.926     0.030     2.587     2.515
   100   1 H        0.926     0.030     2.592     2.517
   101   1 H        0.926     0.027     2.626     2.534
   102   1 H        0.926     0.029     2.594     2.519
   103   1 H        0.926     0.029     2.594     2.519
   104   1 H        0.926     0.027     2.628     2.535
   105   1 H        0.926     0.029     2.597     2.520
   106   1 H        0.926     0.030     2.590     2.517
   107   1 H        0.926     0.042     2.427     2.436
   108   1 H        0.926     0.042     2.426     2.436
   109   1 H        0.926     0.040     2.444     2.445
   110   1 H        0.926     0.043     2.410     2.428
   111   1 H        0.926     0.041     2.436     2.441
   112   1 H        0.926     0.042     2.426     2.435
   113   1 H        0.926     0.030     2.590     2.516
   114   1 H        0.926     0.030     2.592     2.518
   115   1 H        0.926     0.027     2.623     2.533
   116   1 H        0.926     0.030     2.590     2.517
   117   1 H        0.926     0.030     2.589     2.516
   118   1 H        0.926     0.027     2.623     2.533
   119   1 H        0.926     0.030     2.593     2.518
   120   1 H        0.926     0.029     2.595     2.519
   121   1 H        0.926     0.042     2.418     2.431
   122   1 H        0.926     0.042     2.423     2.434
   123   1 H        0.926     0.036     2.506     2.476
   124   1 H        0.926     0.027     2.627     2.534
   125   1 H        0.926     0.038     2.473     2.459
   126   1 H        0.926     0.050     2.319     2.382
   127   1 H        0.926     0.051     2.303     2.373
   128   1 H        0.926     0.043     2.411     2.428

molecular dipole:
                 x           y           z       tot (Debye)
 q only:       -1.439      -0.573      -0.781
   full:       -1.205      -0.480      -0.797       3.870

 projected vibrational frequencies (cm⁻¹)
eigval :       -0.00    -0.00    -0.00     0.00     0.00     0.00
eigval :        5.56     6.51     8.22    11.63    12.75    14.30
eigval :       17.50    21.55    24.39    30.30    31.86    43.00
eigval :       45.96    49.79    54.59    66.72    74.09    75.41
eigval :       85.84    86.77    94.43    98.77   102.96   104.83
eigval :      107.38   110.65   114.06   120.18   125.32   133.71
eigval :      141.38   144.95   146.56   156.41   165.25   184.80
eigval :      186.70   190.20   197.56   201.22   217.24   227.09
eigval :      228.95   235.01   248.60   252.27   266.13   268.48
eigval :      270.97   271.61   279.07   287.53   298.52   325.74
eigval :      344.61   354.34   358.03   369.63   370.81   381.85
eigval :      382.62   386.79   390.94   392.04   392.91   393.82
eigval :      402.68   403.73   405.96   410.72   422.13   422.96
eigval :      424.13   428.86   430.54   434.56   436.89   440.74
eigval :      445.94   452.53   454.61   467.66   473.88   477.91
eigval :      484.97   495.87   502.38   507.46   510.82   514.03
eigval :      518.67   519.03   521.55   527.38   534.10   534.64
eigval :      540.89   541.54   546.16   561.53   569.44   580.98
eigval :      581.64   583.72   587.44   592.69   595.96   597.08
eigval :      601.79   604.71   607.51   614.87   618.59   636.37
eigval :      638.12   641.97   648.33   659.00   661.14   667.73
eigval :      673.58   673.71   678.50   684.62   685.46   694.40
eigval :      696.08   699.21   701.51   703.25   708.33   709.97
eigval :      713.82   724.81   733.29   736.12   741.52   754.99
eigval :      756.73   757.10   767.61   768.52   772.44   774.80
eigval :      779.08   779.54   779.98   784.22   800.97   810.70
eigval :      812.31   817.30   824.69   834.61   837.65   838.14
eigval :      845.92   850.23   860.68   865.14   866.28   867.05
eigval :      871.67   872.66   874.94   879.17   881.91   884.49
eigval :      886.78   897.58   897.92   900.21   901.02   901.62
eigval :      902.06   910.51   913.46   916.71   918.07   918.58
eigval :      919.03   919.72   920.06   920.51   923.81   924.31
eigval :      924.93   926.55   926.98   927.42   934.36   934.41
eigval :      934.94   935.37   939.67   953.00   994.18  1001.37
eigval :     1010.92  1011.11  1011.25  1015.31  1026.02  1037.16
eigval :     1069.15  1069.24  1072.78  1072.83  1076.88  1082.55
eigval :     1083.84  1098.30  1108.25  1108.58  1117.08  1117.42
eigval :     1126.35  1134.81  1136.26  1149.39  1151.28  1151.73
eigval :     1155.78  1158.07  1171.62  1174.46  1175.72  1176.56
eigval :     1176.95  1179.15  1181.20  1182.08  1182.86  1184.08
eigval :     1187.52  1196.11  1200.57  1201.98  1203.78  1206.37
eigval :     1222.41  1224.76  1231.90  1234.59  1235.52  1236.06
eigval :     1242.57  1243.62  1246.54  1253.67  1257.76  1265.61
eigval :     1267.43  1276.39  1283.59  1287.35  1295.04  1300.24
eigval :     1300.76  1301.47  1302.13  1304.71  1313.00  1313.66
eigval :     1314.76  1322.40  1330.38  1334.94  1342.87  1351.97
eigval :     1355.41  1355.49  1356.21  1360.51  1360.61  1364.02
eigval :     1365.56  1379.86  1385.51  1386.88  1392.86  1395.37
eigval :     1398.66  1407.31  1411.57  1412.32  1414.92  1415.77
eigval :     1423.70  1427.20  1427.53  1428.60  1433.91  1438.59
eigval :     1449.10  1451.62  1474.14  1474.29  1484.19  1486.84
eigval :     1487.00  1489.67  1490.52  1494.07  1498.79  1501.65
eigval :     1521.05  1537.46  1539.09  1550.27  1556.17  1559.61
eigval :     1560.59  1560.81  1563.46  1568.31  1573.18  1573.23
eigval :     1577.31  1583.12  1586.98  1587.41  1590.15  1596.75
eigval :     1596.93  1597.09  1601.04  1601.69  1603.84  1604.42
eigval :     1612.84  1612.95  2353.99  3065.69  3067.35  3070.20
eigval :     3070.35  3070.51  3070.52  3071.20  3075.16  3075.49
eigval :     3076.10  3076.51  3076.88  3077.52  3077.65  3078.43
eigval :     3079.19  3080.45  3080.60  3081.05  3082.48  3083.06
eigval :     3083.79  3083.85  3084.08  3084.62  3084.78  3086.67
eigval :     3087.00  3087.44  3089.82  3089.87  3090.15  3090.39
eigval :     3090.46  3092.42  3092.50  3093.57  3093.69  3094.58
eigval :     3095.30  3097.40  3101.23  3103.41  3104.05  3114.28

   temp. (K)  partition function   enthalpy   heat capacity  entropy
                                   cal/mol     cal/K/mol   cal/K/mol   J/K/mol
 298.15  VIB  0.257E+31            37473.615    238.744    234.222
         ROT  0.612E+09              888.752      2.981     43.186
         INT  0.157E+40            38362.368    241.725    277.408
         TR   0.330E+29             1481.254      4.968     46.712
         TOT                       39843.6215   246.6933   324.1203  1356.1192

       T/K    H(0)-H(T)+PV         H(T)/Eh          T*S/Eh         G(T)/Eh
   ------------------------------------------------------------------------
    298.15    0.634949E-01    0.103093E+01    0.154000E+00    0.876928E+00
   ------------------------------------------------------------------------

         :::::::::::::::::::::::::::::::::::::::::::::::::::::
         ::                  THERMODYNAMIC                  ::
         :::::::::::::::::::::::::::::::::::::::::::::::::::::
         :: total free energy        -203.951364564626 Eh   ::
         ::.................................................::
         :: total energy             -204.828292911977 Eh   ::
         :: zero point energy           0.967433489375 Eh   ::
         :: G(RRHO) w/o ZPVE           -0.090505142024 Eh   ::
         :: G(RRHO) contrib.            0.876928347351 Eh   ::
         :::::::::::::::::::::::::::::::::::::::::::::::::::::

           -------------------------------------------------
          | TOTAL ENERGY             -204.828292911977 Eh   |
          | TOTAL ENTHALPY           -203.797364570064 Eh   |
          | TOTAL FREE ENERGY        -203.951364564626 Eh   |
          | GRADIENT NORM               0.000093156364 Eh/α |
          | HOMO-LUMO GAP               1.571140716389 eV   |
           -------------------------------------------------

 * finished run on 2025/09/12 at 16:05:21.936
