   * xtb version 6.7.1 (edcfbbe) compiled by 'albert@albert-system' on 2024-07-22

   ID    Z sym.   atoms
    1    7 N      1, 7, 25, 35, 59
    2    6 C      2-6, 8-24, 26-34, 36-58, 60-83
    3    1 H      84-128

          program call               : xtb data2507/toluene/PPINCN-Cz/PPINCN-Cz_toluene_T1_crest.xyz --gfn 2 --uhf 2 --gbsa toluene --ohess vtight --parallel 40 --molden --ceasefiles --namespace data2507/toluene/PPINCN-Cz/PPINCN-Cz_toluene_T1_finalOpt
      * Solvation model:               GBSA
        Solvent                        toluene
        Solvent mass                       9.2140E+01 g/mol
          :  Hamiltonian                  GFN2-xTB          :
 * total energy  :  -204.7608543 Eh     change       -0.3040037E-07 Eh
 * total energy  :  -204.7609426 Eh     change       -0.8824120E-04 Eh
 * total energy  :  -204.7610263 Eh     change       -0.8378414E-04 Eh
 * total energy  :  -204.7610615 Eh     change       -0.3517394E-04 Eh
 * total energy  :  -204.7611261 Eh     change       -0.6456302E-04 Eh
 * total energy  :  -204.7612057 Eh     change       -0.7964964E-04 Eh
 * total energy  :  -204.7612645 Eh     change       -0.5874609E-04 Eh
 * total energy  :  -204.7613301 Eh     change       -0.6558439E-04 Eh
 * total energy  :  -204.7614065 Eh     change       -0.7643546E-04 Eh
 * total energy  :  -204.7614693 Eh     change       -0.6279288E-04 Eh
 * total energy  :  -204.7617377 Eh     change        0.7468236E-06 Eh
 * total energy  :  -204.7617394 Eh     change       -0.1728743E-05 Eh
 * total energy  :  -204.7617397 Eh     change       -0.2827128E-06 Eh
 * total energy  :  -204.7617397 Eh     change        0.2226940E-07 Eh
 * total energy  :  -204.7617400 Eh     change       -0.3644325E-06 Eh
 * total energy  :  -204.7617405 Eh     change       -0.4353445E-06 Eh
 * total energy  :  -204.7617407 Eh     change       -0.2609394E-06 Eh
 * total energy  :  -204.7617409 Eh     change       -0.1995376E-06 Eh
 * total energy  :  -204.7617409 Eh     change       -0.3112774E-07 Eh
   *** GEOMETRY OPTIMIZATION CONVERGED AFTER 77 ITERATIONS ***

 final structure:
================
128
 xtb: 6.7.1 (edcfbbe)
N           -8.50122625234734        4.00770147168377        1.35146557912713
C           -7.71086704037095        3.22102523486150        1.06325546233969
C           -6.73010702708025        2.26936216201111        0.74556649602300
C           -5.61841609603488        2.14375126483069        1.57046647922078
C           -4.67445605041325        1.15981596408518        1.32337872588831
C           -4.80084608877888        0.31400855583248        0.23245583324657
N           -3.92693226084418       -0.77485977631827        0.10521934428725
C           -4.31541569391037       -2.12028941773710        0.02020887615056
C           -5.64224975213630       -2.60984735965138       -0.04882941037859
C           -5.86638205631111       -3.73647682499611       -0.87869067009794
C           -7.11142327348039       -4.03594537342746       -1.33771694265980
C           -8.24003273593755       -3.24305103062406       -0.97237634111011
C           -9.51020348879728       -3.44211325277593       -1.52781361992886
C          -10.58894756515092       -2.68791776557616       -1.12490369458312
C          -10.46264773166889       -1.73076510092326       -0.09748771458158
C          -11.55650888389452       -0.97128716531960        0.36528912516703
C          -11.40192071602356       -0.06566818657727        1.39957320374785
C          -10.17705749014668        0.10476017132652        2.01339368847670
C           -9.04830967677366       -0.62256904557700        1.57806345960160
C           -7.79229292608782       -0.51616171997174        2.20384329651790
C           -6.69574158201369       -1.18747082805246        1.71124736897992
C           -6.78598131795388       -1.98110034329699        0.55977250204101
C           -8.06852217440095       -2.24625301656670        0.02214500669101
C           -9.19081794911060       -1.53107399366684        0.49887194426712
N           -3.25143178702984       -2.91615901778549       -0.09098895858682
C           -2.17423020970734       -2.12572449699412       -0.03288868188630
C           -0.80722109359459       -2.51837594076884       -0.03536179630297
C           -0.43970107642610       -3.86836550500070       -0.06464497285468
C            0.88214632598361       -4.23404860593400       -0.02840165981444
C            1.87746650919812       -3.25021747218466        0.03578393149519
C            3.29696392191305       -3.62372098813916        0.07505789499041
C            3.73112293369784       -4.70458618107775        0.84226154193602
C            5.06668962808274       -5.04840093863083        0.89211167779931
C            6.00385377474575       -4.32660673288958        0.15608406930537
N            7.36073747818826       -4.67272784008586        0.20195705906570
C            7.88017682578382       -5.93924932737317        0.01796786742226
C            7.23049343392542       -7.12413848129749       -0.29988788260911
C            8.00079457024102       -8.26080498497343       -0.45780099177297
C            9.38639725591610       -8.22649024044065       -0.31425021740514
C           10.04116498945665       -7.04545550294730       -0.02310147578062
C            9.28844340168127       -5.89000021891069        0.14052804669158
C            9.62600833799399       -4.52116741041726        0.41950484969909
C           10.82509878783557       -3.86212424174331        0.65703366452158
C           10.79477278327051       -2.50653453681003        0.92114742216030
C            9.58745915011905       -1.81256461539305        0.96652756583494
C            8.38151093463538       -2.44693970524227        0.73511894350354
C            8.40721225119954       -3.80406845460912        0.44424087097468
C            5.57829403752120       -3.25444842679631       -0.62490484049956
C            4.24387141984957       -2.90523184036834       -0.65533408608917
C            1.51037599253520       -1.91187015647319        0.05882198261085
C            0.17481219320418       -1.50283818993570        0.01934384231567
C           -0.22079156879106       -0.10085779664243       -0.00084401079952
C            0.72758860103442        0.91919238157358       -0.04140713200930
C            0.38920727235207        2.26341806280343       -0.13038936093921
C            1.43237550910645        3.29047664324240       -0.15654882092338
C            1.31499966686833        4.41554361829316       -0.97492076599906
C            2.30441584391681        5.37597163532124       -1.00806260370983
C            3.43707682081523        5.24440446580603       -0.20670336433240
N            4.44180768679829        6.21910977292440       -0.23434140957359
C            5.79279748334143        5.98240707512173       -0.40090522962424
C            6.46076441866768        4.78510267374153       -0.61784544592721
C            7.83195318036419        4.83162235425907       -0.78575793750062
C            8.52866436924384        6.03761408100195       -0.74937364920190
C            7.86650937520003        7.23489942317003       -0.55803564902062
C            6.48867699715055        7.21352025999655       -0.38633189528890
C            5.50003151218126        8.23897027755852       -0.19356291100910
C            5.56698977457576        9.62107475528573       -0.07646947033753
C            4.39690941847425       10.32528998621856        0.13232544140987
C            3.17370339407491        9.66661805937275        0.23928366588215
C            3.08191503030092        8.29200741887032        0.12689794386334
C            4.25074360345082        7.58144931614230       -0.10907947240536
C            3.55951971190707        4.13091759829419        0.62236898890649
C            2.57357504385341        3.16705700271810        0.63914225950364
C           -0.96788635462220        2.60599747999982       -0.21382100302403
C           -1.93172049033203        1.63596290498354       -0.15185804219340
C           -1.59940407013996        0.27364499555278       -0.01460604957155
C           -2.55441915123914       -0.76552869523214        0.05922969128918
C           -5.86464913502911        0.48815966204635       -0.69821416221402
C           -5.96037905821091       -0.24927562093611       -1.89447823825133
C           -7.03417478780779       -0.09607756838788       -2.73111340785920
C           -8.05570922756767        0.80434530291396       -2.41220832815245
C           -7.96495002427126        1.57598914133363       -1.28335528814330
C           -6.86603492546905        1.45297786565333       -0.41396083613945
H           -5.51674645099947        2.78614268396976        2.43270016885127
H           -3.84822708468800        1.02525869793297        2.00685934841935
H           -5.00004163578387       -4.28751278729256       -1.21247076564028
H           -7.25872647364594       -4.85580028047596       -2.02494102300934
H           -9.63446797640893       -4.20202060301451       -2.28616942455740
H          -11.55750752075770       -2.83771916958815       -1.57957037736506
H          -12.52294024160462       -1.11103633159464       -0.09637785857794
H          -12.25244047534699        0.50803061143854        1.73916311105019
H          -10.06642283331773        0.80078396292352        2.83194178352493
H           -7.69721654289794        0.10413384644854        3.08347171295248
H           -5.74923098062729       -1.11505334173365        2.22680263988648
H           -1.22791232237562       -4.60406885186051       -0.11177825325412
H            1.15998687491997       -5.27643225119617       -0.06736116139953
H            3.01747987727298       -5.26001203948566        1.43232061410097
H            5.39530352866143       -5.86634683455910        1.51579059129397
H            6.15973085727394       -7.15831580122882       -0.43185611161814
H            7.51820360396986       -9.19605493531831       -0.70188313859459
H            9.95349118837777       -9.13681545328961       -0.44254466094406
H           11.11641861338108       -7.01653414190964        0.07154534399533
H           11.75974503164018       -4.40253012624455        0.63875319000833
H           11.71691608702198       -1.97517099214056        1.10573130652287
H            9.59381532244571       -0.75590929617661        1.19142256372760
H            7.45059195596696       -1.90354604141581        0.79162618144156
H            6.29710005886277       -2.71076204849161       -1.21955063946647
H            3.92509707739015       -2.08522228379617       -1.28156372501641
H            2.29941523386933       -1.18163082405307        0.13351826767517
H            1.77593858749259        0.67124542044919       -0.03890597643518
H            0.45462997271199        4.51970730046447       -1.61893905204727
H            2.21679737669116        6.22497920605196       -1.66959583954354
H            5.92857270737266        3.84731301308999       -0.66642527260318
H            8.37494114632517        3.91284081028900       -0.95308645103158
H            9.60059575804629        6.03279255208380       -0.88262016399054
H            8.40499295521516        8.17072371785337       -0.54715974644885
H            6.51660729828633       10.13079840913547       -0.14162351636483
H            4.42697995907675       11.40115511499147        0.22381958520290
H            2.27753465263608       10.24240678360773        0.41937875048195
H            2.13172054099228        7.79025222932987        0.23003454703911
H            4.42168555331723        4.03960034007459        1.26604266702187
H            2.67039587193789        2.32302690728503        1.30566535923061
H           -1.25755744958544        3.64204905322573       -0.30333095034116
H           -2.96876145282015        1.91972249050489       -0.22962042785137
H           -5.17179088659704       -0.93974436883438       -2.15542895672282
H           -7.09466152274354       -0.67395145496371       -3.64103125117106
H           -8.90962927046276        0.89954544132285       -3.06577238158393
H           -8.73640618576429        2.29384892841242       -1.04287700301350

          :  Hamiltonian                  GFN2-xTB          :
         :: gradient norm              0.000113059513 Eh/a0 ::
         :: HOMO-LUMO gap              0.128129467033 eV    ::
         :: SCC energy              -208.678241337588 Eh    ::
         :: -> dispersion             -0.207124271212 Eh    ::
         :: -> Gsolv                  -0.084558911971 Eh    ::
         :: repulsion energy           3.916500393143 Eh    ::

    * Orbital Energies and Occupations

         #    Occupation            Energy/Eh            Energy/eV
      -------------------------------------------------------------
         1        2.0000           -0.6962307             -18.9454
       ...           ...                  ...                  ...
       180        2.0000           -0.4066699             -11.0661
       181        2.0000           -0.4017650             -10.9326
       182        2.0000           -0.3975043             -10.8166
       183        2.0000           -0.3959594             -10.7746
       184        2.0000           -0.3884696             -10.5708
       185        2.0000           -0.3852389             -10.4829
       186        2.0000           -0.3818631             -10.3910
       187        2.0000           -0.3810356             -10.3685
       188        2.0000           -0.3791063             -10.3160
       189        1.9958           -0.3656108              -9.9488
       190        1.9849           -0.3643739              -9.9151
       191        1.0193           -0.3566763              -9.7057
       192        0.9226           -0.2965003              -8.0682 (HOMO)
       193        0.0774           -0.2917922              -7.9401 (LUMO)
       194                         -0.2705696              -7.3626
       195                         -0.2596518              -7.0655
       196                         -0.2532844              -6.8922
       197                         -0.2481235              -6.7518
       198                         -0.2465594              -6.7092
       199                         -0.2451035              -6.6696
       200                         -0.2427680              -6.6061
       201                         -0.2349227              -6.3926
       202                         -0.2337745              -6.3613
       203                         -0.2333415              -6.3495
       ...                                ...                  ...
       377                          1.1585478              31.5257
      -------------------------------------------------------------
                  HL-Gap            0.0047081 Eh            0.1281 eV

     #   Z          covCN         q      C6AA      α(0)
     1   7 N        0.911    -0.300    27.718     7.614
     2   6 C        1.914     0.116    28.232     8.581
     3   6 C        2.970    -0.005    28.153     8.703
     4   6 C        2.925    -0.027    28.677     8.782
     5   6 C        2.917    -0.043    29.056     8.839
     6   6 C        2.906     0.053    26.811     8.490
     7   7 N        2.823    -0.051    22.226     7.002
     8   6 C        3.159     0.137    24.732     8.131
     9   6 C        2.970    -0.013    28.326     8.730
    10   6 C        2.920    -0.030    28.751     8.793
    11   6 C        2.913    -0.040    28.983     8.828
    12   6 C        2.980     0.011    27.770     8.644
    13   6 C        2.914    -0.037    28.909     8.817
    14   6 C        2.915    -0.037    28.924     8.819
    15   6 C        2.979     0.012    27.747     8.641
    16   6 C        2.918    -0.036    28.906     8.817
    17   6 C        2.909    -0.028    28.704     8.785
    18   6 C        2.918    -0.036    28.889     8.814
    19   6 C        2.979     0.010    27.788     8.647
    20   6 C        2.916    -0.038    28.955     8.824
    21   6 C        2.915    -0.038    28.939     8.821
    22   6 C        2.979     0.004    27.934     8.670
    23   6 C        2.996     0.002    27.972     8.676
    24   6 C        2.999     0.001    27.986     8.678
    25   7 N        1.886    -0.313    28.976     7.980
    26   6 C        3.180     0.076    25.902     8.308
    27   6 C        2.984    -0.005    28.142     8.702
    28   6 C        2.919    -0.029    28.715     8.787
    29   6 C        2.921    -0.034    28.857     8.809
    30   6 C        2.974     0.013    27.714     8.635
    31   6 C        2.977     0.010    27.800     8.649
    32   6 C        2.924    -0.032    28.787     8.799
    33   6 C        2.920    -0.042    29.044     8.838
    34   6 C        2.912     0.063    26.588     8.455
    35   7 N        2.801    -0.040    22.010     6.968
    36   6 C        3.074     0.047    26.868     8.499
    37   6 C        2.910    -0.051    29.255     8.869
    38   6 C        2.923    -0.034    28.854     8.809
    39   6 C        2.920    -0.041    29.021     8.834
    40   6 C        2.912    -0.034    28.845     8.807
    41   6 C        3.067    -0.017    28.375     8.735
    42   6 C        3.067    -0.017    28.372     8.734
    43   6 C        2.912    -0.034    28.845     8.807
    44   6 C        2.920    -0.041    29.023     8.834
    45   6 C        2.923    -0.034    28.857     8.809
    46   6 C        2.910    -0.051    29.259     8.870
    47   6 C        3.074     0.047    26.869     8.499
    48   6 C        2.920    -0.042    29.050     8.839
    49   6 C        2.924    -0.032    28.808     8.802
    50   6 C        2.928    -0.039    28.977     8.828
    51   6 C        2.977     0.000    28.018     8.683
    52   6 C        2.977     0.001    27.991     8.678
    53   6 C        2.928    -0.039    28.962     8.826
    54   6 C        2.973     0.011    27.760     8.642
    55   6 C        2.976     0.009    27.811     8.650
    56   6 C        2.924    -0.032    28.791     8.799
    57   6 C        2.920    -0.042    29.042     8.837
    58   6 C        2.913     0.063    26.586     8.455
    59   7 N        2.802    -0.039    21.996     6.966
    60   6 C        3.074     0.047    26.871     8.499
    61   6 C        2.910    -0.050    29.253     8.869
    62   6 C        2.923    -0.034    28.852     8.809
    63   6 C        2.920    -0.041    29.015     8.833
    64   6 C        2.912    -0.034    28.840     8.806
    65   6 C        3.066    -0.017    28.365     8.733
    66   6 C        3.066    -0.017    28.368     8.734
    67   6 C        2.912    -0.034    28.841     8.806
    68   6 C        2.920    -0.041    29.014     8.833
    69   6 C        2.924    -0.034    28.852     8.809
    70   6 C        2.909    -0.050    29.250     8.868
    71   6 C        3.074     0.047    26.870     8.499
    72   6 C        2.920    -0.042    29.047     8.838
    73   6 C        2.924    -0.033    28.813     8.803
    74   6 C        2.919    -0.035    28.870     8.811
    75   6 C        2.916    -0.038    28.934     8.821
    76   6 C        2.975    -0.008    28.208     8.712
    77   6 C        3.050     0.032    27.236     8.559
    78   6 C        2.984     0.002    27.974     8.676
    79   6 C        2.918    -0.034    28.842     8.807
    80   6 C        2.916    -0.028    28.703     8.785
    81   6 C        2.916    -0.026    28.660     8.779
    82   6 C        2.919    -0.034    28.859     8.809
    83   6 C        2.990     0.016    27.644     8.625
    84   1 H        0.926     0.040     2.452     2.448
    85   1 H        0.926     0.041     2.431     2.438
    86   1 H        0.926     0.051     2.312     2.378
    87   1 H        0.926     0.043     2.411     2.428
    88   1 H        0.926     0.040     2.451     2.448
    89   1 H        0.926     0.039     2.458     2.452
    90   1 H        0.926     0.039     2.461     2.453
    91   1 H        0.926     0.036     2.499     2.472
    92   1 H        0.926     0.032     2.557     2.501
    93   1 H        0.926     0.029     2.594     2.519
    94   1 H        0.926     0.023     2.689     2.564
    95   1 H        0.926     0.050     2.314     2.379
    96   1 H        0.926     0.043     2.414     2.430
    97   1 H        0.926     0.045     2.386     2.416
    98   1 H        0.926     0.045     2.388     2.417
    99   1 H        0.926     0.033     2.548     2.496
   100   1 H        0.926     0.032     2.562     2.503
   101   1 H        0.926     0.029     2.596     2.520
   102   1 H        0.926     0.032     2.563     2.504
   103   1 H        0.926     0.032     2.565     2.504
   104   1 H        0.926     0.029     2.597     2.520
   105   1 H        0.926     0.032     2.559     2.502
   106   1 H        0.926     0.033     2.545     2.495
   107   1 H        0.926     0.045     2.383     2.414
   108   1 H        0.926     0.045     2.389     2.417
   109   1 H        0.926     0.046     2.364     2.404
   110   1 H        0.926     0.048     2.340     2.392
   111   1 H        0.926     0.043     2.407     2.426
   112   1 H        0.926     0.044     2.394     2.420
   113   1 H        0.926     0.033     2.539     2.492
   114   1 H        0.926     0.033     2.549     2.496
   115   1 H        0.926     0.030     2.586     2.515
   116   1 H        0.926     0.032     2.557     2.501
   117   1 H        0.926     0.032     2.553     2.499
   118   1 H        0.926     0.030     2.589     2.516
   119   1 H        0.926     0.032     2.564     2.504
   120   1 H        0.926     0.032     2.557     2.501
   121   1 H        0.926     0.046     2.376     2.410
   122   1 H        0.926     0.045     2.379     2.412
   123   1 H        0.926     0.038     2.469     2.457
   124   1 H        0.926     0.032     2.557     2.501
   125   1 H        0.926     0.027     2.624     2.533
   126   1 H        0.926     0.040     2.453     2.449
   127   1 H        0.926     0.040     2.444     2.445
   128   1 H        0.926     0.032     2.560     2.502

molecular dipole:
                 x           y           z       tot (Debye)
 q only:        2.448      -1.167      -0.750
   full:        2.590      -1.021      -0.749       7.328

 projected vibrational frequencies (cm⁻¹)
eigval :       -0.00    -0.00    -0.00     0.00     0.00     0.00
eigval :        6.30     8.00     9.79    13.87    14.61    15.02
eigval :       18.67    24.32    24.71    27.58    34.29    43.97
eigval :       45.99    50.48    56.03    66.90    71.45    77.95
eigval :       82.15    85.87    95.54    97.76   104.54   105.57
eigval :      108.81   110.78   120.07   122.94   125.79   134.87
eigval :      142.38   145.23   147.70   158.74   166.25   175.29
eigval :      183.01   194.19   197.69   208.49   210.68   215.71
eigval :      229.08   235.95   251.67   254.67   260.84   268.53
eigval :      271.67   272.12   282.43   284.44   297.53   319.38
eigval :      342.27   352.86   353.66   369.19   370.06   379.21
eigval :      382.56   384.01   386.31   388.18   391.96   394.34
eigval :      401.15   403.21   404.18   406.86   417.39   422.49
eigval :      422.77   427.37   429.98   434.17   436.47   437.69
eigval :      441.54   445.08   453.06   454.58   461.70   467.20
eigval :      478.38   493.62   496.96   500.15   508.99   511.33
eigval :      517.44   518.21   519.27   526.24   535.65   536.93
eigval :      540.09   541.20   542.49   555.35   562.19   573.54
eigval :      580.41   580.80   582.95   584.88   595.37   595.71
eigval :      596.21   601.59   604.94   607.53   617.90   628.13
eigval :      635.14   636.60   639.90   641.42   659.39   667.54
eigval :      668.97   674.06   674.36   675.03   682.05   684.08
eigval :      694.31   694.59   699.66   701.61   707.83   708.41
eigval :      710.24   723.84   725.97   732.75   739.40   743.20
eigval :      754.31   756.13   756.23   769.04   769.23   772.52
eigval :      773.70   778.32   779.76   780.16   789.31   800.55
eigval :      809.04   814.27   817.32   821.69   826.90   828.72
eigval :      834.71   838.81   856.02   861.79   864.00   865.91
eigval :      866.86   870.49   873.37   874.09   874.99   877.60
eigval :      881.41   886.91   897.34   897.39   902.20   902.40
eigval :      903.12   903.34   904.10   907.66   910.67   912.48
eigval :      913.38   918.08   919.11   919.28   920.18   920.58
eigval :      921.06   922.04   922.87   925.37   926.36   929.63
eigval :      932.90   936.64   938.78   944.21   985.71   997.53
eigval :     1004.40  1010.96  1011.09  1013.54  1028.24  1030.46
eigval :     1068.13  1069.20  1071.92  1072.26  1073.16  1080.28
eigval :     1087.41  1093.91  1106.52  1115.58  1115.68  1116.53
eigval :     1117.98  1134.44  1135.06  1136.17  1141.52  1148.98
eigval :     1150.09  1151.41  1167.30  1169.45  1173.27  1174.52
eigval :     1175.86  1178.62  1179.31  1180.83  1180.96  1181.44
eigval :     1188.51  1191.79  1195.57  1200.70  1201.57  1207.00
eigval :     1212.15  1221.78  1226.28  1227.82  1231.93  1233.74
eigval :     1234.28  1241.61  1242.35  1247.04  1252.72  1260.12
eigval :     1263.33  1266.23  1273.19  1283.89  1294.94  1296.49
eigval :     1297.01  1297.42  1299.69  1302.38  1306.98  1313.50
eigval :     1315.13  1317.74  1325.88  1333.55  1336.38  1340.09
eigval :     1350.07  1350.73  1353.66  1355.15  1357.04  1357.05
eigval :     1359.51  1361.19  1363.34  1371.49  1377.30  1380.52
eigval :     1390.81  1396.47  1397.60  1404.72  1408.77  1411.50
eigval :     1413.74  1419.48  1424.14  1424.22  1424.34  1424.54
eigval :     1433.45  1441.35  1452.46  1459.07  1470.02  1470.89
eigval :     1472.03  1485.00  1485.17  1485.26  1487.58  1491.73
eigval :     1494.74  1500.08  1513.08  1514.95  1524.93  1525.65
eigval :     1527.97  1533.65  1542.14  1550.09  1551.80  1553.79
eigval :     1556.54  1565.53  1571.35  1571.98  1572.40  1585.79
eigval :     1585.99  1591.01  1591.85  1593.35  1593.42  1593.91
eigval :     1607.88  1609.37  2310.45  3068.36  3069.48  3070.55
eigval :     3071.90  3072.21  3072.35  3073.04  3076.36  3077.89
eigval :     3077.93  3078.21  3078.52  3078.58  3078.60  3079.13
eigval :     3079.90  3081.23  3081.46  3081.72  3082.29  3083.31
eigval :     3083.47  3086.24  3086.61  3086.75  3086.89  3087.20
eigval :     3087.38  3087.70  3087.82  3090.74  3092.35  3092.57
eigval :     3092.76  3093.45  3093.74  3094.09  3095.31  3095.47
eigval :     3095.75  3096.83  3099.31  3104.38  3115.62  3117.11

   temp. (K)  partition function   enthalpy   heat capacity  entropy
                                   cal/mol     cal/K/mol   cal/K/mol   J/K/mol
 298.15  VIB  0.101E+31            37640.088    240.289    234.131
         ROT  0.611E+09              888.752      2.981     43.184
         INT  0.617E+39            38528.841    243.270    277.315
         TR   0.330E+29             1481.254      4.968     46.712
         TOT                       40010.0946   248.2379   324.0269  1355.7285

       T/K    H(0)-H(T)+PV         H(T)/Eh          T*S/Eh         G(T)/Eh
   ------------------------------------------------------------------------
    298.15    0.637601E-01    0.102740E+01    0.153956E+00    0.873442E+00
   ------------------------------------------------------------------------

         :::::::::::::::::::::::::::::::::::::::::::::::::::::
         ::                  THERMODYNAMIC                  ::
         :::::::::::::::::::::::::::::::::::::::::::::::::::::
         :: total free energy        -203.888298723668 Eh   ::
         ::.................................................::
         :: total energy             -204.761740946986 Eh   ::
         :: zero point energy           0.963637711323 Eh   ::
         :: G(RRHO) w/o ZPVE           -0.090195488005 Eh   ::
         :: G(RRHO) contrib.            0.873442223318 Eh   ::
         :::::::::::::::::::::::::::::::::::::::::::::::::::::

           -------------------------------------------------
          | TOTAL ENERGY             -204.761740946986 Eh   |
          | TOTAL ENTHALPY           -203.734343091486 Eh   |
          | TOTAL FREE ENERGY        -203.888298723668 Eh   |
          | GRADIENT NORM               0.000113312016 Eh/α |
          | HOMO-LUMO GAP               0.128112715610 eV   |
           -------------------------------------------------

 * finished run on 2025/09/12 at 16:22:22.926
