   * xtb version 6.7.1 (edcfbbe) compiled by 'albert@albert-system' on 2024-07-22

   ID    Z sym.   atoms
    1    7 N      1, 7, 25, 35, 59
    2    6 C      2-6, 8-24, 26-34, 36-58, 60-83
    3    1 H      84-128

          program call               : xtb data2507/toluene/PPINCN-Cz/PPINCN-Cz.xyz --gfn 2 --gbsa toluene --ohess vtight --parallel 40 --molden --ceasefiles --namespace data2507/toluene/PPINCN-Cz/PPINCN-Cz_toluene_S0_preOpt
      * Solvation model:               GBSA
        Solvent                        toluene
        Solvent mass                       9.2140E+01 g/mol
          :  Hamiltonian                  GFN2-xTB          :
 * total energy  :  -204.7893468 Eh     change       -0.7435148E-08 Eh
 * total energy  :  -204.8133855 Eh     change       -0.2403868E-01 Eh
 * total energy  :  -204.8196625 Eh     change       -0.6276991E-02 Eh
 * total energy  :  -204.8212203 Eh     change       -0.1557814E-02 Eh
 * total energy  :  -204.8225217 Eh     change       -0.1301397E-02 Eh
 * total energy  :  -204.8231929 Eh     change       -0.6711880E-03 Eh
 * total energy  :  -204.8236275 Eh     change       -0.4345712E-03 Eh
 * total energy  :  -204.8239394 Eh     change       -0.3119795E-03 Eh
 * total energy  :  -204.8241055 Eh     change       -0.1660431E-03 Eh
 * total energy  :  -204.8242423 Eh     change       -0.1368322E-03 Eh
 * total energy  :  -204.8287978 Eh     change       -0.8296107E-06 Eh
 * total energy  :  -204.8287985 Eh     change       -0.7693391E-06 Eh
 * total energy  :  -204.8287993 Eh     change       -0.7909058E-06 Eh
 * total energy  :  -204.8288003 Eh     change       -0.9190307E-06 Eh
 * total energy  :  -204.8288013 Eh     change       -0.1045768E-05 Eh
 * total energy  :  -204.8288026 Eh     change       -0.1287472E-05 Eh
 * total energy  :  -204.8288038 Eh     change       -0.1229702E-05 Eh
 * total energy  :  -204.8288051 Eh     change       -0.1234861E-05 Eh
 * total energy  :  -204.8288051 Eh     change       -0.7367191E-08 Eh
   *** GEOMETRY OPTIMIZATION CONVERGED AFTER 152 ITERATIONS ***

 final structure:
================
128
 xtb: 6.7.1 (edcfbbe)
N           -7.94928087722830        5.97387325237182       -1.13976825380225
C           -7.32751112109329        5.01439662692496       -1.03179579194173
C           -6.57300824866501        3.83218246544406       -0.87571702645075
C           -6.71174585955941        3.09354985826056        0.28181454029153
C           -5.97365269906760        1.92343400528628        0.45994134318825
C           -5.10319460439364        1.48997699705736       -0.51406203958602
N           -4.40771433522548        0.28448156995565       -0.31798989886130
C           -5.01213236812645       -0.95016485292459       -0.17990384989819
C           -6.45771492741970       -1.11901679084377       -0.25418487183323
C           -7.15674691103357       -0.52774238774263       -1.30567210337315
C           -8.52607418080595       -0.64185220026034       -1.40911833141595
C           -9.25654996725849       -1.35187413966994       -0.45401810871431
C          -10.67444782045172       -1.47730551042018       -0.52773332806321
C          -11.36693307631904       -2.17115452464749        0.40525607184114
C          -10.70304873133962       -2.80271612215109        1.49815471458330
C          -11.39873723753731       -3.51846693599353        2.47459934068961
C          -10.72714790571575       -4.11877891361602        3.52436364409692
C           -9.35135639323251       -4.02067799832767        3.62658654979837
C           -8.61478604085993       -3.31487869388958        2.67305898934608
C           -7.19686309075792       -3.19080020692892        2.74533914771271
C           -6.49995858727221       -2.49960950626417        1.81316443919396
C           -7.15374138088442       -1.86632762273270        0.71538561166825
C           -8.56486214606702       -1.97145634330681        0.61689288166136
C           -9.29260621092234       -2.69577605361806        1.59401406637919
N           -4.13734984578882       -1.90898951827589       -0.02502019370009
C           -2.91308121529028       -1.31287509082011       -0.05273885036519
C           -1.63593277084408       -1.93262991663587        0.02506434896169
C           -1.50202451546180       -3.32164665600174        0.13346533660654
C           -0.26109409675654       -3.90244240962693        0.15369617302542
C            0.88851248235013       -3.10546494000249        0.05311313564609
C            2.22077203370854       -3.72722541172339        0.04140543297571
C            2.52045245928398       -4.78565680338553        0.89757686788132
C            3.76907046364849       -5.37422871696614        0.88864032924407
C            4.74710017461639       -4.92705181975317        0.00421664849459
N            6.01203491111837       -5.53416890571472       -0.01936077710515
C            6.25408340506072       -6.88972808284624       -0.12033219268567
C            5.35762032249789       -7.93978288389313       -0.26415214884273
C            5.87150886274008       -9.21830759210501       -0.36781620945904
C            7.24459118773837       -9.45537065250215       -0.33957445886378
C            8.14240297947871       -8.41285964890691       -0.22220020774777
C            7.64993475438557       -7.11804624598362       -0.11669747440824
C            8.27326627132836       -5.82876640952902       -0.00531543313119
C            9.59569064171368       -5.40834596168665        0.06037155534239
C            9.85589149727950       -4.05807309094568        0.18588645755564
C            8.81683722749000       -3.13249217736233        0.26296068108531
C            7.49368380781285       -3.52627897261306        0.20143436054903
C            7.22577338678062       -4.87976739469540        0.04914526506385
C            4.45611779025109       -3.87417079859319       -0.85893427224468
C            3.21063972238624       -3.27932418651099       -0.83207821197904
C            0.75543429034343       -1.73101830791086       -0.04121108855388
C           -0.49487831284334       -1.09991663290634       -0.04688878232558
C           -0.64637548374606        0.34533191391703       -0.10685423665019
C            0.45925645334272        1.20161757378975       -0.05897083602718
C            0.33931185309914        2.57972115614634       -0.08174303940156
C            1.53040915243563        3.43869578988800       -0.01829805132278
C            1.62526634911884        4.58295199416406       -0.80860069524533
C            2.73554899670300        5.40083960340021       -0.74252202202959
C            3.78308978480235        5.08908986169942        0.11984879192785
N            4.90981241311984        5.92200667533988        0.19699544967562
C            5.66641205079181        6.36137836555989       -0.87091369726154
C            5.54769728763601        6.06173835601936       -2.22108753695275
C            6.46405917239819        6.62286699652254       -3.08996258490094
C            7.48282016922664        7.45755276587649       -2.63403573738367
C            7.62007936184815        7.74086834925292       -1.28959857263684
C            6.71083581641722        7.18868007167697       -0.39611626449655
C            6.56421324542431        7.25138711036500        1.03140082071895
C            7.26115829943079        7.90996602530356        2.03668835929917
C            6.82923909215566        7.77322404712362        3.34105302336891
C            5.70944766114133        7.00219026791988        3.64768113120382
C            5.00028837154435        6.33711943977743        2.66572351515521
C            5.44251191329268        6.45286188833457        1.35502438099063
C            3.70024041537709        3.94551711737706        0.90948677097378
C            2.58559010747863        3.13394959565379        0.84005877066680
C           -0.94031415479646        3.14520131694957       -0.14084391503544
C           -2.04880718662718        2.34035485796660       -0.18362608350095
C           -1.93436050731575        0.94263793477572       -0.18517123780252
C           -3.05056092307095        0.06306480217785       -0.21952132297756
C           -4.94821470926713        2.21225268967894       -1.73126602446440
C           -4.10025692171075        1.77514751024197       -2.77072975311830
C           -3.97460606030948        2.50378071257509       -3.92131488371288
C           -4.68891084768778        3.69914593393022       -4.08653891242931
C           -5.53202148177356        4.14152586121912       -3.10375438503121
C           -5.68767776656495        3.41071491180561       -1.90906559908255
H           -7.38985315078254        3.42273137314023        1.05464597765483
H           -6.08443975217400        1.35243067622113        1.36959092054620
H           -6.61276280905801        0.01016112655801       -2.06902832340768
H           -9.04346033153936       -0.17961869391581       -2.23731340660616
H          -11.18355690059763       -0.99917947230356       -1.35258381070610
H          -12.44214991737684       -2.26059501570190        0.34175321525645
H          -12.47381442307586       -3.60008854846839        2.40153683960383
H          -11.28222901302363       -4.66897292364826        4.27048348017092
H           -8.83267986818548       -4.49260444283717        4.44879932343136
H           -6.68480785605720       -3.66628850429316        3.56997090154936
H           -5.42513606020705       -2.42744652542234        1.87419585017938
H           -2.40284589489952       -3.91415959716928        0.18605558737771
H           -0.16338684209497       -4.97602079690380        0.21513336333872
H            1.77482739470050       -5.13220258861188        1.59781919847790
H            3.99810499696323       -6.17629675054925        1.57458288048130
H            4.29294914179652       -7.76552427829229       -0.30351937158156
H            5.19359475753483      -10.05249112953362       -0.47711262527411
H            7.60702469976819      -10.46979675460224       -0.42045945685128
H            9.20677259521943       -8.59553039976259       -0.21692423292995
H           10.40097455296664       -6.12658980782343        0.01675400073725
H           10.87758221157478       -3.71050420310528        0.23481179690956
H            9.05121781527174       -2.08384298104731        0.37633883694673
H            6.69613968998857       -2.80278318272115        0.27851076184376
H            5.20548087145260       -3.53837532912343       -1.56043995297181
H            2.99121022790553       -2.47655081948200       -1.52059503345455
H            1.65809336188591       -1.14454235056131       -0.10052286514479
H            1.45255710113319        0.78685648285475       -0.00816260670263
H            0.82382629233986        4.82882775073315       -1.48963854520846
H            2.79242021683861        6.29281428566351       -1.34870664380372
H            4.77173109810622        5.40356737053271       -2.58215386417225
H            6.39108573189198        6.40761002867680       -4.14625194889770
H            8.17812925956175        7.87912059284685       -3.34524683233151
H            8.41863714139670        8.37564613894616       -0.93523359388948
H            8.12006419571433        8.51950241489119        1.79796418626581
H            7.35826722915648        8.27608831747090        4.13746770683210
H            5.38641414534600        6.92571672437022        4.67590871704293
H            4.12438687599937        5.75584145020197        2.91190618967299
H            4.51642923191515        3.69467956544951        1.57067354682067
H            2.52504580342763        2.26028417576855        1.47223560210526
H           -1.05497684305449        4.21864381809170       -0.12086623696618
H           -3.02796743203404        2.79234477276967       -0.19302534578971
H           -3.54988622045349        0.85372206631130       -2.65078799951176
H           -3.32352861659091        2.15856390839700       -4.71011909174095
H           -4.57464254318264        4.26630010214168       -4.99777278199025
H           -6.09326628298303        5.05650671306896       -3.22736496333232

          :  Hamiltonian                  GFN2-xTB          :
         :: gradient norm              0.000083151648 Eh/a0 ::
         :: HOMO-LUMO gap              1.533638038023 eV    ::
         :: SCC energy              -208.762162063875 Eh    ::
         :: -> dispersion             -0.196232862519 Eh    ::
         :: -> Gsolv                  -0.086620886870 Eh    ::
         :: repulsion energy           3.933357003130 Eh    ::

    * Orbital Energies and Occupations

         #    Occupation            Energy/Eh            Energy/eV
      -------------------------------------------------------------
         1        2.0000           -0.6977432             -18.9866
       ...           ...                  ...                  ...
       179        2.0000           -0.4053351             -11.0297
       180        2.0000           -0.4046467             -11.0110
       181        2.0000           -0.4045100             -11.0073
       182        2.0000           -0.3977646             -10.8237
       183        2.0000           -0.3973333             -10.8120
       184        2.0000           -0.3881165             -10.5612
       185        2.0000           -0.3871020             -10.5336
       186        2.0000           -0.3787232             -10.3056
       187        2.0000           -0.3779561             -10.2847
       188        2.0000           -0.3773373             -10.2679
       189        2.0000           -0.3666076              -9.9759
       190        2.0000           -0.3617805              -9.8445
       191        2.0000           -0.3596717              -9.7872 (HOMO)
       192                         -0.3033115              -8.2535 (LUMO)
       193                         -0.2864724              -7.7953
       194                         -0.2666469              -7.2558
       195                         -0.2578547              -7.0166
       196                         -0.2569064              -6.9908
       197                         -0.2500525              -6.8043
       198                         -0.2484326              -6.7602
       199                         -0.2450616              -6.6685
       200                         -0.2426205              -6.6020
       201                         -0.2403259              -6.5396
       202                         -0.2324265              -6.3246
       ...                                ...                  ...
       377                          1.1508793              31.3170
      -------------------------------------------------------------
                  HL-Gap            0.0563602 Eh            1.5336 eV

     #   Z          covCN         q      C6AA      α(0)
     1   7 N        0.911    -0.266    26.889     7.500
     2   6 C        1.913     0.121    28.116     8.563
     3   6 C        2.970     0.009    27.823     8.652
     4   6 C        2.926    -0.017    28.430     8.744
     5   6 C        2.918    -0.039    28.976     8.827
     6   6 C        2.908     0.068    26.470     8.436
     7   7 N        2.842    -0.051    22.226     7.002
     8   6 C        3.183     0.140    24.549     8.086
     9   6 C        2.972    -0.013    28.330     8.731
    10   6 C        2.920    -0.037    28.922     8.819
    11   6 C        2.918    -0.039    28.976     8.827
    12   6 C        2.982     0.012    27.738     8.639
    13   6 C        2.913    -0.036    28.905     8.816
    14   6 C        2.913    -0.034    28.848     8.807
    15   6 C        2.981     0.012    27.739     8.639
    16   6 C        2.920    -0.036    28.884     8.813
    17   6 C        2.913    -0.029    28.735     8.790
    18   6 C        2.920    -0.035    28.879     8.813
    19   6 C        2.981     0.012    27.739     8.639
    20   6 C        2.913    -0.034    28.855     8.808
    21   6 C        2.912    -0.036    28.907     8.816
    22   6 C        2.983     0.011    27.758     8.642
    23   6 C        2.995     0.003    27.948     8.672
    24   6 C        2.997     0.003    27.948     8.672
    25   7 N        1.893    -0.310    28.885     7.968
    26   6 C        3.203     0.060    26.102     8.323
    27   6 C        2.985    -0.004    28.111     8.697
    28   6 C        2.918    -0.033    28.825     8.804
    29   6 C        2.922    -0.035    28.871     8.811
    30   6 C        2.974     0.008    27.839     8.655
    31   6 C        2.976     0.008    27.840     8.655
    32   6 C        2.924    -0.033    28.825     8.805
    33   6 C        2.920    -0.043    29.068     8.841
    34   6 C        2.912     0.062    26.613     8.459
    35   7 N        2.801    -0.046    22.133     6.987
    36   6 C        3.076     0.047    26.857     8.497
    37   6 C        2.910    -0.052    29.291     8.874
    38   6 C        2.924    -0.035    28.877     8.813
    39   6 C        2.919    -0.043    29.066     8.841
    40   6 C        2.912    -0.035    28.873     8.811
    41   6 C        3.067    -0.019    28.412     8.740
    42   6 C        3.067    -0.019    28.411     8.740
    43   6 C        2.912    -0.035    28.873     8.811
    44   6 C        2.920    -0.043    29.067     8.841
    45   6 C        2.924    -0.035    28.879     8.813
    46   6 C        2.910    -0.052    29.292     8.875
    47   6 C        3.075     0.047    26.858     8.497
    48   6 C        2.920    -0.043    29.071     8.842
    49   6 C        2.924    -0.034    28.841     8.807
    50   6 C        2.927    -0.041    29.025     8.835
    51   6 C        2.977    -0.003    28.105     8.696
    52   6 C        2.978     0.000    28.021     8.683
    53   6 C        2.928    -0.040    28.993     8.830
    54   6 C        2.974     0.008    27.830     8.653
    55   6 C        2.976     0.008    27.847     8.656
    56   6 C        2.924    -0.033    28.821     8.804
    57   6 C        2.920    -0.043    29.062     8.840
    58   6 C        2.912     0.062    26.600     8.457
    59   7 N        2.802    -0.047    22.139     6.988
    60   6 C        3.075     0.047    26.858     8.497
    61   6 C        2.909    -0.052    29.292     8.875
    62   6 C        2.924    -0.035    28.877     8.812
    63   6 C        2.919    -0.043    29.064     8.841
    64   6 C        2.912    -0.035    28.870     8.811
    65   6 C        3.067    -0.019    28.409     8.740
    66   6 C        3.067    -0.019    28.409     8.740
    67   6 C        2.912    -0.035    28.871     8.811
    68   6 C        2.919    -0.043    29.064     8.841
    69   6 C        2.924    -0.035    28.876     8.812
    70   6 C        2.909    -0.052    29.292     8.875
    71   6 C        3.076     0.047    26.859     8.497
    72   6 C        2.920    -0.043    29.060     8.840
    73   6 C        2.924    -0.033    28.833     8.806
    74   6 C        2.921    -0.036    28.894     8.815
    75   6 C        2.917    -0.040    28.985     8.829
    76   6 C        2.978    -0.006    28.170     8.706
    77   6 C        3.069     0.022    27.448     8.591
    78   6 C        2.985     0.007    27.846     8.656
    79   6 C        2.917    -0.027    28.679     8.782
    80   6 C        2.916    -0.022    28.565     8.764
    81   6 C        2.916    -0.021    28.523     8.758
    82   6 C        2.917    -0.029    28.728     8.789
    83   6 C        2.990     0.020    27.559     8.611
    84   1 H        0.926     0.053     2.278     2.360
    85   1 H        0.926     0.048     2.344     2.394
    86   1 H        0.926     0.024     2.672     2.556
    87   1 H        0.926     0.038     2.481     2.463
    88   1 H        0.926     0.037     2.485     2.465
    89   1 H        0.926     0.039     2.463     2.454
    90   1 H        0.926     0.038     2.482     2.464
    91   1 H        0.926     0.036     2.497     2.471
    92   1 H        0.926     0.037     2.484     2.465
    93   1 H        0.926     0.038     2.474     2.460
    94   1 H        0.926     0.043     2.415     2.430
    95   1 H        0.926     0.046     2.374     2.409
    96   1 H        0.926     0.037     2.486     2.466
    97   1 H        0.926     0.042     2.425     2.435
    98   1 H        0.926     0.042     2.427     2.436
    99   1 H        0.926     0.030     2.586     2.515
   100   1 H        0.926     0.030     2.592     2.517
   101   1 H        0.926     0.027     2.626     2.534
   102   1 H        0.926     0.029     2.594     2.519
   103   1 H        0.926     0.029     2.594     2.519
   104   1 H        0.926     0.027     2.629     2.535
   105   1 H        0.926     0.029     2.595     2.519
   106   1 H        0.926     0.030     2.588     2.516
   107   1 H        0.926     0.042     2.429     2.437
   108   1 H        0.926     0.041     2.433     2.439
   109   1 H        0.926     0.040     2.444     2.445
   110   1 H        0.926     0.043     2.403     2.424
   111   1 H        0.926     0.041     2.433     2.439
   112   1 H        0.926     0.042     2.422     2.434
   113   1 H        0.926     0.030     2.590     2.517
   114   1 H        0.926     0.030     2.590     2.517
   115   1 H        0.926     0.027     2.624     2.533
   116   1 H        0.926     0.030     2.592     2.517
   117   1 H        0.926     0.030     2.590     2.517
   118   1 H        0.926     0.027     2.624     2.533
   119   1 H        0.926     0.029     2.594     2.518
   120   1 H        0.926     0.029     2.595     2.519
   121   1 H        0.926     0.042     2.419     2.432
   122   1 H        0.926     0.042     2.424     2.435
   123   1 H        0.926     0.035     2.519     2.482
   124   1 H        0.926     0.025     2.656     2.549
   125   1 H        0.926     0.039     2.460     2.452
   126   1 H        0.926     0.049     2.327     2.386
   127   1 H        0.926     0.051     2.306     2.375
   128   1 H        0.926     0.044     2.396     2.421

molecular dipole:
                 x           y           z       tot (Debye)
 q only:       -1.022      -0.609      -0.139
   full:       -0.857      -0.573      -0.138       2.642

 projected vibrational frequencies (cm⁻¹)
eigval :       -0.00    -0.00     0.00     0.00     0.00     0.00
eigval :        3.17     7.77     8.96    10.07    11.43    14.97
eigval :       16.81    21.25    23.76    28.46    31.58    33.94
eigval :       44.58    51.35    54.46    65.34    74.49    75.99
eigval :       81.40    84.60    88.95    96.81    97.90   102.50
eigval :      103.03   110.95   114.99   120.19   125.86   130.18
eigval :      140.31   142.62   144.88   148.13   169.17   172.72
eigval :      180.68   193.25   196.57   207.78   215.13   220.61
eigval :      232.92   237.21   246.77   248.16   260.97   267.98
eigval :      270.77   271.45   274.15   282.72   302.52   324.00
eigval :      340.79   348.89   362.54   367.29   375.91   382.24
eigval :      384.30   384.86   388.17   392.29   393.77   394.76
eigval :      397.87   403.69   408.58   415.98   419.22   422.43
eigval :      423.07   429.84   434.04   435.54   436.90   440.93
eigval :      448.38   451.02   456.13   466.74   470.32   478.75
eigval :      483.61   495.23   500.05   505.82   512.21   514.62
eigval :      518.00   519.11   520.76   525.86   533.44   535.33
eigval :      539.79   540.68   545.16   562.97   570.54   577.08
eigval :      581.17   583.56   588.69   590.11   593.94   596.45
eigval :      603.41   608.80   611.09   615.44   617.81   635.58
eigval :      637.05   643.16   649.11   657.21   659.04   669.53
eigval :      673.06   673.33   679.65   685.01   688.02   693.80
eigval :      696.62   697.34   701.02   703.31   707.80   709.08
eigval :      715.60   724.75   730.03   734.39   744.67   754.81
eigval :      756.47   759.29   768.17   768.34   773.99   775.77
eigval :      779.11   779.33   779.67   780.23   801.32   810.11
eigval :      813.29   820.71   826.72   834.50   838.11   839.05
eigval :      839.84   852.78   859.64   866.07   866.86   868.76
eigval :      872.20   872.71   874.27   878.64   881.36   883.16
eigval :      890.21   897.08   897.74   900.39   900.85   901.37
eigval :      901.77   908.14   914.02   914.71   916.26   918.92
eigval :      919.57   920.31   920.40   920.48   921.09   924.23
eigval :      924.61   926.22   928.23   928.44   928.84   933.15
eigval :      935.90   936.59   939.99   954.20   995.33  1001.37
eigval :     1010.09  1010.93  1011.12  1015.44  1026.17  1038.31
eigval :     1068.75  1069.38  1072.09  1072.89  1077.99  1082.72
eigval :     1083.97  1099.21  1108.97  1111.80  1116.78  1116.92
eigval :     1127.27  1136.55  1137.50  1150.32  1150.73  1153.17
eigval :     1158.98  1165.07  1173.34  1174.62  1174.75  1175.27
eigval :     1177.55  1179.68  1180.01  1183.08  1183.46  1185.77
eigval :     1190.62  1195.74  1201.38  1202.09  1207.05  1213.49
eigval :     1223.26  1225.26  1232.67  1235.33  1235.82  1236.74
eigval :     1242.01  1243.14  1245.76  1252.61  1261.85  1265.22
eigval :     1268.08  1275.72  1282.65  1288.99  1293.93  1299.86
eigval :     1300.12  1301.19  1301.80  1307.29  1312.98  1313.60
eigval :     1315.74  1321.24  1326.80  1335.75  1341.00  1351.99
eigval :     1355.32  1355.42  1359.68  1360.24  1360.32  1364.00
eigval :     1365.29  1380.16  1385.82  1386.56  1390.40  1396.29
eigval :     1398.74  1404.34  1410.60  1411.82  1415.00  1415.71
eigval :     1424.28  1427.20  1427.56  1428.69  1434.33  1438.90
eigval :     1448.68  1450.00  1473.74  1474.01  1484.63  1486.61
eigval :     1486.80  1490.03  1490.84  1494.05  1498.72  1499.84
eigval :     1519.42  1536.41  1539.53  1551.88  1555.84  1560.19
eigval :     1560.89  1561.29  1565.18  1569.01  1572.96  1573.08
eigval :     1576.39  1583.87  1586.78  1587.06  1590.84  1596.70
eigval :     1596.86  1597.40  1600.78  1601.86  1602.40  1605.28
eigval :     1612.88  1612.99  2354.84  3066.93  3068.81  3070.41
eigval :     3070.45  3070.69  3070.77  3070.88  3072.42  3075.41
eigval :     3075.58  3075.86  3076.38  3076.62  3078.58  3079.01
eigval :     3079.55  3080.77  3080.80  3082.18  3083.12  3083.17
eigval :     3083.25  3084.10  3084.22  3084.32  3084.80  3084.99
eigval :     3086.21  3089.96  3090.26  3090.69  3090.74  3091.23
eigval :     3092.36  3092.64  3092.66  3093.75  3093.85  3097.64
eigval :     3100.11  3100.34  3101.74  3102.78  3108.46  3113.17

   temp. (K)  partition function   enthalpy   heat capacity  entropy
                                   cal/mol     cal/K/mol   cal/K/mol   J/K/mol
 298.15  VIB  0.873E+31            37570.129    238.512    235.718
         ROT  0.635E+09              888.752      2.981     43.260
         INT  0.554E+40            38458.882    241.493    278.978
         TR   0.330E+29             1481.254      4.968     46.712
         TOT                       39940.1358   246.4608   325.6896  1362.6855

       T/K    H(0)-H(T)+PV         H(T)/Eh          T*S/Eh         G(T)/Eh
   ------------------------------------------------------------------------
    298.15    0.636487E-01    0.103100E+01    0.154746E+00    0.876250E+00
   ------------------------------------------------------------------------

         :::::::::::::::::::::::::::::::::::::::::::::::::::::
         ::                  THERMODYNAMIC                  ::
         :::::::::::::::::::::::::::::::::::::::::::::::::::::
         :: total free energy        -203.952554779030 Eh   ::
         ::.................................................::
         :: total energy             -204.828805059178 Eh   ::
         :: zero point energy           0.967347280464 Eh   ::
         :: G(RRHO) w/o ZPVE           -0.091097000317 Eh   ::
         :: G(RRHO) contrib.            0.876250280148 Eh   ::
         :::::::::::::::::::::::::::::::::::::::::::::::::::::

           -------------------------------------------------
          | TOTAL ENERGY             -204.828805059178 Eh   |
          | TOTAL ENTHALPY           -203.797809120965 Eh   |
          | TOTAL FREE ENERGY        -203.952554779030 Eh   |
          | GRADIENT NORM               0.000083102992 Eh/α |
          | HOMO-LUMO GAP               1.533638580375 eV   |
           -------------------------------------------------

 * finished run on 2025/09/12 at 15:54:12.105
