   * xtb version 6.7.1 (edcfbbe) compiled by 'albert@albert-system' on 2024-07-22

   ID    Z sym.   atoms
    1    6 C      1-11, 13-45, 47-53, 55, 56
    2    7 N      12, 46, 54
    3    1 H      57-89

          program call               : xtb data2507/toluene/SFI34pPM/SFI34pPM_toluene_S0_finalOpt.xtbopt.xyz --gfn 2 --uhf 2 --gbsa toluene --ohess vtight --parallel 40 --molden --ceasefiles --namespace data2507/toluene/SFI34pPM/SFI34pPM_toluene_T1_preOpt
      * Solvation model:               GBSA
        Solvent                        toluene
        Solvent mass                       9.2140E+01 g/mol
          :  Hamiltonian                  GFN2-xTB          :
 * total energy  :  -139.1304067 Eh     change       -0.3138791E-07 Eh
 * total energy  :  -139.1337789 Eh     change       -0.3372169E-02 Eh
 * total energy  :  -139.1350761 Eh     change       -0.1297286E-02 Eh
 * total energy  :  -139.1352065 Eh     change       -0.1304031E-03 Eh
 * total energy  :  -139.1354287 Eh     change       -0.2221942E-03 Eh
 * total energy  :  -139.1355235 Eh     change       -0.9477424E-04 Eh
 * total energy  :  -139.1356292 Eh     change       -0.1056713E-03 Eh
 * total energy  :  -139.1357107 Eh     change       -0.8151189E-04 Eh
 * total energy  :  -139.1357716 Eh     change       -0.6090543E-04 Eh
 * total energy  :  -139.1358457 Eh     change       -0.7405117E-04 Eh
 * total energy  :  -139.1371798 Eh     change       -0.7639735E-06 Eh
 * total energy  :  -139.1371806 Eh     change       -0.8166479E-06 Eh
 * total energy  :  -139.1371815 Eh     change       -0.8406428E-06 Eh
 * total energy  :  -139.1371824 Eh     change       -0.9059632E-06 Eh
 * total energy  :  -139.1371833 Eh     change       -0.9277022E-06 Eh
 * total energy  :  -139.1371843 Eh     change       -0.9856829E-06 Eh
 * total energy  :  -139.1371853 Eh     change       -0.9883098E-06 Eh
 * total energy  :  -139.1371863 Eh     change       -0.1023359E-05 Eh
 * total energy  :  -139.1371863 Eh     change       -0.3534268E-08 Eh
   *** GEOMETRY OPTIMIZATION CONVERGED AFTER 122 ITERATIONS ***

 final structure:
================
89
 xtb: 6.7.1 (edcfbbe)
C            9.55981302950798        4.49360889304253        1.41125682391894
C            8.18927757883448        4.70064919668230        1.34704259156248
C            7.33745367830442        3.67046787703676        1.00639095716356
C            7.83744962034828        2.39282048160387        0.71964897852464
C            6.98842952433739        1.27411559040086        0.35746356976130
C            5.60780626790106        1.28508540746177        0.45544455139809
C            4.89021262307403        0.14442850932670        0.05667034739936
C            3.46629583548594        0.02753104720263        0.09971795278182
C            2.62266121317394        0.98897020599720        0.69818281591999
C            1.26093506739959        0.82672974424534        0.71668859254278
C            0.66647922055748       -0.30007805849632        0.13541180714585
N           -0.72411778834677       -0.46097712973186        0.16153926674438
C           -1.39249861514610       -1.58999958253770        0.58905121890305
C           -0.87162312516798       -2.77412931146787        1.09393518478110
C           -1.76249622649752       -3.76118485468410        1.47304698235350
C           -3.13706538166300       -3.57056343211209        1.36336160368401
C           -3.66130305342560       -2.38048135691733        0.88823463614289
C           -2.78959901881789       -1.37393577159361        0.50151066672091
C           -2.96209159966811       -0.03462165353818       -0.00355296542467
C           -4.03667470804190        0.77853107525778       -0.31020784256643
C           -3.79429424778294        2.07132065908098       -0.81759204666031
C           -2.50154220025178        2.54522334395728       -1.04395265248784
C           -1.41770681915752        1.74994492032700       -0.74015068585201
C           -1.64904370676855        0.48442026664308       -0.20239549418798
C           -5.06413814096546        2.72786042037823       -1.04197606870908
C           -5.36723516734230        3.99757574835612       -1.51631389518204
C           -6.69749586926419        4.36665130574668       -1.61724366306623
C           -7.71108451294771        3.48915629512518       -1.25459171593762
C           -7.41627391187338        2.21665528150303       -0.78114091248391
C           -6.09392250413468        1.84644551129733       -0.67850709455170
C           -5.51871103160856        0.53104267223994       -0.19594213785206
C           -6.06066788388167       -0.61526444544226       -1.01820965909418
C           -5.86883208224240       -0.87647047141491       -2.35692950332288
C           -6.50933653932656       -1.97615267693110       -2.91358565581921
C           -7.33039405607942       -2.78613888918486       -2.14316395788728
C           -7.52768523093519       -2.52462394358611       -0.79633301104701
C           -6.88703180226073       -1.43326300518095       -0.23236927684599
C           -6.86845531726642       -0.93136207669826        1.13461409507619
C           -7.48530839215435       -1.39381394042765        2.28573200705014
C           -7.25186760164994       -0.72539369921214        3.47733779809266
C           -6.41977149973339        0.38342190448146        3.52118419832349
C           -5.80398911852032        0.85759960699398        2.36991337184464
C           -6.03098034181180        0.19385264910145        1.18448182004923
C            1.48642725105714       -1.26595164723596       -0.46325237575919
C            2.84629353457717       -1.10692681088052       -0.47564378078651
N            5.59747794362911       -0.93255033919992       -0.40208098716208
C            6.90718330475285       -0.91171901273289       -0.45076528451699
C            7.61811034501080       -2.10610887251099       -0.91403423935436
C            8.99569052519227       -2.06951115891435       -1.11697969811015
C            9.66666761765785       -3.19901361321064       -1.54573001423843
C            8.97055441915673       -4.37547879276760       -1.77617191561669
C            7.59920622223129       -4.41908446407535       -1.57662985529446
C            6.92499384872984       -3.29161336251986       -1.14839776475760
N            7.61317751975565        0.14770954780920       -0.09730622548165
C            9.22664798254946        2.20196860464620        0.78343439402829
C           10.07124845276430        3.23588230321976        1.12422391542423
H           10.22097993667150        5.30467463729599        1.67833333263320
H            7.78271173955274        5.67893929608091        1.56255987587228
H            6.27742983764988        3.86696428358025        0.94950286419686
H            5.08896571957346        2.15104792401041        0.82917384367418
H            3.04645761680163        1.85863137966159        1.17569427574636
H            0.63629114393625        1.55638985285190        1.21142136131425
H            0.19314134108035       -2.91463099148296        1.19766563316416
H           -1.38408535439186       -4.69327224141176        1.86532601400546
H           -3.80691116581805       -4.36209600325124        1.66434061986431
H           -4.72654686691815       -2.24161221441114        0.82522549381587
H           -2.35285917072669        3.52984559689847       -1.45919314689447
H           -0.41051932688954        2.09023451850088       -0.92373923519843
H           -4.58268516895311        4.68340141044106       -1.79871749596604
H           -6.95268668897488        5.35078821944647       -1.98271322662261
H           -8.74190152756725        3.79965198012411       -1.34130368334575
H           -8.20635336349193        1.53573247609459       -0.49959270301041
H           -5.23409930159105       -0.24304676615254       -2.95974019845158
H           -6.36838362726526       -2.20116966500448       -3.96067814766301
H           -7.82142411035145       -3.63328866421218       -2.59989118280830
H           -8.16649849194855       -3.15963858056202       -0.20054442610231
H           -8.13221819716679       -2.25810750746403        2.25738283734411
H           -7.72276179327068       -1.07335597656132        4.38539002507640
H           -6.24988522799723        0.88629942902341        4.46208197622855
H           -5.16079593151272        1.72511606202200        2.40493685926980
H            1.03334794722978       -2.12202476595811       -0.94160327340672
H            3.48031754162344       -1.84116722629941       -0.94820912967969
H            9.52229377411986       -1.14460655779264       -0.93601298776274
H           10.73513357845906       -3.16367752876807       -1.70129669206841
H            9.49648311142520       -5.25801556010051       -2.10967041628737
H            7.05625287261685       -5.33590055796866       -1.75463838821514
H            5.85831195653532       -3.31064661405724       -0.98359278272770
H            9.61805583991198        1.21987009640468        0.56468360270577
H           11.13759104432648        3.06406442994746        1.16861471300190

          :  Hamiltonian                  GFN2-xTB          :
         :: gradient norm              0.000063006780 Eh/a0 ::
         :: HOMO-LUMO gap              0.371763894273 eV    ::
         :: SCC energy              -141.769977586863 Eh    ::
         :: -> dispersion             -0.131409488854 Eh    ::
         :: -> Gsolv                  -0.059878818100 Eh    ::
         :: repulsion energy           2.632791299467 Eh    ::

    * Orbital Energies and Occupations

         #    Occupation            Energy/Eh            Energy/eV
      -------------------------------------------------------------
         1        2.0000           -0.6888776             -18.7453
       ...           ...                  ...                  ...
       119        2.0000           -0.4050783             -11.0227
       120        2.0000           -0.4030305             -10.9670
       121        2.0000           -0.4013932             -10.9225
       122        2.0000           -0.4005715             -10.9001
       123        2.0000           -0.3985602             -10.8454
       124        2.0000           -0.3970451             -10.8041
       125        2.0000           -0.3944463             -10.7334
       126        2.0000           -0.3888367             -10.5808
       127        2.0000           -0.3867814             -10.5249
       128        2.0000           -0.3836320             -10.4392
       129        1.6549           -0.3659218              -9.9572
       130        1.3451           -0.3647044              -9.9241
       131        0.9992           -0.2808475              -7.6422 (HOMO)
       132        0.0008           -0.2671855              -7.2705 (LUMO)
       133                         -0.2569605              -6.9923
       134                         -0.2557507              -6.9593
       135                         -0.2555762              -6.9546
       136                         -0.2390056              -6.5037
       137                         -0.2306036              -6.2750
       138                         -0.2287517              -6.2246
       139                         -0.2258966              -6.1470
       140                         -0.2229706              -6.0673
       141                         -0.2226426              -6.0584
       142                         -0.2204317              -5.9983
       ...                                ...                  ...
       257                          0.7498005              20.4031
      -------------------------------------------------------------
                  HL-Gap            0.0136620 Eh            0.3718 eV

     #   Z          covCN         q      C6AA      α(0)
     1   6 C        2.919    -0.038    28.946     8.823
     2   6 C        2.917    -0.033    28.814     8.802
     3   6 C        2.921    -0.041    29.027     8.835
     4   6 C        2.975    -0.003    28.099     8.695
     5   6 C        2.935     0.081    26.194     8.394
     6   6 C        2.912    -0.058    29.439     8.897
     7   6 C        2.935     0.070    26.430     8.431
     8   6 C        2.973    -0.007    28.187     8.709
     9   6 C        2.919    -0.045    29.107     8.847
    10   6 C        2.916    -0.043    29.062     8.840
    11   6 C        2.913     0.039    27.120     8.539
    12   7 N        2.799    -0.008    21.411     6.872
    13   6 C        3.078     0.047    26.873     8.499
    14   6 C        2.910    -0.042    29.052     8.838
    15   6 C        2.922    -0.031    28.773     8.796
    16   6 C        2.920    -0.034    28.838     8.806
    17   6 C        2.913    -0.031    28.774     8.796
    18   6 C        3.059    -0.011    28.239     8.714
    19   6 C        3.054    -0.017    28.385     8.737
    20   6 C        3.039     0.008    27.810     8.650
    21   6 C        3.037    -0.001    28.009     8.681
    22   6 C        2.916    -0.037    28.909     8.817
    23   6 C        2.911    -0.045    29.106     8.847
    24   6 C        3.076     0.046    26.892     8.502
    25   6 C        3.034     0.004    27.897     8.663
    26   6 C        2.914    -0.033    28.817     8.803
    27   6 C        2.920    -0.031    28.778     8.797
    28   6 C        2.923    -0.029    28.725     8.789
    29   6 C        2.913    -0.032    28.803     8.801
    30   6 C        3.060     0.009    27.761     8.640
    31   6 C        3.978     0.013    20.288     6.399
    32   6 C        3.055     0.007    27.803     8.647
    33   6 C        2.913    -0.033    28.823     8.804
    34   6 C        2.923    -0.031    28.778     8.797
    35   6 C        2.921    -0.032    28.798     8.800
    36   6 C        2.914    -0.034    28.846     8.807
    37   6 C        3.035     0.002    27.957     8.673
    38   6 C        3.035     0.002    27.956     8.672
    39   6 C        2.914    -0.034    28.846     8.807
    40   6 C        2.921    -0.032    28.798     8.800
    41   6 C        2.923    -0.031    28.780     8.798
    42   6 C        2.913    -0.033    28.823     8.804
    43   6 C        3.054     0.007    27.809     8.648
    44   6 C        2.915    -0.043    29.058     8.839
    45   6 C        2.924    -0.037    28.928     8.820
    46   7 N        1.853    -0.259    27.598     7.786
    47   6 C        2.887     0.191    23.921     8.018
    48   6 C        2.983    -0.002    28.079     8.692
    49   6 C        2.924    -0.027    28.687     8.783
    50   6 C        2.918    -0.029    28.714     8.787
    51   6 C        2.920    -0.027    28.666     8.780
    52   6 C        2.918    -0.029    28.718     8.788
    53   6 C        2.924    -0.028    28.697     8.785
    54   7 N        1.852    -0.271    27.889     7.827
    55   6 C        2.926    -0.034    28.840     8.807
    56   6 C        2.916    -0.032    28.805     8.801
    57   1 H        0.926     0.028     2.611     2.527
    58   1 H        0.926     0.028     2.614     2.528
    59   1 H        0.926     0.024     2.674     2.557
    60   1 H        0.926     0.030     2.584     2.514
    61   1 H        0.926     0.029     2.606     2.525
    62   1 H        0.926     0.037     2.487     2.466
    63   1 H        0.926     0.042     2.420     2.433
    64   1 H        0.926     0.041     2.441     2.443
    65   1 H        0.926     0.039     2.460     2.453
    66   1 H        0.926     0.043     2.411     2.428
    67   1 H        0.926     0.044     2.395     2.420
    68   1 H        0.926     0.044     2.396     2.421
    69   1 H        0.926     0.039     2.466     2.456
    70   1 H        0.926     0.037     2.483     2.464
    71   1 H        0.926     0.037     2.483     2.464
    72   1 H        0.926     0.032     2.560     2.502
    73   1 H        0.926     0.028     2.608     2.525
    74   1 H        0.926     0.034     2.532     2.488
    75   1 H        0.926     0.035     2.522     2.484
    76   1 H        0.926     0.036     2.503     2.474
    77   1 H        0.926     0.036     2.503     2.474
    78   1 H        0.926     0.034     2.525     2.485
    79   1 H        0.926     0.034     2.536     2.490
    80   1 H        0.926     0.028     2.611     2.527
    81   1 H        0.926     0.039     2.458     2.452
    82   1 H        0.926     0.042     2.426     2.436
    83   1 H        0.926     0.045     2.385     2.415
    84   1 H        0.926     0.041     2.435     2.440
    85   1 H        0.926     0.042     2.416     2.431
    86   1 H        0.926     0.042     2.425     2.435
    87   1 H        0.926     0.046     2.376     2.410
    88   1 H        0.926     0.036     2.499     2.472
    89   1 H        0.926     0.029     2.596     2.520

molecular dipole:
                 x           y           z       tot (Debye)
 q only:       -3.338      -0.639      -0.181
   full:       -3.383      -0.310      -0.068       8.636

 projected vibrational frequencies (cm⁻¹)
eigval :       -0.00    -0.00    -0.00    -0.00     0.00     0.00
eigval :        9.21    12.01    14.60    28.02    30.44    33.82
eigval :       42.29    43.83    44.96    50.01    55.90    60.65
eigval :       74.83    80.74    83.16    93.95    99.78   115.00
eigval :      118.70   124.37   135.49   146.37   159.08   164.13
eigval :      170.73   201.63   205.67   216.58   227.18   229.98
eigval :      236.04   263.26   269.67   281.97   295.00   298.64
eigval :      315.74   324.23   346.41   366.47   366.96   368.87
eigval :      381.01   389.18   390.54   399.01   401.85   408.92
eigval :      413.48   415.53   430.00   437.73   440.79   451.90
eigval :      462.06   471.36   477.18   502.59   504.05   508.50
eigval :      537.83   540.02   545.89   550.32   563.15   581.05
eigval :      581.86   584.68   586.90   589.74   590.72   591.67
eigval :      596.18   600.12   607.81   630.94   637.22   639.51
eigval :      645.54   654.42   663.39   666.77   673.66   682.18
eigval :      683.97   692.65   701.36   711.36   736.97   744.54
eigval :      747.61   755.28   761.82   768.01   771.42   772.14
eigval :      785.21   797.08   801.26   818.67   823.26   831.79
eigval :      836.29   840.89   856.95   865.72   873.84   876.26
eigval :      877.58   879.67   879.78   884.43   894.52   897.97
eigval :      900.18   900.61   909.64   910.89   911.40   912.36
eigval :      915.78   918.05   920.95   923.77   924.07   924.27
eigval :      926.34   926.58   926.82   927.75   928.98   938.38
eigval :      978.29   983.42   990.84  1005.86  1006.57  1049.18
eigval :     1052.96  1071.52  1072.48  1072.58  1073.60  1074.83
eigval :     1077.17  1078.27  1081.18  1096.03  1111.63  1117.11
eigval :     1124.28  1129.78  1140.41  1141.22  1143.20  1164.57
eigval :     1167.42  1172.25  1174.99  1175.44  1177.42  1179.01
eigval :     1179.23  1184.31  1194.89  1198.77  1202.35  1206.12
eigval :     1207.25  1222.49  1230.54  1241.69  1250.01  1251.99
eigval :     1259.45  1267.66  1270.67  1272.68  1281.41  1285.07
eigval :     1287.72  1291.41  1294.15  1325.68  1325.86  1326.35
eigval :     1328.54  1337.41  1338.81  1349.65  1355.70  1363.96
eigval :     1374.59  1383.99  1388.90  1397.54  1414.91  1425.04
eigval :     1426.02  1427.78  1429.27  1431.23  1434.80  1448.65
eigval :     1449.91  1460.01  1461.65  1463.90  1468.25  1469.96
eigval :     1472.54  1476.36  1485.40  1551.55  1552.77  1561.07
eigval :     1563.28  1576.55  1582.16  1582.37  1582.99  1587.14
eigval :     1589.13  1593.38  1594.38  1599.37  1600.70  1602.34
eigval :     3064.46  3065.89  3070.53  3071.10  3073.36  3073.77
eigval :     3074.08  3075.00  3075.91  3076.81  3077.02  3079.14
eigval :     3080.51  3081.12  3081.28  3082.49  3084.85  3086.24
eigval :     3086.63  3089.35  3089.62  3091.18  3091.28  3092.69
eigval :     3092.77  3093.03  3093.55  3096.11  3098.26  3098.96
eigval :     3102.33  3113.72  3141.87

   temp. (K)  partition function   enthalpy   heat capacity  entropy
                                   cal/mol     cal/K/mol   cal/K/mol   J/K/mol
 298.15  VIB  0.442E+20            25382.806    162.245    157.756
         ROT  0.161E+09              888.752      2.981     40.540
         INT  0.713E+28            26271.558    165.225    198.296
         TR   0.184E+29             1481.254      4.968     45.548
         TOT                       27752.8122   170.1936   243.8436  1020.2418

       T/K    H(0)-H(T)+PV         H(T)/Eh          T*S/Eh         G(T)/Eh
   ------------------------------------------------------------------------
    298.15    0.442269E-01    0.720202E+00    0.115858E+00    0.604344E+00
   ------------------------------------------------------------------------

         :::::::::::::::::::::::::::::::::::::::::::::::::::::
         ::                  THERMODYNAMIC                  ::
         :::::::::::::::::::::::::::::::::::::::::::::::::::::
         :: total free energy        -138.532842007297 Eh   ::
         ::.................................................::
         :: total energy             -139.137186286642 Eh   ::
         :: zero point energy           0.675975340489 Eh   ::
         :: G(RRHO) w/o ZPVE           -0.071631061144 Eh   ::
         :: G(RRHO) contrib.            0.604344279345 Eh   ::
         :::::::::::::::::::::::::::::::::::::::::::::::::::::

           -------------------------------------------------
          | TOTAL ENERGY             -139.137186286642 Eh   |
          | TOTAL ENTHALPY           -138.416984024682 Eh   |
          | TOTAL FREE ENERGY        -138.532842007297 Eh   |
          | GRADIENT NORM               0.000064140170 Eh/α |
          | HOMO-LUMO GAP               0.371763101279 eV   |
           -------------------------------------------------

 * finished run on 2025/09/09 at 09:30:58.987
