   * xtb version 6.7.1 (edcfbbe) compiled by 'albert@albert-system' on 2024-07-22

   ID    Z sym.   atoms
    1    6 C      1-11, 13-45, 47-53, 55, 56
    2    7 N      12, 46, 54
    3    1 H      57-89

          program call               : xtb data2507/toluene/SFI34pPM/SFI34pPM_toluene_S0_crest.xyz --gfn 2 --gbsa toluene --ohess vtight --parallel 40 --molden --ceasefiles --namespace data2507/toluene/SFI34pPM/SFI34pPM_toluene_S0_finalOpt
      * Solvation model:               GBSA
        Solvent                        toluene
        Solvent mass                       9.2140E+01 g/mol
          :  Hamiltonian                  GFN2-xTB          :
 * total energy  :  -139.2176330 Eh     change       -0.2395012E-08 Eh
 * total energy  :  -139.2176684 Eh     change       -0.3535757E-04 Eh
 * total energy  :  -139.2176817 Eh     change       -0.1336689E-04 Eh
 * total energy  :  -139.2176877 Eh     change       -0.5984885E-05 Eh
 * total energy  :  -139.2176942 Eh     change       -0.6474259E-05 Eh
 * total energy  :  -139.2176978 Eh     change       -0.3644202E-05 Eh
 * total energy  :  -139.2177039 Eh     change       -0.6104464E-05 Eh
 * total energy  :  -139.2177120 Eh     change       -0.8026446E-05 Eh
 * total energy  :  -139.2177181 Eh     change       -0.6156404E-05 Eh
 * total energy  :  -139.2177223 Eh     change       -0.4128339E-05 Eh
 * total energy  :  -139.2177299 Eh     change       -0.1343164E-05 Eh
 * total energy  :  -139.2177308 Eh     change       -0.8569444E-06 Eh
 * total energy  :  -139.2177314 Eh     change       -0.5656323E-06 Eh
 * total energy  :  -139.2177318 Eh     change       -0.4048458E-06 Eh
 * total energy  :  -139.2177321 Eh     change       -0.3227750E-06 Eh
 * total energy  :  -139.2177324 Eh     change       -0.3023530E-06 Eh
 * total energy  :  -139.2177327 Eh     change       -0.3044872E-06 Eh
 * total energy  :  -139.2177330 Eh     change       -0.3527130E-06 Eh
 * total energy  :  -139.2177331 Eh     change       -0.9120299E-08 Eh
   *** GEOMETRY OPTIMIZATION CONVERGED AFTER 22 ITERATIONS ***

 final structure:
================
89
 xtb: 6.7.1 (edcfbbe)
C            9.32113355297355        4.80615174509228        0.57167189246971
C            8.03951051910569        4.89989225675266        0.05355866454334
C            7.26120430100112        3.76588836015839       -0.09046017204888
C            7.76189314677058        2.51918238880012        0.27920734234208
C            6.96209733168680        1.29474168008103        0.13912144938404
C            5.56979937741815        1.29574011196558        0.21833374200955
C            4.92010163211752        0.07042386722981        0.07193899445813
C            3.46009416035576       -0.06274455212194        0.13018841388487
C            2.66815576792520        0.82329887812984        0.85898551786283
C            1.29701635445807        0.67223104128065        0.89611107956264
C            0.68364843649518       -0.36119455445721        0.19027865326725
N           -0.70875556868833       -0.50320147948665        0.21293979088677
C           -1.39757922520824       -1.66864935586299        0.48772949391949
C           -0.90136665035414       -2.91218490248860        0.85251917360242
C           -1.80988232500506       -3.92114499510823        1.10791669941575
C           -3.18115735621855       -3.69749568242777        1.01367242470695
C           -3.67976285083868       -2.45482613861798        0.67609310516429
C           -2.78829253709183       -1.42253103999183        0.41220108921323
C           -2.94015959187345       -0.03428643945392        0.06278678728688
C           -4.00797179235623        0.81530404611367       -0.18443474884472
C           -3.75239285672560        2.14839780388701       -0.53724800586601
C           -2.45595977698536        2.64043976534860       -0.66278413621624
C           -1.37979000828630        1.81030354386057       -0.42150070643718
C           -1.62613983093404        0.49534855406090       -0.04553615519260
C           -5.01954485003680        2.82974285814489       -0.74018230310941
C           -5.31051907447439        4.14001529949217       -1.08608401670458
C           -6.63898836748781        4.51667326079427       -1.20357089940688
C           -7.66052278597684        3.60478621451864       -0.98277505753329
C           -7.37607046026013        2.28985270921902       -0.63763522572514
C           -6.05614716258249        1.91427847624847       -0.51935948981398
C           -5.49291702918569        0.55481830741430       -0.15449791647850
C           -5.99555276010107       -0.49996562035751       -1.11108079141919
C           -5.73427684317127       -0.63316974463079       -2.45693017401702
C           -6.34668647220207       -1.66908327320573       -3.15039648340508
C           -7.20915810835307       -2.54340711985979       -2.50606489658736
C           -7.47507092992799       -2.41238997032974       -1.15204392228720
C           -6.86215617908012       -1.38573168126678       -0.45233057455725
C           -6.90706980324153       -1.02365495071532        0.95750458283212
C           -7.57930766768648       -1.59421531115929        2.02608662617375
C           -7.39866958920000       -1.05243418229118        3.28909370995788
C           -6.56293376875535        0.03709710325289        3.48360603565242
C           -5.89142818828878        0.61882494396686        2.41596672982453
C           -6.06631874840250        0.08204800903522        1.15950795852938
C            1.47098371004500       -1.25382726678145       -0.53565246224454
C            2.84189720853705       -1.10925863960153       -0.55448595209220
N            5.61189010323246       -1.04721378366558       -0.14755964720639
C            6.93691657405331       -0.96165539003882       -0.19383435170030
C            7.68789924278319       -2.20132256695445       -0.41739129990208
C            9.05865165345441       -2.15745864376599       -0.66572949274616
C            9.76392604673047       -3.32704533531834       -0.87656736553943
C            9.11109327271874       -4.54959579673827       -0.84053994196631
C            7.74782840012598       -4.59988662491933       -0.59340089205138
C            7.03733282400419       -3.43350388717383       -0.38249818560636
N            7.63417642569218        0.16075732857377       -0.05260288886575
C            9.05739822962844        2.43241857063755        0.78682370956280
C            9.82881422415131        3.56901141888832        0.93615670172536
H            9.92418784347950        5.69485195935937        0.68603393601112
H            7.64468915310884        5.86105095443339       -0.24194726552838
H            6.27171076909905        3.84876177127320       -0.51575802339764
H            5.02008356575467        2.20626158628264        0.38540868989725
H            3.12562216513664        1.61717770175109        1.43016364732086
H            0.69351831776437        1.34435887850945        1.48735334351867
H            0.15995896772866       -3.08537975693282        0.94599577855512
H           -1.44907060526851       -4.89939620548494        1.39033141481015
H           -3.86540211855225       -4.50785191068973        1.21795834725858
H           -4.74205179053143       -2.28970372918945        0.62422889291701
H           -2.29314520829887        3.66678020334654       -0.95482636173113
H           -0.36939063320745        2.17176648973655       -0.53562935089980
H           -4.51994037926197        4.85534025180525       -1.25887844252768
H           -6.88341152241552        5.53481322202782       -1.47119883352091
H           -8.68922868985079        3.92019592217078       -1.07975581952927
H           -8.17232649427183        1.57963865267677       -0.46551509174165
H           -5.06492503743191        0.04963312661276       -2.96031890434310
H           -6.15005988870382       -1.79351897360647       -4.20543885636620
H           -7.67726063160950       -3.33944415116203       -3.06722587416661
H           -8.14438907041197       -3.09847002362643       -0.65409158009999
H           -8.22907762292277       -2.44462950568289        1.88017013385720
H           -7.91427899434073       -1.48545257938211        4.13425369710149
H           -6.43410127039922        0.44039590635467        4.47755607062886
H           -5.24481506493423        1.47110390770886        2.56797771211781
H            0.99917600954544       -2.04754830966629       -1.09486527545410
H            3.45887773644614       -1.79405109063673       -1.11541061894414
H            9.55071480885888       -1.19748538279541       -0.69448642868594
H           10.82599070427406       -3.28722990251491       -1.07030555474694
H            9.66439982868525       -5.46265451246201       -1.00531475819548
H            7.23902936909049       -5.55245298915101       -0.56418111034291
H            5.97684095501348       -3.45559602902095       -0.18429085416357
H            9.43873139100109        1.46199081426690        1.06589487758381
H           10.82883453994476        3.49081730572850        1.33686458843483

          :  Hamiltonian                  GFN2-xTB          :
         :: gradient norm              0.000068032777 Eh/a0 ::
         :: HOMO-LUMO gap              2.083614595381 eV    ::
         :: SCC energy              -141.859519812528 Eh    ::
         :: -> dispersion             -0.131367246762 Eh    ::
         :: -> Gsolv                  -0.058619981171 Eh    ::
         :: repulsion energy           2.641786760388 Eh    ::

    * Orbital Energies and Occupations

         #    Occupation            Energy/Eh            Energy/eV
      -------------------------------------------------------------
         1        2.0000           -0.6794383             -18.4885
       ...           ...                  ...                  ...
       118        2.0000           -0.4104113             -11.1679
       119        2.0000           -0.4081044             -11.1051
       120        2.0000           -0.4074438             -11.0871
       121        2.0000           -0.4065645             -11.0632
       122        2.0000           -0.4004417             -10.8966
       123        2.0000           -0.3978206             -10.8253
       124        2.0000           -0.3969901             -10.8027
       125        2.0000           -0.3939725             -10.7205
       126        2.0000           -0.3913886             -10.6502
       127        2.0000           -0.3802434             -10.3469
       128        2.0000           -0.3786271             -10.3030
       129        2.0000           -0.3650666              -9.9340
       130        2.0000           -0.3597718              -9.7899 (HOMO)
       131                         -0.2832004              -7.7063 (LUMO)
       132                         -0.2745114              -7.4698
       133                         -0.2522303              -6.8635
       134                         -0.2494246              -6.7872
       135                         -0.2466811              -6.7125
       136                         -0.2412512              -6.5648
       137                         -0.2372256              -6.4552
       138                         -0.2300256              -6.2593
       139                         -0.2254030              -6.1335
       140                         -0.2252307              -6.1288
       141                         -0.2250992              -6.1253
       ...                                ...                  ...
       257                          0.7581561              20.6305
      -------------------------------------------------------------
                  HL-Gap            0.0765714 Eh            2.0836 eV

     #   Z          covCN         q      C6AA      α(0)
     1   6 C        2.920    -0.026    28.652     8.778
     2   6 C        2.918    -0.029    28.716     8.788
     3   6 C        2.923    -0.032    28.802     8.801
     4   6 C        2.980    -0.000    28.024     8.684
     5   6 C        2.967     0.113    25.510     8.285
     6   6 C        2.912    -0.072    29.799     8.951
     7   6 C        2.967     0.112    25.522     8.287
     8   6 C        2.979    -0.003    28.085     8.693
     9   6 C        2.922    -0.031    28.772     8.796
    10   6 C        2.921    -0.042    29.047     8.838
    11   6 C        2.913     0.068    26.483     8.439
    12   7 N        2.800    -0.040    22.009     6.968
    13   6 C        3.074     0.047    26.876     8.500
    14   6 C        2.910    -0.052    29.289     8.874
    15   6 C        2.923    -0.034    28.839     8.807
    16   6 C        2.920    -0.041    29.024     8.835
    17   6 C        2.913    -0.035    28.882     8.813
    18   6 C        3.062    -0.016    28.342     8.730
    19   6 C        3.055    -0.021    28.486     8.753
    20   6 C        3.039     0.000    27.980     8.676
    21   6 C        3.038    -0.012    28.268     8.721
    22   6 C        2.918    -0.039    28.965     8.825
    23   6 C        2.911    -0.055    29.369     8.886
    24   6 C        3.073     0.045    26.921     8.507
    25   6 C        3.035     0.000    27.985     8.677
    26   6 C        2.915    -0.037    28.916     8.818
    27   6 C        2.921    -0.034    28.852     8.808
    28   6 C        2.923    -0.035    28.861     8.810
    29   6 C        2.914    -0.035    28.861     8.809
    30   6 C        3.060     0.004    27.869     8.657
    31   6 C        3.980     0.012    20.294     6.400
    32   6 C        3.055     0.008    27.798     8.646
    33   6 C        2.913    -0.033    28.833     8.805
    34   6 C        2.923    -0.032    28.802     8.801
    35   6 C        2.921    -0.033    28.828     8.805
    36   6 C        2.914    -0.035    28.866     8.810
    37   6 C        3.035     0.001    27.980     8.676
    38   6 C        3.036     0.001    27.979     8.676
    39   6 C        2.914    -0.035    28.868     8.810
    40   6 C        2.921    -0.033    28.828     8.805
    41   6 C        2.923    -0.032    28.804     8.801
    42   6 C        2.913    -0.033    28.833     8.805
    43   6 C        3.055     0.007    27.801     8.647
    44   6 C        2.920    -0.041    29.019     8.834
    45   6 C        2.925    -0.023    28.591     8.769
    46   7 N        1.849    -0.293    28.446     7.905
    47   6 C        2.943     0.190    23.955     8.027
    48   6 C        2.984    -0.004    28.118     8.698
    49   6 C        2.924    -0.029    28.713     8.787
    50   6 C        2.918    -0.029    28.719     8.788
    51   6 C        2.920    -0.026    28.647     8.777
    52   6 C        2.918    -0.029    28.720     8.788
    53   6 C        2.924    -0.029    28.718     8.788
    54   7 N        1.849    -0.293    28.447     7.905
    55   6 C        2.925    -0.025    28.616     8.773
    56   6 C        2.918    -0.027    28.688     8.783
    57   1 H        0.926     0.041     2.430     2.438
    58   1 H        0.926     0.040     2.451     2.448
    59   1 H        0.926     0.035     2.518     2.481
    60   1 H        0.926     0.038     2.476     2.461
    61   1 H        0.926     0.043     2.405     2.425
    62   1 H        0.926     0.049     2.327     2.386
    63   1 H        0.926     0.033     2.551     2.497
    64   1 H        0.926     0.032     2.552     2.498
    65   1 H        0.926     0.029     2.605     2.524
    66   1 H        0.926     0.033     2.544     2.494
    67   1 H        0.926     0.035     2.522     2.483
    68   1 H        0.926     0.033     2.545     2.495
    69   1 H        0.926     0.032     2.561     2.503
    70   1 H        0.926     0.031     2.570     2.507
    71   1 H        0.926     0.030     2.579     2.512
    72   1 H        0.926     0.025     2.659     2.550
    73   1 H        0.926     0.027     2.636     2.539
    74   1 H        0.926     0.032     2.557     2.501
    75   1 H        0.926     0.033     2.548     2.496
    76   1 H        0.926     0.033     2.538     2.491
    77   1 H        0.926     0.033     2.539     2.492
    78   1 H        0.926     0.033     2.550     2.497
    79   1 H        0.926     0.032     2.558     2.501
    80   1 H        0.926     0.027     2.634     2.538
    81   1 H        0.926     0.050     2.314     2.379
    82   1 H        0.926     0.056     2.248     2.345
    83   1 H        0.926     0.050     2.323     2.383
    84   1 H        0.926     0.041     2.438     2.442
    85   1 H        0.926     0.042     2.424     2.435
    86   1 H        0.926     0.041     2.437     2.441
    87   1 H        0.926     0.050     2.323     2.383
    88   1 H        0.926     0.047     2.354     2.399
    89   1 H        0.926     0.041     2.434     2.439

molecular dipole:
                 x           y           z       tot (Debye)
 q only:        0.450       0.170       0.075
   full:        0.281       0.542       0.130       1.585

 projected vibrational frequencies (cm⁻¹)
eigval :       -0.00    -0.00    -0.00     0.00     0.00     0.00
eigval :        7.07     8.12    13.34    23.55    29.16    36.34
eigval :       41.52    43.06    47.70    49.00    55.72    57.10
eigval :       70.05    74.14    78.23    95.14   101.06   112.82
eigval :      119.51   126.31   133.47   142.33   148.52   163.80
eigval :      185.02   202.05   215.99   223.91   227.84   233.73
eigval :      239.84   264.76   268.59   281.35   297.20   300.52
eigval :      317.36   329.04   346.17   361.92   366.72   368.54
eigval :      380.17   387.43   395.06   397.27   407.29   413.65
eigval :      414.64   421.69   440.18   443.32   454.46   457.21
eigval :      467.69   481.11   488.29   503.19   506.60   507.29
eigval :      538.21   546.55   548.81   566.47   582.86   586.34
eigval :      587.00   590.51   592.17   599.89   602.24   606.19
eigval :      612.06   620.38   623.07   633.15   645.79   646.93
eigval :      665.02   672.72   674.67   683.24   686.15   693.95
eigval :      700.12   700.66   711.84   736.31   737.88   747.28
eigval :      757.09   765.18   768.05   773.05   773.75   778.43
eigval :      784.13   818.75   827.57   831.20   835.09   842.27
eigval :      845.30   866.00   872.78   875.51   876.26   877.01
eigval :      877.67   879.45   884.77   895.27   901.57   902.97
eigval :      906.21   906.71   908.21   908.64   910.87   920.58
eigval :      921.56   923.63   925.84   926.49   928.50   929.42
eigval :      931.43   932.70   934.14   934.31   935.55   969.63
eigval :      988.02  1003.60  1007.31  1010.30  1025.49  1054.63
eigval :     1072.51  1074.61  1075.49  1077.18  1077.61  1078.60
eigval :     1081.32  1087.47  1103.29  1111.81  1119.88  1123.31
eigval :     1135.47  1141.42  1141.83  1147.39  1169.18  1171.63
eigval :     1175.53  1176.79  1177.94  1178.67  1178.86  1181.07
eigval :     1185.68  1194.78  1197.32  1199.37  1204.53  1207.71
eigval :     1219.59  1225.55  1238.53  1244.91  1247.25  1252.17
eigval :     1260.04  1263.52  1270.30  1275.64  1277.90  1283.64
eigval :     1296.09  1303.18  1319.16  1320.61  1325.70  1326.16
eigval :     1338.34  1347.36  1358.33  1361.44  1364.51  1369.48
eigval :     1389.46  1395.57  1408.61  1410.09  1425.76  1426.64
eigval :     1428.86  1429.68  1436.20  1440.25  1455.60  1460.71
eigval :     1466.96  1468.57  1469.43  1475.80  1481.44  1491.80
eigval :     1511.44  1528.30  1560.21  1575.23  1581.01  1581.75
eigval :     1583.52  1583.60  1590.02  1592.49  1594.11  1594.88
eigval :     1594.98  1595.08  1599.73  1602.22  1603.19  1611.84
eigval :     3067.61  3069.01  3069.56  3070.53  3072.21  3072.35
eigval :     3072.69  3073.36  3074.12  3076.45  3077.04  3078.37
eigval :     3079.24  3080.32  3082.57  3082.85  3082.92  3083.85
eigval :     3087.30  3087.57  3087.66  3089.71  3090.52  3090.88
eigval :     3092.69  3094.76  3096.88  3099.26  3100.96  3102.56
eigval :     3103.86  3111.67  3140.09

   temp. (K)  partition function   enthalpy   heat capacity  entropy
                                   cal/mol     cal/K/mol   cal/K/mol   J/K/mol
 298.15  VIB  0.104E+21            25172.883    160.262    157.616
         ROT  0.161E+09              888.752      2.981     40.534
         INT  0.168E+29            26061.636    163.243    198.150
         TR   0.184E+29             1481.254      4.968     45.548
         TOT                       27542.8895   168.2113   243.6974  1019.6301

       T/K    H(0)-H(T)+PV         H(T)/Eh          T*S/Eh         G(T)/Eh
   ------------------------------------------------------------------------
    298.15    0.438924E-01    0.723674E+00    0.115789E+00    0.607886E+00
   ------------------------------------------------------------------------

         :::::::::::::::::::::::::::::::::::::::::::::::::::::
         ::                  THERMODYNAMIC                  ::
         :::::::::::::::::::::::::::::::::::::::::::::::::::::
         :: total free energy        -138.609847539446 Eh   ::
         ::.................................................::
         :: total energy             -139.217733051169 Eh   ::
         :: zero point energy           0.679781638763 Eh   ::
         :: G(RRHO) w/o ZPVE           -0.071896127041 Eh   ::
         :: G(RRHO) contrib.            0.607885511722 Eh   ::
         :::::::::::::::::::::::::::::::::::::::::::::::::::::

           -------------------------------------------------
          | TOTAL ENERGY             -139.217733051169 Eh   |
          | TOTAL ENTHALPY           -138.494059024139 Eh   |
          | TOTAL FREE ENERGY        -138.609847539446 Eh   |
          | GRADIENT NORM               0.000068023731 Eh/α |
          | HOMO-LUMO GAP               2.083614585394 eV   |
           -------------------------------------------------

 * finished run on 2025/09/09 at 09:30:24.882
