   * xtb version 6.7.1 (edcfbbe) compiled by 'albert@albert-system' on 2024-07-22

   ID    Z sym.   atoms
    1    6 C      1-11, 13-45, 47-53, 55, 56
    2    7 N      12, 46, 54
    3    1 H      57-89

          program call               : xtb data2507/toluene/SFI34pPM/SFI34pPM.xyz --gfn 2 --gbsa toluene --ohess vtight --parallel 40 --molden --ceasefiles --namespace data2507/toluene/SFI34pPM/SFI34pPM_toluene_S0_preOpt
      * Solvation model:               GBSA
        Solvent                        toluene
        Solvent mass                       9.2140E+01 g/mol
          :  Hamiltonian                  GFN2-xTB          :
 * total energy  :  -139.1980124 Eh     change       -0.3049109E-08 Eh
 * total energy  :  -139.2119665 Eh     change       -0.1395406E-01 Eh
 * total energy  :  -139.2154200 Eh     change       -0.3453473E-02 Eh
 * total energy  :  -139.2163205 Eh     change       -0.9005636E-03 Eh
 * total energy  :  -139.2169007 Eh     change       -0.5802086E-03 Eh
 * total energy  :  -139.2170905 Eh     change       -0.1897767E-03 Eh
 * total energy  :  -139.2171966 Eh     change       -0.1061177E-03 Eh
 * total energy  :  -139.2172569 Eh     change       -0.6022204E-04 Eh
 * total energy  :  -139.2173065 Eh     change       -0.4961379E-04 Eh
 * total energy  :  -139.2173380 Eh     change       -0.3153841E-04 Eh
 * total energy  :  -139.2174346 Eh     change       -0.1067508E-05 Eh
 * total energy  :  -139.2174355 Eh     change       -0.9844779E-06 Eh
 * total energy  :  -139.2174365 Eh     change       -0.9759044E-06 Eh
 * total energy  :  -139.2174375 Eh     change       -0.1009092E-05 Eh
 * total energy  :  -139.2174384 Eh     change       -0.8900766E-06 Eh
 * total energy  :  -139.2174390 Eh     change       -0.6134084E-06 Eh
 * total energy  :  -139.2174394 Eh     change       -0.3612599E-06 Eh
 * total energy  :  -139.2174397 Eh     change       -0.2729952E-06 Eh
 * total energy  :  -139.2174397 Eh     change       -0.2852886E-08 Eh
   *** GEOMETRY OPTIMIZATION CONVERGED AFTER 44 ITERATIONS ***

 final structure:
================
89
 xtb: 6.7.1 (edcfbbe)
C            9.57635077484637        4.43684892000779        0.94952469722010
C            9.99847746838113        3.14322342768222        1.21291240903686
C            9.16230343692473        2.07487703125803        0.95045129073918
C            7.88646815123093        2.28776241723581        0.43123707447852
C            7.01317643447413        1.13560844010921        0.17013572354765
C            5.62399199388938        1.21677266220328        0.26334580867503
C            4.89770228228712        0.05362501560659        0.00943917356420
C            3.43335068262850        0.00186323561026        0.09672817690618
C            2.64315964338493        1.12926381294726       -0.12116593976804
C            1.26881167006821        1.05447770853670       -0.01928737843609
C            0.65316872994973       -0.15361390327152        0.30135132535294
N           -0.74021629028268       -0.22612638990386        0.42293965729326
C           -1.42576596608967       -0.73705314049446        1.50738343685396
C           -0.92424401707610       -1.25410548792616        2.69342233561984
C           -1.82922763165683       -1.67807348119547        3.64728155274907
C           -3.20176259231780       -1.58242096127703        3.43154508156871
C           -3.70487629226226       -1.04554820864028        2.26300616361677
C           -2.81716263722295       -0.61099462319256        1.28665662518434
C           -2.97230112082697        0.00332656092198       -0.00592064666047
C           -4.04199918722598        0.37983366838595       -0.80415052346560
C           -3.78893374244402        0.94663141860900       -2.06173671413392
C           -2.49393383520098        1.12878989508691       -2.54011870652980
C           -1.41564841662511        0.76406253096841       -1.75925649374208
C           -1.65929067229516        0.22617136034554       -0.50129564536305
C           -5.05759817722292        1.25713051754415       -2.69829748612528
C           -5.35079417844041        1.82432055251706       -3.92852906039529
C           -6.67974404767301        2.00773658548668       -4.27570923038649
C           -7.69972027675083        1.63234483290547       -3.41395315503373
C           -7.41309466690084        1.06256060976249       -2.18012826343772
C           -6.09261589922495        0.88000407984391       -1.83341623973894
C           -5.52695721454193        0.28812187561735       -0.55760950047803
C           -6.07974609043834       -1.09778643757800       -0.32659141706756
C           -5.88230630486357       -2.23742404049518       -1.07471628450150
C           -6.53365079248034       -3.40241199107424       -0.69017600862895
C           -7.37270334270537       -3.41664775943907        0.41403696706709
C           -7.57619080936569       -2.27138155696330        1.16778486197203
C           -6.92277165191035       -1.10790510598052        0.79556910991005
C           -6.90098687104222        0.21636224701826        1.40097579367057
C           -7.52550414029099        0.71326965238213        2.53336104731387
C           -7.28259329399124        2.02703693017565        2.90230348851649
C           -6.43386644830437        2.83090454345051        2.15600162200724
C           -5.81023356048243        2.34180972221730        1.01535990039800
C           -6.04591299270260        1.03539456026259        0.64750587907657
C            1.43649773380723       -1.28810081182769        0.50559468377215
C            2.80915840355209       -1.20774646570416        0.40164721423482
N            5.51799254913923       -1.08345739970263       -0.30326352874395
C            6.84505828424992       -1.07421423336445       -0.36887972106905
C            7.51517741247909       -2.33147993171622       -0.71666321455209
C            8.90593343816764       -2.38984423880412       -0.79066743776217
C            9.53533419325589       -3.57631699491137       -1.11584328899325
C            8.78623813391117       -4.71446778352724       -1.37213232099196
C            7.40246942357501       -4.66219541279147       -1.30430650462616
C            6.76781562398609       -3.47848220574602       -0.97934872112279
N            7.61177855061986       -0.01212840873677       -0.14250207223331
C            7.47174682747223        3.59076378318282        0.16395039703385
C            8.31491227607263        4.65651093991215        0.42009771558003
H           10.23036728150078        5.27205216656434        1.15238705147340
H           10.98253160536437        2.96789672575995        1.62234118626825
H            9.47677901400075        1.06187219479898        1.15031050233947
H            5.13815431629033        2.12854103318909        0.56705882743607
H            3.10037951120025        2.07101588469219       -0.38483594300657
H            0.66436907679499        1.93587906349309       -0.17262407531813
H            0.13886708598059       -1.31431690541496        2.87124062175392
H           -1.46465630398990       -2.08788830418496        4.57790998914694
H           -3.88320170500422       -1.92553344395216        4.19610070723058
H           -4.76771361060228       -0.96210993651292        2.11521057826682
H           -2.33429628986758        1.55055675604068       -3.52083917082637
H           -0.40620090234195        0.88224762933274       -2.12249743550642
H           -4.56123878917205        2.11908410015286       -4.60400703213631
H           -6.92592139307915        2.44919795884075       -5.23094109836042
H           -8.72891595022076        1.78466037345980       -3.70492455779734
H           -8.20812333468508        0.77006212329990       -1.50900037482903
H           -5.23339603411267       -2.22632977021473       -1.93873198327017
H           -6.38618678974102       -4.30828571286714       -1.26014697903250
H           -7.87201839052137       -4.33393874481289        0.69152292805650
H           -8.22798667978661       -2.28797954809780        2.02894584822370
H           -8.18531314382574        0.09033493938957        3.11928009839287
H           -7.75886103001464        2.43036665535298        3.78443532339942
H           -6.25653330759029        3.85099383187131        2.46480544447550
H           -5.15289806310556        2.97047510027126        0.43190830170969
H            0.96053197798705       -2.23041343619304        0.73155570857179
H            3.42363172836793       -2.08102972117978        0.55581570003639
H            9.47437566020354       -1.49435168178020       -0.59287744699906
H           10.61351411621799       -3.61516373973915       -1.17126707938273
H            9.28028965027340       -5.64113364365107       -1.62566416999715
H            6.81788020612302       -5.54781735761149       -1.50693018207439
H            5.69175673961542       -3.42050153781957       -0.92704176315224
H            6.49817523903429        3.77119347379221       -0.26794775601451
H            7.98713755122061        5.66287991021001        0.20356652195713

          :  Hamiltonian                  GFN2-xTB          :
         :: gradient norm              0.000042664621 Eh/a0 ::
         :: HOMO-LUMO gap              2.077628516398 eV    ::
         :: SCC energy              -141.859200351542 Eh    ::
         :: -> dispersion             -0.131356400550 Eh    ::
         :: -> Gsolv                  -0.058605514376 Eh    ::
         :: repulsion energy           2.641760681812 Eh    ::

    * Orbital Energies and Occupations

         #    Occupation            Energy/Eh            Energy/eV
      -------------------------------------------------------------
         1        2.0000           -0.6794163             -18.4879
       ...           ...                  ...                  ...
       118        2.0000           -0.4105657             -11.1721
       119        2.0000           -0.4083574             -11.1120
       120        2.0000           -0.4076022             -11.0914
       121        2.0000           -0.4065270             -11.0622
       122        2.0000           -0.4012252             -10.9179
       123        2.0000           -0.3975610             -10.8182
       124        2.0000           -0.3968367             -10.7985
       125        2.0000           -0.3939009             -10.7186
       126        2.0000           -0.3913525             -10.6492
       127        2.0000           -0.3801936             -10.3456
       128        2.0000           -0.3785201             -10.3001
       129        2.0000           -0.3651479              -9.9362
       130        2.0000           -0.3595426              -9.7837 (HOMO)
       131                         -0.2831911              -7.7060 (LUMO)
       132                         -0.2749595              -7.4820
       133                         -0.2521751              -6.8620
       134                         -0.2494141              -6.7869
       135                         -0.2465544              -6.7091
       136                         -0.2418102              -6.5800
       137                         -0.2376076              -6.4656
       138                         -0.2301915              -6.2638
       139                         -0.2254134              -6.1338
       140                         -0.2251137              -6.1257
       141                         -0.2250181              -6.1231
       ...                                ...                  ...
       257                          0.7583527              20.6358
      -------------------------------------------------------------
                  HL-Gap            0.0763514 Eh            2.0776 eV

     #   Z          covCN         q      C6AA      α(0)
     1   6 C        2.920    -0.026    28.653     8.778
     2   6 C        2.918    -0.027    28.687     8.783
     3   6 C        2.925    -0.024    28.610     8.772
     4   6 C        2.980     0.000    28.021     8.683
     5   6 C        2.967     0.113    25.505     8.284
     6   6 C        2.912    -0.072    29.796     8.951
     7   6 C        2.966     0.112    25.521     8.286
     8   6 C        2.979    -0.002    28.077     8.692
     9   6 C        2.922    -0.031    28.766     8.795
    10   6 C        2.920    -0.042    29.041     8.837
    11   6 C        2.913     0.068    26.481     8.438
    12   7 N        2.800    -0.040    22.019     6.969
    13   6 C        3.075     0.047    26.873     8.499
    14   6 C        2.910    -0.052    29.294     8.875
    15   6 C        2.923    -0.034    28.842     8.807
    16   6 C        2.920    -0.041    29.028     8.835
    17   6 C        2.913    -0.035    28.883     8.813
    18   6 C        3.062    -0.016    28.344     8.730
    19   6 C        3.056    -0.022    28.490     8.753
    20   6 C        3.040     0.000    27.980     8.676
    21   6 C        3.037    -0.012    28.269     8.721
    22   6 C        2.918    -0.039    28.962     8.825
    23   6 C        2.911    -0.055    29.364     8.886
    24   6 C        3.073     0.045    26.917     8.506
    25   6 C        3.035     0.000    27.985     8.677
    26   6 C        2.915    -0.037    28.916     8.818
    27   6 C        2.921    -0.034    28.852     8.808
    28   6 C        2.923    -0.035    28.862     8.810
    29   6 C        2.914    -0.035    28.862     8.809
    30   6 C        3.060     0.004    27.870     8.657
    31   6 C        3.980     0.012    20.295     6.400
    32   6 C        3.055     0.008    27.798     8.647
    33   6 C        2.913    -0.033    28.831     8.805
    34   6 C        2.923    -0.032    28.801     8.801
    35   6 C        2.921    -0.033    28.828     8.805
    36   6 C        2.914    -0.035    28.868     8.810
    37   6 C        3.036     0.001    27.981     8.676
    38   6 C        3.035     0.001    27.979     8.676
    39   6 C        2.914    -0.035    28.868     8.810
    40   6 C        2.921    -0.033    28.830     8.805
    41   6 C        2.923    -0.032    28.805     8.801
    42   6 C        2.913    -0.033    28.834     8.805
    43   6 C        3.055     0.007    27.800     8.647
    44   6 C        2.920    -0.040    29.006     8.832
    45   6 C        2.925    -0.023    28.588     8.768
    46   7 N        1.849    -0.292    28.431     7.903
    47   6 C        2.943     0.190    23.959     8.028
    48   6 C        2.984    -0.004    28.123     8.699
    49   6 C        2.924    -0.029    28.715     8.788
    50   6 C        2.918    -0.029    28.719     8.788
    51   6 C        2.920    -0.026    28.643     8.776
    52   6 C        2.918    -0.029    28.721     8.788
    53   6 C        2.924    -0.029    28.719     8.788
    54   7 N        1.849    -0.293    28.437     7.903
    55   6 C        2.923    -0.032    28.797     8.800
    56   6 C        2.918    -0.029    28.714     8.787
    57   1 H        0.926     0.041     2.429     2.437
    58   1 H        0.926     0.041     2.432     2.439
    59   1 H        0.926     0.046     2.369     2.407
    60   1 H        0.926     0.038     2.474     2.459
    61   1 H        0.926     0.043     2.405     2.425
    62   1 H        0.926     0.049     2.328     2.386
    63   1 H        0.926     0.031     2.569     2.506
    64   1 H        0.926     0.032     2.560     2.502
    65   1 H        0.926     0.029     2.607     2.525
    66   1 H        0.926     0.033     2.544     2.494
    67   1 H        0.926     0.035     2.522     2.483
    68   1 H        0.926     0.033     2.548     2.496
    69   1 H        0.926     0.032     2.561     2.503
    70   1 H        0.926     0.031     2.570     2.507
    71   1 H        0.926     0.030     2.580     2.512
    72   1 H        0.926     0.025     2.660     2.551
    73   1 H        0.926     0.027     2.633     2.537
    74   1 H        0.926     0.032     2.556     2.500
    75   1 H        0.926     0.033     2.548     2.496
    76   1 H        0.926     0.033     2.540     2.492
    77   1 H        0.926     0.033     2.539     2.492
    78   1 H        0.926     0.033     2.550     2.497
    79   1 H        0.926     0.032     2.559     2.502
    80   1 H        0.926     0.027     2.635     2.538
    81   1 H        0.926     0.051     2.312     2.378
    82   1 H        0.926     0.056     2.249     2.345
    83   1 H        0.926     0.050     2.315     2.379
    84   1 H        0.926     0.041     2.438     2.442
    85   1 H        0.926     0.042     2.423     2.434
    86   1 H        0.926     0.041     2.436     2.441
    87   1 H        0.926     0.050     2.316     2.380
    88   1 H        0.926     0.034     2.524     2.484
    89   1 H        0.926     0.040     2.449     2.447

molecular dipole:
                 x           y           z       tot (Debye)
 q only:        0.510       0.199       0.216
   full:        0.364       0.568       0.269       1.846

 projected vibrational frequencies (cm⁻¹)
eigval :       -0.00    -0.00    -0.00     0.00     0.00     0.00
eigval :        8.04    10.36    16.14    24.23    28.51    36.06
eigval :       43.19    45.69    46.40    47.71    55.53    56.69
eigval :       72.81    77.38    84.21    92.93    99.61   117.51
eigval :      120.50   127.15   133.52   142.24   151.21   163.84
eigval :      181.87   207.69   214.90   223.32   227.15   234.03
eigval :      235.84   264.05   270.19   281.88   299.93   302.30
eigval :      318.65   326.52   346.85   366.27   367.79   369.15
eigval :      378.01   381.70   389.66   404.35   407.14   413.75
eigval :      415.98   430.78   437.19   440.78   450.78   458.03
eigval :      466.58   481.63   494.09   503.21   506.53   508.63
eigval :      538.30   546.11   548.79   566.97   582.81   585.32
eigval :      586.62   588.30   592.13   599.62   603.38   608.34
eigval :      612.67   621.25   626.73   631.97   643.79   646.69
eigval :      665.34   672.37   674.48   682.79   686.03   693.85
eigval :      700.78   702.85   710.46   736.52   737.44   747.53
eigval :      756.87   763.62   769.25   770.37   773.64   781.02
eigval :      785.20   817.85   826.54   833.32   837.61   840.68
eigval :      846.14   864.32   874.30   875.06   876.46   877.59
eigval :      878.67   879.37   885.64   895.01   897.55   900.53
eigval :      904.54   908.96   909.54   910.18   911.53   919.00
eigval :      920.78   923.62   923.95   925.40   927.35   927.60
eigval :      931.76   932.38   933.23   933.96   934.54   969.61
eigval :      987.92  1003.80  1007.24  1010.39  1025.48  1054.74
eigval :     1071.83  1074.49  1074.82  1076.63  1077.14  1077.95
eigval :     1081.26  1086.94  1104.26  1110.77  1119.52  1122.41
eigval :     1134.15  1140.72  1141.66  1145.99  1168.58  1169.72
eigval :     1174.76  1175.91  1176.99  1177.25  1177.49  1179.81
eigval :     1184.60  1194.20  1196.39  1198.88  1204.16  1207.31
eigval :     1219.18  1225.37  1238.70  1244.44  1246.77  1251.93
eigval :     1259.92  1262.29  1269.06  1275.11  1277.10  1283.76
eigval :     1295.69  1303.80  1319.65  1320.48  1326.20  1326.40
eigval :     1338.44  1347.16  1358.11  1360.85  1364.57  1369.51
eigval :     1389.46  1395.39  1408.95  1410.26  1425.89  1426.73
eigval :     1428.54  1429.68  1436.51  1440.61  1455.65  1460.85
eigval :     1466.96  1468.08  1469.54  1475.88  1481.18  1491.62
eigval :     1511.51  1528.66  1561.44  1575.07  1580.87  1582.00
eigval :     1583.63  1583.90  1591.20  1592.44  1594.17  1594.95
eigval :     1595.11  1595.19  1599.76  1602.41  1603.15  1611.93
eigval :     3067.32  3067.79  3068.77  3070.45  3071.65  3071.80
eigval :     3071.99  3072.98  3073.73  3076.10  3076.93  3078.47
eigval :     3079.02  3080.19  3081.79  3082.00  3082.65  3084.09
eigval :     3087.02  3087.18  3087.43  3089.40  3090.00  3090.60
eigval :     3092.03  3094.52  3095.99  3097.35  3102.73  3104.28
eigval :     3104.99  3109.75  3139.97

   temp. (K)  partition function   enthalpy   heat capacity  entropy
                                   cal/mol     cal/K/mol   cal/K/mol   J/K/mol
 298.15  VIB  0.500E+20            25138.487    160.355    156.768
         ROT  0.161E+09              888.752      2.981     40.535
         INT  0.805E+28            26027.239    163.336    197.303
         TR   0.184E+29             1481.254      4.968     45.548
         TOT                       27508.4928   168.3039   242.8505  1016.0865

       T/K    H(0)-H(T)+PV         H(T)/Eh          T*S/Eh         G(T)/Eh
   ------------------------------------------------------------------------
    298.15    0.438376E-01    0.723607E+00    0.115386E+00    0.608221E+00
   ------------------------------------------------------------------------

         :::::::::::::::::::::::::::::::::::::::::::::::::::::
         ::                  THERMODYNAMIC                  ::
         :::::::::::::::::::::::::::::::::::::::::::::::::::::
         :: total free energy        -138.609218893879 Eh   ::
         ::.................................................::
         :: total energy             -139.217439665619 Eh   ::
         :: zero point energy           0.679769306068 Eh   ::
         :: G(RRHO) w/o ZPVE           -0.071548534328 Eh   ::
         :: G(RRHO) contrib.            0.608220771740 Eh   ::
         :::::::::::::::::::::::::::::::::::::::::::::::::::::

           -------------------------------------------------
          | TOTAL ENERGY             -139.217439665619 Eh   |
          | TOTAL ENTHALPY           -138.493832785925 Eh   |
          | TOTAL FREE ENERGY        -138.609218893879 Eh   |
          | GRADIENT NORM               0.000042665242 Eh/α |
          | HOMO-LUMO GAP               2.077628291698 eV   |
           -------------------------------------------------

 * finished run on 2025/09/09 at 09:25:07.043
