   * xtb version 6.7.1 (edcfbbe) compiled by 'albert@albert-system' on 2024-07-22

   ID    Z sym.   atoms
    1    6 C      1-11, 13-45, 47-53, 55, 56
    2    7 N      12, 46, 54
    3    1 H      57-89

          program call               : xtb data2507/toluene/SFI34pPM/SFI34pPM_toluene_T1_crest.xyz --gfn 2 --uhf 2 --gbsa toluene --ohess vtight --parallel 40 --molden --ceasefiles --namespace data2507/toluene/SFI34pPM/SFI34pPM_toluene_T1_finalOpt
      * Solvation model:               GBSA
        Solvent                        toluene
        Solvent mass                       9.2140E+01 g/mol
          :  Hamiltonian                  GFN2-xTB          :
 * total energy  :  -139.1371574 Eh     change       -0.2201020E-07 Eh
 * total energy  :  -139.1372338 Eh     change       -0.7639513E-04 Eh
 * total energy  :  -139.1372688 Eh     change       -0.3500345E-04 Eh
 * total energy  :  -139.1372761 Eh     change       -0.7369288E-05 Eh
 * total energy  :  -139.1372817 Eh     change       -0.5561251E-05 Eh
 * total energy  :  -139.1372881 Eh     change       -0.6400425E-05 Eh
 * total energy  :  -139.1372982 Eh     change       -0.1007528E-04 Eh
 * total energy  :  -139.1373111 Eh     change       -0.1296586E-04 Eh
 * total energy  :  -139.1373213 Eh     change       -0.1014700E-04 Eh
 * total energy  :  -139.1373314 Eh     change       -0.1016839E-04 Eh
 * total energy  :  -139.1373703 Eh     change       -0.1973671E-05 Eh
 * total energy  :  -139.1373722 Eh     change       -0.1857627E-05 Eh
 * total energy  :  -139.1373739 Eh     change       -0.1728571E-05 Eh
 * total energy  :  -139.1373757 Eh     change       -0.1763039E-05 Eh
 * total energy  :  -139.1373773 Eh     change       -0.1600254E-05 Eh
 * total energy  :  -139.1373783 Eh     change       -0.1013970E-05 Eh
 * total energy  :  -139.1373789 Eh     change       -0.6221023E-06 Eh
 * total energy  :  -139.1373794 Eh     change       -0.4543199E-06 Eh
 * total energy  :  -139.1373794 Eh     change       -0.8341004E-08 Eh
   *** GEOMETRY OPTIMIZATION CONVERGED AFTER 44 ITERATIONS ***

 final structure:
================
89
 xtb: 6.7.1 (edcfbbe)
C           10.18699404939419        3.76973338402428       -1.43259113766856
C            8.91518408416683        4.23061563876586       -1.12418318233611
C            7.91644423066225        3.34937557672414       -0.76402736880169
C            8.16621983600200        1.97230961424805       -0.70359112908321
C            7.15080583138151        1.00223748217572       -0.33511411987350
C            5.79602949988410        1.27712239602946       -0.30730114568171
C            4.90339775895273        0.25179066655429        0.05718045116737
C            3.48326225191953        0.39227478765287        0.11044165608749
C            2.80164466012941        1.59282023921866       -0.18971170103569
C            1.43367970532194        1.67015575694947       -0.12387675332346
C            0.67137391068507        0.55366512565044        0.23930710294413
N           -0.72561085272635        0.63524666951355        0.29868189672744
C           -1.44679075367655        1.58565822939969        0.99078249721942
C           -0.98229016812451        2.62346220746546        1.78782339042857
C           -1.91892119170844        3.43854302045344        2.39607724194940
C           -3.28288531075070        3.22098468741121        2.22229553623917
C           -3.75044611784840        2.17120093229385        1.45015884861345
C           -2.83205047723909        1.33751103522422        0.83051332248111
C           -2.94014161540243        0.16701617512810       -0.00434065077508
C           -3.97422678451635       -0.58261439216594       -0.53217362256768
C           -3.66910237433619       -1.68788857614070       -1.35253763551590
C           -2.35418798520637       -2.03787093364066       -1.66169998093567
C           -1.30982370567987       -1.30397070377568       -1.14181976517483
C           -1.60361968267724       -0.22662926530466       -0.30684989874780
C           -4.90656393350998       -2.30571647558991       -1.77799227146331
C           -5.14817553612166       -3.40995696423109       -2.58498400930889
C           -6.46012248100012       -3.77835422753024       -2.82774812261653
C           -7.51573724361455       -3.06292674504106       -2.27746817168399
C           -7.28245118755409       -1.95769393430592       -1.46853570895724
C           -5.97844534566951       -1.58780817064350       -1.22561070594739
C           -5.46674451000902       -0.43281075502186       -0.38965642498883
C           -6.00596909596599       -0.51334874563291        1.01951199176162
C           -5.75569567606720       -1.46769159490587        1.98078040566814
C           -6.40134864706353       -1.35697262591090        3.20562366294331
C           -7.28557439493804       -0.31707345419883        3.45167480892005
C           -7.54228967347114        0.64314464744106        2.48563110519430
C           -6.89598594773734        0.54383061206580        1.26417008038300
C           -6.92617871078748        1.40344124944838        0.08900667384908
C           -7.61322630126107        2.57935135057476       -0.16528629930835
C           -7.41176406103113        3.21569632477926       -1.38010900965253
C           -6.54192398286701        2.69042524476767       -2.32413211643559
C           -5.85626577055540        1.50727034147560       -2.08014279765779
C           -6.05255282075233        0.87326325460275       -0.87317882467557
C            1.32797551186024       -0.64648865810268        0.54366135016584
C            2.69285800785907       -0.72267384015592        0.47998872881047
N            5.42808299286012       -0.97338947988944        0.36448170302062
C            6.71819999789229       -1.19428240179608        0.31172459224468
C            7.22523359781250       -2.52872621842814        0.64072825109978
C            6.34340308798753       -3.57128237023651        0.91689775566096
C            6.82634227175824       -4.82756145830222        1.22920185721838
C            8.19312971030336       -5.05711191030234        1.26905133908397
C            9.07668721249629       -4.02450601211677        0.99544956417154
C            8.59718927632592       -2.76676255495223        0.68274431479044
N            7.58573230439921       -0.25237776212384       -0.01859917989455
C            9.45965091700776        1.52308872391016       -1.00888334408692
C           10.45171089350202        2.40906696624288       -1.36961019650180
H           10.96433306854853        4.46452833048727       -1.71427776945890
H            8.70333510517080        5.29007170745576       -1.16155378572716
H            6.94141421036397        3.73731863401381       -0.50974384149097
H            5.42687257215871        2.25048106876837       -0.58181796075352
H            3.35458979931575        2.46992721328699       -0.48731848433672
H            0.93017764434295        2.59045082045326       -0.38279861228729
H            0.07504625981101        2.78057603774362        1.93564460393166
H           -1.58550715574766        4.25489180976898        3.01929327271006
H           -3.98954335457080        3.87734265076871        2.70769476849142
H           -4.80796946370817        2.00629978882408        1.33802501388397
H           -2.15766492594856       -2.87676665817192       -2.31097718165889
H           -0.28611502855824       -1.54576524429560       -1.38192363166943
H           -4.33083861674150       -3.96930983759439       -3.01470783326473
H           -6.66775912527854       -4.63414737300625       -3.45359136112365
H           -8.53134962909850       -3.36936301384399       -2.48055336450563
H           -8.10487013533231       -1.40267563486201       -1.04108191669605
H           -5.07109382058254       -2.28121332199912        1.78867069005883
H           -6.21421193621529       -2.09165674924409        3.97522386320358
H           -7.77896543985518       -0.25394075857938        4.41083160401063
H           -8.22976387792497        1.45217663144512        2.68355093494077
H           -8.28974230410535        2.99419976879449        0.56712618812000
H           -7.93834208887458        4.13445046043051       -1.59469750696626
H           -6.39750209245576        3.20615093677661       -3.26228116615904
H           -5.18380490387851        1.09604201066168       -2.81916163636454
H            0.74717276772161       -1.50200402363848        0.85674695575961
H            3.20385282072161       -1.64053695769388        0.72618897435623
H            5.28223639526724       -3.37709827348297        0.88070421838479
H            6.13726017215741       -5.63189940685343        1.44209668872498
H            8.56934723972928       -6.03967458850821        1.51357346382293
H           10.14187955984270       -4.20183125843588        1.02708010773271
H            9.27139008671628       -1.95028816481437        0.47201812241951
H            9.65755505244892        0.46269142259560       -0.96353807119419
H           11.44004833756452        2.04002426048874       -1.60498450134944

          :  Hamiltonian                  GFN2-xTB          :
         :: gradient norm              0.000060059461 Eh/a0 ::
         :: HOMO-LUMO gap              0.370753960557 eV    ::
         :: SCC energy              -141.770353109777 Eh    ::
         :: -> dispersion             -0.131381510084 Eh    ::
         :: -> Gsolv                  -0.059864188767 Eh    ::
         :: repulsion energy           2.632973733893 Eh    ::

    * Orbital Energies and Occupations

         #    Occupation            Energy/Eh            Energy/eV
      -------------------------------------------------------------
         1        2.0000           -0.6887774             -18.7426
       ...           ...                  ...                  ...
       119        2.0000           -0.4050411             -11.0217
       120        2.0000           -0.4029256             -10.9642
       121        2.0000           -0.4017163             -10.9313
       122        2.0000           -0.4007341             -10.9045
       123        2.0000           -0.3984779             -10.8431
       124        2.0000           -0.3972062             -10.8085
       125        2.0000           -0.3944746             -10.7342
       126        2.0000           -0.3889754             -10.5846
       127        2.0000           -0.3866757             -10.5220
       128        2.0000           -0.3835553             -10.4371
       129        1.6919           -0.3659957              -9.9593
       130        1.3081           -0.3644590              -9.9174
       131        0.9992           -0.2808268              -7.6417 (HOMO)
       132        0.0008           -0.2672019              -7.2709 (LUMO)
       133                         -0.2567678              -6.9870
       134                         -0.2557045              -6.9581
       135                         -0.2554940              -6.9523
       136                         -0.2388831              -6.5003
       137                         -0.2304657              -6.2713
       138                         -0.2286885              -6.2229
       139                         -0.2258773              -6.1464
       140                         -0.2229551              -6.0669
       141                         -0.2221041              -6.0438
       142                         -0.2203091              -5.9949
       ...                                ...                  ...
       257                          0.7499836              20.4081
      -------------------------------------------------------------
                  HL-Gap            0.0136248 Eh            0.3708 eV

     #   Z          covCN         q      C6AA      α(0)
     1   6 C        2.919    -0.038    28.933     8.821
     2   6 C        2.917    -0.032    28.808     8.801
     3   6 C        2.921    -0.041    29.014     8.833
     4   6 C        2.975    -0.003    28.084     8.693
     5   6 C        2.935     0.082    26.174     8.390
     6   6 C        2.912    -0.058    29.447     8.898
     7   6 C        2.935     0.070    26.444     8.434
     8   6 C        2.972    -0.007    28.200     8.711
     9   6 C        2.919    -0.045    29.114     8.848
    10   6 C        2.915    -0.042    29.056     8.839
    11   6 C        2.913     0.039    27.137     8.542
    12   7 N        2.799    -0.008    21.419     6.874
    13   6 C        3.079     0.047    26.870     8.498
    14   6 C        2.910    -0.042    29.054     8.839
    15   6 C        2.922    -0.031    28.776     8.797
    16   6 C        2.920    -0.034    28.843     8.807
    17   6 C        2.913    -0.031    28.773     8.796
    18   6 C        3.059    -0.011    28.241     8.715
    19   6 C        3.054    -0.017    28.385     8.738
    20   6 C        3.039     0.008    27.810     8.650
    21   6 C        3.037    -0.001    28.005     8.680
    22   6 C        2.916    -0.036    28.902     8.816
    23   6 C        2.911    -0.044    29.101     8.846
    24   6 C        3.077     0.046    26.882     8.501
    25   6 C        3.034     0.004    27.894     8.663
    26   6 C        2.914    -0.033    28.814     8.802
    27   6 C        2.920    -0.031    28.776     8.797
    28   6 C        2.923    -0.029    28.723     8.789
    29   6 C        2.913    -0.032    28.803     8.800
    30   6 C        3.060     0.009    27.761     8.640
    31   6 C        3.978     0.013    20.288     6.399
    32   6 C        3.054     0.007    27.807     8.648
    33   6 C        2.913    -0.033    28.823     8.804
    34   6 C        2.923    -0.031    28.779     8.797
    35   6 C        2.921    -0.032    28.799     8.800
    36   6 C        2.914    -0.034    28.846     8.807
    37   6 C        3.035     0.002    27.958     8.673
    38   6 C        3.035     0.002    27.957     8.673
    39   6 C        2.914    -0.034    28.848     8.807
    40   6 C        2.921    -0.032    28.799     8.800
    41   6 C        2.923    -0.031    28.780     8.798
    42   6 C        2.913    -0.033    28.823     8.804
    43   6 C        3.054     0.007    27.805     8.648
    44   6 C        2.915    -0.043    29.059     8.840
    45   6 C        2.924    -0.038    28.939     8.822
    46   7 N        1.853    -0.258    27.553     7.780
    47   6 C        2.886     0.191    23.926     8.019
    48   6 C        2.983    -0.002    28.081     8.692
    49   6 C        2.924    -0.028    28.696     8.785
    50   6 C        2.918    -0.029    28.720     8.788
    51   6 C        2.920    -0.027    28.668     8.780
    52   6 C        2.918    -0.029    28.714     8.787
    53   6 C        2.924    -0.028    28.690     8.784
    54   7 N        1.852    -0.273    27.926     7.832
    55   6 C        2.926    -0.033    28.827     8.805
    56   6 C        2.916    -0.032    28.800     8.800
    57   1 H        0.926     0.029     2.601     2.522
    58   1 H        0.926     0.029     2.605     2.524
    59   1 H        0.926     0.024     2.668     2.554
    60   1 H        0.926     0.030     2.588     2.516
    61   1 H        0.926     0.028     2.614     2.529
    62   1 H        0.926     0.037     2.496     2.470
    63   1 H        0.926     0.041     2.438     2.442
    64   1 H        0.926     0.040     2.450     2.448
    65   1 H        0.926     0.039     2.464     2.455
    66   1 H        0.926     0.043     2.414     2.430
    67   1 H        0.926     0.045     2.387     2.416
    68   1 H        0.926     0.045     2.389     2.417
    69   1 H        0.926     0.039     2.461     2.453
    70   1 H        0.926     0.038     2.481     2.463
    71   1 H        0.926     0.037     2.483     2.464
    72   1 H        0.926     0.032     2.560     2.502
    73   1 H        0.926     0.029     2.605     2.524
    74   1 H        0.926     0.034     2.532     2.488
    75   1 H        0.926     0.034     2.525     2.485
    76   1 H        0.926     0.036     2.505     2.475
    77   1 H        0.926     0.036     2.505     2.475
    78   1 H        0.926     0.034     2.525     2.485
    79   1 H        0.926     0.034     2.535     2.490
    80   1 H        0.926     0.028     2.609     2.526
    81   1 H        0.926     0.038     2.469     2.457
    82   1 H        0.926     0.042     2.426     2.436
    83   1 H        0.926     0.045     2.381     2.413
    84   1 H        0.926     0.042     2.425     2.435
    85   1 H        0.926     0.042     2.417     2.431
    86   1 H        0.926     0.041     2.436     2.441
    87   1 H        0.926     0.045     2.378     2.411
    88   1 H        0.926     0.036     2.502     2.474
    89   1 H        0.926     0.030     2.587     2.515

molecular dipole:
                 x           y           z       tot (Debye)
 q only:       -3.360      -0.526       0.106
   full:       -3.356      -0.227       0.002       8.549

 projected vibrational frequencies (cm⁻¹)
eigval :       -0.00    -0.00    -0.00     0.00     0.00     0.00
eigval :        8.73    11.38    13.95    20.82    27.07    30.45
eigval :       41.72    44.69    48.67    51.21    57.37    58.10
eigval :       73.22    79.10    82.05    91.72    99.52   115.43
eigval :      118.68   124.53   133.72   144.22   159.71   162.52
eigval :      164.58   201.92   208.15   217.98   226.53   230.13
eigval :      235.58   263.22   266.62   281.36   296.72   301.87
eigval :      313.89   322.94   346.84   365.94   368.91   369.45
eigval :      383.12   387.07   390.04   401.05   402.15   406.76
eigval :      413.68   414.72   428.31   438.30   440.76   453.09
eigval :      461.48   471.28   477.42   502.86   504.10   508.37
eigval :      538.04   539.79   543.88   549.50   562.90   582.00
eigval :      582.26   583.45   587.09   588.34   590.51   592.04
eigval :      597.77   598.95   608.11   631.83   636.90   639.72
eigval :      644.20   656.18   663.93   667.21   673.98   681.87
eigval :      684.26   692.55   701.70   712.14   737.38   744.68
eigval :      749.53   755.59   766.60   769.59   770.75   771.20
eigval :      786.80   794.12   808.13   817.47   818.48   831.75
eigval :      835.57   840.02   857.34   866.06   873.73   875.28
eigval :      878.44   881.30   882.98   885.24   893.93   897.13
eigval :      899.13   906.42   907.78   909.59   911.45   913.64
eigval :      916.39   918.12   921.18   922.46   924.26   924.68
eigval :      926.41   926.92   929.46   929.85   933.13   937.84
eigval :      978.35   983.14   989.95  1005.76  1006.60  1048.88
eigval :     1052.62  1072.46  1072.60  1072.79  1074.13  1074.73
eigval :     1078.17  1079.06  1080.31  1094.51  1110.50  1116.92
eigval :     1121.81  1130.84  1136.65  1141.83  1143.85  1165.59
eigval :     1166.28  1173.00  1174.91  1176.00  1177.26  1178.80
eigval :     1179.91  1184.02  1195.14  1198.76  1199.84  1206.42
eigval :     1206.89  1223.66  1230.17  1242.32  1249.77  1251.51
eigval :     1260.02  1267.21  1270.33  1273.34  1280.21  1283.94
eigval :     1287.42  1291.43  1293.76  1325.38  1325.58  1326.14
eigval :     1328.00  1337.49  1338.65  1350.09  1353.78  1364.10
eigval :     1374.37  1385.06  1389.12  1398.16  1415.98  1425.75
eigval :     1426.34  1428.07  1428.82  1431.54  1435.15  1447.56
eigval :     1452.31  1459.99  1461.44  1464.92  1468.35  1470.28
eigval :     1472.94  1474.97  1486.99  1552.76  1553.07  1561.21
eigval :     1563.74  1576.99  1581.95  1582.33  1582.90  1587.24
eigval :     1589.14  1593.32  1594.36  1599.53  1600.94  1602.41
eigval :     3064.46  3066.02  3070.59  3071.14  3072.73  3073.83
eigval :     3074.41  3075.35  3075.39  3076.90  3077.19  3077.44
eigval :     3079.77  3081.23  3081.68  3082.78  3085.07  3085.55
eigval :     3085.83  3089.37  3089.48  3091.19  3091.44  3092.13
eigval :     3092.77  3093.06  3093.16  3095.86  3097.20  3098.49
eigval :     3101.79  3111.45  3141.24

   temp. (K)  partition function   enthalpy   heat capacity  entropy
                                   cal/mol     cal/K/mol   cal/K/mol   J/K/mol
 298.15  VIB  0.850E+20            25413.413    162.131    158.391
         ROT  0.161E+09              888.752      2.981     40.528
         INT  0.136E+29            26302.165    165.112    198.919
         TR   0.184E+29             1481.254      4.968     45.548
         TOT                       27783.4191   170.0798   244.4665  1022.8479

       T/K    H(0)-H(T)+PV         H(T)/Eh          T*S/Eh         G(T)/Eh
   ------------------------------------------------------------------------
    298.15    0.442757E-01    0.720218E+00    0.116154E+00    0.604064E+00
   ------------------------------------------------------------------------

         :::::::::::::::::::::::::::::::::::::::::::::::::::::
         ::                  THERMODYNAMIC                  ::
         :::::::::::::::::::::::::::::::::::::::::::::::::::::
         :: total free energy        -138.533315600262 Eh   ::
         ::.................................................::
         :: total energy             -139.137379379561 Eh   ::
         :: zero point energy           0.675942008630 Eh   ::
         :: G(RRHO) w/o ZPVE           -0.071878229331 Eh   ::
         :: G(RRHO) contrib.            0.604063779299 Eh   ::
         :::::::::::::::::::::::::::::::::::::::::::::::::::::

           -------------------------------------------------
          | TOTAL ENERGY             -139.137379379561 Eh   |
          | TOTAL ENTHALPY           -138.417161674396 Eh   |
          | TOTAL FREE ENERGY        -138.533315600262 Eh   |
          | GRADIENT NORM               0.000057998384 Eh/α |
          | HOMO-LUMO GAP               0.370750393381 eV   |
           -------------------------------------------------

 * finished run on 2025/09/09 at 09:38:42.560
