   * xtb version 6.7.1 (edcfbbe) compiled by 'albert@albert-system' on 2024-07-22

   ID    Z sym.   atoms
    1    6 C      1-6, 8-13, 15-18, 20-33, 35, 36
    2    8 O      7
    3    7 N      14, 19, 34
    4    1 H      37-55

          program call               : xtb data2507/toluene/PXZ-11-DPPZ/PXZ-11-DPPZ_toluene_S0_finalOpt.xtbopt.xyz --gfn 2 --uhf 2 --gbsa toluene --ohess vtight --parallel 40 --molden --ceasefiles --namespace data2507/toluene/PXZ-11-DPPZ/PXZ-11-DPPZ_toluene_T1_preOpt
      * Solvation model:               GBSA
        Solvent                        toluene
        Solvent mass                       9.2140E+01 g/mol
          :  Hamiltonian                  GFN2-xTB          :
 * total energy  :   -91.0871029 Eh     change       -0.9524399E-09 Eh
 * total energy  :   -91.0899345 Eh     change       -0.2831537E-02 Eh
 * total energy  :   -91.0908118 Eh     change       -0.8773294E-03 Eh
 * total energy  :   -91.0909175 Eh     change       -0.1056866E-03 Eh
 * total energy  :   -91.0909764 Eh     change       -0.5888256E-04 Eh
 * total energy  :   -91.0909935 Eh     change       -0.1712894E-04 Eh
 * total energy  :   -91.0910081 Eh     change       -0.1459044E-04 Eh
 * total energy  :   -91.0910367 Eh     change       -0.2863170E-04 Eh
 * total energy  :   -91.0910479 Eh     change       -0.1119041E-04 Eh
 * total energy  :   -91.0910677 Eh     change       -0.1976263E-04 Eh
 * total energy  :   -91.0911615 Eh     change       -0.5199233E-06 Eh
 * total energy  :   -91.0911619 Eh     change       -0.3486536E-06 Eh
 * total energy  :   -91.0911621 Eh     change       -0.2869229E-06 Eh
 * total energy  :   -91.0911624 Eh     change       -0.2819185E-06 Eh
 * total energy  :   -91.0911627 Eh     change       -0.2823328E-06 Eh
 * total energy  :   -91.0911629 Eh     change       -0.2368208E-06 Eh
 * total energy  :   -91.0911631 Eh     change       -0.1874376E-06 Eh
 * total energy  :   -91.0911633 Eh     change       -0.1314718E-06 Eh
 * total energy  :   -91.0911633 Eh     change       -0.6746778E-07 Eh
   *** GEOMETRY OPTIMIZATION CONVERGED AFTER 36 ITERATIONS ***

 final structure:
================
55
 xtb: 6.7.1 (edcfbbe)
C           -5.85571004763190        2.51270388687613        2.19135670397374
C           -4.51830407647511        2.84968715248676        2.06833225054915
C           -3.66641821092371        2.07404610873384        1.30198122918548
C           -4.13972343329547        0.94598649249091        0.63551264814083
C           -5.49297459944290        0.59839494624266        0.78906058532786
C           -6.33987462427796        1.38076060637360        1.55600894471500
O           -6.02843642255248       -0.51921308675156        0.20712995978743
C           -5.19954371591831       -1.30437577434285       -0.54850439331939
C           -5.75291389832494       -2.43345478728008       -1.12854484464687
C           -4.97497896072040       -3.25888795224672       -1.92407492598596
C           -3.64556198478331       -2.94260139700592       -2.14675567037687
C           -3.08496713380713       -1.81692576757771       -1.56926705983481
C           -3.84469128785943       -0.98698879761853       -0.74790880342342
N           -3.31649498052746        0.14817325933337       -0.14761653826038
C           -1.95487491479475        0.49874638197945       -0.34464171766039
C           -1.63359892966753        1.63670591663121       -1.07673648813438
C           -0.30946611680214        1.98733834407509       -1.26884818625436
C            0.72501987002199        1.20769945254440       -0.74775767651208
N            2.00817480653168        1.52065250985454       -0.92045680602808
C            2.98248926529683        0.76434656635701       -0.42041061833765
C            4.35503768940662        1.10904729436056       -0.62420974076532
C            4.66830941617201        2.26807000663261       -1.35458241645590
C            5.97168307407374        2.63257774007251       -1.57129698357079
C            7.00191730853514        1.84199706299561       -1.05966251463855
C            6.71478658594324        0.70460573392965       -0.34338739407735
C            5.39267653529759        0.30156792001310       -0.10052327089460
C            5.05753316284813       -0.88647957554203        0.65023049902844
C            6.02533135609577       -1.74069522669670        1.20100317457265
C            5.67513893231522       -2.86464887935268        1.91037170308367
C            4.33104856604097       -3.18528392357211        2.10642195385257
C            3.35898034008041       -2.37268124757216        1.58333424467665
C            3.69771068918808       -1.22158825379616        0.85208516263439
C            2.65219092727960       -0.40399478289023        0.31851978248689
N            1.37559924349394       -0.73098375729607        0.49822596252621
C            0.38910747420604        0.01943285517990        0.00349030150090
C           -0.95205376430921       -0.30145182544778        0.19549577339701
H           -6.52089539609283        3.11928795335966        2.78496324924562
H           -4.12873990033246        3.72099161533406        2.57138205077405
H           -2.62394575142608        2.33684253457161        1.21806401023949
H           -7.37238496346953        1.08218014361119        1.64367146609034
H           -6.79486458947158       -2.64332797107788       -0.94643103903510
H           -5.41087705766986       -4.13809070990013       -2.37099886410450
H           -3.03512027912646       -3.57151560809836       -2.77591190651771
H           -2.05110313864822       -1.57282072547506       -1.75406174913388
H           -2.42146702154175        2.24387129423734       -1.49601146583520
H           -0.04888841605709        2.86799683228166       -1.83448957451944
H            3.84913252910823        2.85794692997020       -1.73750945480114
H            6.20251642423254        3.52543301904494       -2.13344200345066
H            8.03054202012798        2.12548006922655       -1.22836541853557
H            7.53416799212433        0.11627819810277        0.03765479509720
H            7.07274341766203       -1.52092725473300        1.06955363725040
H            6.44456177913185       -3.50257984010344        2.32022139569838
H            4.06126947397491       -4.06878806713036        2.66597875366455
H            2.31053499571464       -2.59258625176056        1.71757893463419
H           -1.19894976501741       -1.17791456018109        0.77428896969745

          :  Hamiltonian                  GFN2-xTB          :
         :: gradient norm              0.000055943372 Eh/a0 ::
         :: HOMO-LUMO gap              1.045668485349 eV    ::
         :: SCC energy               -92.709946621382 Eh    ::
         :: -> dispersion             -0.076249441000 Eh    ::
         :: -> Gsolv                  -0.038955575268 Eh    ::
         :: repulsion energy           1.618783290047 Eh    ::

    * Orbital Energies and Occupations

         #    Occupation            Energy/Eh            Energy/eV
      -------------------------------------------------------------
         1        2.0000           -0.7468223             -20.3221
       ...           ...                  ...                  ...
        73        2.0000           -0.4259119             -11.5897
        74        2.0000           -0.4251765             -11.5696
        75        2.0000           -0.4218207             -11.4783
        76        2.0000           -0.4203321             -11.4378
        77        2.0000           -0.4154849             -11.3059
        78        2.0000           -0.4116178             -11.2007
        79        2.0000           -0.4035440             -10.9810
        80        2.0000           -0.3962015             -10.7812
        81        2.0000           -0.3893780             -10.5955
        82        2.0000           -0.3834809             -10.4350
        83        1.7377           -0.3556551              -9.6779
        84        1.2623           -0.3536905              -9.6244
        85        1.0000           -0.3024381              -8.2298 (HOMO)
        86                         -0.2640106              -7.1841 (LUMO)
        87                         -0.2524791              -6.8703
        88                         -0.2490058              -6.7758
        89                         -0.2414137              -6.5692
        90                         -0.2288526              -6.2274
        91                         -0.2208050              -6.0084
        92                         -0.2172844              -5.9126
        93                         -0.2070420              -5.6339
        94                         -0.1971204              -5.3639
        95                         -0.1907331              -5.1901
        96                         -0.1492677              -4.0618
       ...                                ...                  ...
       163                          0.7110095              19.3476
      -------------------------------------------------------------
                  HL-Gap            0.0384275 Eh            1.0457 eV

     #   Z          covCN         q      C6AA      α(0)
     1   6 C        2.919    -0.033    28.828     8.805
     2   6 C        2.918    -0.033    28.811     8.802
     3   6 C        2.922    -0.053    29.322     8.880
     4   6 C        2.924     0.046    26.969     8.516
     5   6 C        2.884     0.128    25.203     8.230
     6   6 C        2.917    -0.054    29.331     8.881
     7   8 O        1.709    -0.241    18.000     5.728
     8   6 C        2.884     0.128    25.203     8.230
     9   6 C        2.917    -0.054    29.333     8.881
    10   6 C        2.919    -0.033    28.826     8.804
    11   6 C        2.918    -0.032    28.809     8.802
    12   6 C        2.922    -0.053    29.317     8.879
    13   6 C        2.924     0.046    26.965     8.516
    14   7 N        2.752    -0.041    22.031     6.971
    15   6 C        2.918     0.048    26.933     8.510
    16   6 C        2.916    -0.050    29.239     8.867
    17   6 C        2.918    -0.063    29.571     8.917
    18   6 C        2.940     0.085    26.097     8.378
    19   7 N        1.849    -0.248    27.327     7.748
    20   6 C        2.942     0.080    26.226     8.399
    21   6 C        2.987    -0.009    28.242     8.717
    22   6 C        2.923    -0.031    28.766     8.795
    23   6 C        2.916    -0.033    28.818     8.803
    24   6 C        2.917    -0.033    28.813     8.802
    25   6 C        2.920    -0.035    28.879     8.813
    26   6 C        2.976    -0.002    28.074     8.691
    27   6 C        2.976    -0.002    28.071     8.691
    28   6 C        2.920    -0.035    28.879     8.812
    29   6 C        2.917    -0.033    28.811     8.802
    30   6 C        2.916    -0.033    28.819     8.803
    31   6 C        2.923    -0.031    28.765     8.795
    32   6 C        2.987    -0.009    28.243     8.718
    33   6 C        2.942     0.080    26.208     8.396
    34   7 N        1.849    -0.251    27.388     7.756
    35   6 C        2.941     0.087    26.062     8.373
    36   6 C        2.920    -0.073    29.833     8.957
    37   1 H        0.926     0.054     2.266     2.354
    38   1 H        0.926     0.052     2.296     2.370
    39   1 H        0.926     0.048     2.349     2.397
    40   1 H        0.926     0.060     2.197     2.318
    41   1 H        0.926     0.060     2.195     2.317
    42   1 H        0.926     0.054     2.265     2.354
    43   1 H        0.926     0.051     2.302     2.373
    44   1 H        0.926     0.047     2.357     2.401
    45   1 H        0.926     0.043     2.410     2.428
    46   1 H        0.926     0.048     2.347     2.396
    47   1 H        0.926     0.043     2.409     2.427
    48   1 H        0.926     0.036     2.501     2.473
    49   1 H        0.926     0.036     2.508     2.476
    50   1 H        0.926     0.038     2.471     2.458
    51   1 H        0.926     0.038     2.471     2.458
    52   1 H        0.926     0.036     2.507     2.476
    53   1 H        0.926     0.036     2.499     2.472
    54   1 H        0.926     0.043     2.406     2.425
    55   1 H        0.926     0.047     2.360     2.402

molecular dipole:
                 x           y           z       tot (Debye)
 q only:       -1.544      -0.132       0.059
   full:       -1.503      -0.096       0.038       3.830

 projected vibrational frequencies (cm⁻¹)
eigval :       -0.00    -0.00    -0.00    -0.00     0.00     0.00
eigval :       14.66    19.22    26.14    53.14    54.42    59.98
eigval :       78.29    99.25   107.16   112.72   134.73   148.55
eigval :      188.55   193.32   228.09   242.60   248.48   259.02
eigval :      269.30   282.98   304.14   341.95   369.66   372.99
eigval :      387.91   394.52   401.88   403.01   414.56   429.00
eigval :      431.72   440.07   445.08   458.43   501.70   509.73
eigval :      515.79   523.74   524.16   544.20   553.94   574.22
eigval :      577.03   584.31   585.94   612.39   620.38   629.87
eigval :      661.56   666.36   668.87   670.05   686.15   691.66
eigval :      695.84   723.64   756.96   762.53   776.87   777.07
eigval :      778.52   787.05   794.64   803.77   831.48   850.22
eigval :      854.68   861.52   866.34   866.91   872.06   875.51
eigval :      900.94   902.18   905.08   910.90   913.71   916.94
eigval :      917.54   919.33   920.94   921.61   989.53  1009.07
eigval :     1058.46  1080.43  1083.89  1086.45  1096.85  1111.03
eigval :     1113.53  1130.46  1143.29  1148.93  1163.11  1171.65
eigval :     1177.35  1178.16  1179.04  1197.39  1204.10  1219.56
eigval :     1222.26  1237.41  1246.64  1253.81  1256.42  1260.00
eigval :     1278.96  1280.80  1293.69  1308.74  1312.03  1315.98
eigval :     1323.09  1336.36  1345.54  1351.37  1366.91  1388.23
eigval :     1407.55  1412.99  1418.38  1426.35  1439.57  1447.64
eigval :     1462.40  1465.20  1470.16  1491.01  1512.69  1528.01
eigval :     1532.46  1549.27  1557.53  1565.04  1574.83  1580.85
eigval :     1587.43  1591.11  3072.24  3072.89  3080.86  3081.74
eigval :     3087.29  3093.34  3093.43  3093.47  3094.87  3095.29
eigval :     3097.94  3099.85  3101.77  3101.89  3106.66  3108.62
eigval :     3110.61  3113.38  3114.19

   temp. (K)  partition function   enthalpy   heat capacity  entropy
                                   cal/mol     cal/K/mol   cal/K/mol   J/K/mol
 298.15  VIB  0.295E+11            14949.533    100.701     90.038
         ROT  0.360E+08              888.752      2.981     37.560
         INT  0.106E+19            15838.286    103.682    127.598
         TR   0.959E+28             1481.254      4.968     44.257
         TOT                       17319.5397   108.6500   171.8543   719.0383

       T/K    H(0)-H(T)+PV         H(T)/Eh          T*S/Eh         G(T)/Eh
   ------------------------------------------------------------------------
    298.15    0.276004E-01    0.434809E+00    0.816535E-01    0.353155E+00
   ------------------------------------------------------------------------

         :::::::::::::::::::::::::::::::::::::::::::::::::::::
         ::                  THERMODYNAMIC                  ::
         :::::::::::::::::::::::::::::::::::::::::::::::::::::
         :: total free energy         -90.738008243811 Eh   ::
         ::.................................................::
         :: total energy              -91.091163330711 Eh   ::
         :: zero point energy           0.407208152832 Eh   ::
         :: G(RRHO) w/o ZPVE           -0.054053065932 Eh   ::
         :: G(RRHO) contrib.            0.353155086900 Eh   ::
         :::::::::::::::::::::::::::::::::::::::::::::::::::::

           -------------------------------------------------
          | TOTAL ENERGY              -91.091163330711 Eh   |
          | TOTAL ENTHALPY            -90.656354734543 Eh   |
          | TOTAL FREE ENERGY         -90.738008243811 Eh   |
          | GRADIENT NORM               0.000060845677 Eh/α |
          | HOMO-LUMO GAP               1.045666237414 eV   |
           -------------------------------------------------

 * finished run on 2025/09/05 at 11:40:40.922
