   * xtb version 6.7.1 (edcfbbe) compiled by 'albert@albert-system' on 2024-07-22

   ID    Z sym.   atoms
    1    6 C      1-6, 8-13, 15-18, 20-33, 35, 36
    2    8 O      7
    3    7 N      14, 19, 34
    4    1 H      37-55

          program call               : xtb data2507/toluene/PXZ-11-DPPZ/PXZ-11-DPPZ.xyz --gfn 2 --gbsa toluene --ohess vtight --parallel 40 --molden --ceasefiles --namespace data2507/toluene/PXZ-11-DPPZ/PXZ-11-DPPZ_toluene_S0_preOpt
      * Solvation model:               GBSA
        Solvent                        toluene
        Solvent mass                       9.2140E+01 g/mol
          :  Hamiltonian                  GFN2-xTB          :
 * total energy  :   -91.1199343 Eh     change       -0.2310315E-08 Eh
 * total energy  :   -91.1332690 Eh     change       -0.1333467E-01 Eh
 * total energy  :   -91.1368936 Eh     change       -0.3624602E-02 Eh
 * total energy  :   -91.1375122 Eh     change       -0.6185810E-03 Eh
 * total energy  :   -91.1378632 Eh     change       -0.3510768E-03 Eh
 * total energy  :   -91.1379305 Eh     change       -0.6723036E-04 Eh
 * total energy  :   -91.1379592 Eh     change       -0.2874012E-04 Eh
 * total energy  :   -91.1379740 Eh     change       -0.1476336E-04 Eh
 * total energy  :   -91.1379880 Eh     change       -0.1404030E-04 Eh
 * total energy  :   -91.1380245 Eh     change       -0.3643744E-04 Eh
 * total energy  :   -91.1390389 Eh     change       -0.1064818E-05 Eh
 * total energy  :   -91.1390401 Eh     change       -0.1208784E-05 Eh
 * total energy  :   -91.1390415 Eh     change       -0.1398018E-05 Eh
 * total energy  :   -91.1390431 Eh     change       -0.1539055E-05 Eh
 * total energy  :   -91.1390447 Eh     change       -0.1576361E-05 Eh
 * total energy  :   -91.1390462 Eh     change       -0.1545258E-05 Eh
 * total energy  :   -91.1390477 Eh     change       -0.1479900E-05 Eh
 * total energy  :   -91.1390491 Eh     change       -0.1392496E-05 Eh
 * total energy  :   -91.1390491 Eh     change       -0.6610861E-08 Eh
   *** GEOMETRY OPTIMIZATION CONVERGED AFTER 68 ITERATIONS ***

 final structure:
================
55
 xtb: 6.7.1 (edcfbbe)
C           -5.94184294616254        2.43170045160881        2.42081010194725
C           -4.58558306349486        2.68980980386832        2.41976086416569
C           -3.73256089965522        1.95448142084891        1.61063301640130
C           -4.22556654745093        0.95775205398684        0.77675237151951
C           -5.59845337926966        0.68104047989284        0.81173853102326
C           -6.44544804592926        1.41646223283051        1.62033941585155
O           -6.16400162961241       -0.32747516321719        0.06826278377151
C           -5.32071684624752       -1.09836230145591       -0.69766662459112
C           -5.90130207707002       -2.12838566003557       -1.41504279685104
C           -5.12711636395857       -2.93236197622876       -2.23851434077775
C           -3.77268571110296       -2.68820761987325       -2.34549442523415
C           -3.18573152238732       -1.65845476707167       -1.62562938310924
C           -3.94194639128575       -0.85830350993460       -0.77786142508990
N           -3.38949373747210        0.19892396743275       -0.04684049910350
C           -2.02784592233006        0.54210307238221       -0.17443066133467
C           -1.69377318763439        1.80912688392924       -0.71293614546834
C           -0.39250835652106        2.17508604581405       -0.88563228713650
C            0.64599746288919        1.28866054020057       -0.52114110442285
N            1.92463294152871        1.64116587370548       -0.70775754147145
C            2.86550057425672        0.78522330963353       -0.34735262371494
C            4.25172846924911        1.13388329974810       -0.56322460297541
C            4.56592889482065        2.35570997868519       -1.16699635401184
C            5.87466621570541        2.71026445493140       -1.39833314445215
C            6.89301327435348        1.83961972944808       -1.02570072432820
C            6.59754094943461        0.63368839069473       -0.42729487627038
C            5.27575481119250        0.24530509767223       -0.17693191502766
C            4.93784628809234       -1.02320579237356        0.45540573162157
C            5.91146262025827       -1.93389205206660        0.88387511558049
C            5.56838432094704       -3.12872437111638        1.47912321840061
C            4.23229653265349       -3.46347315354776        1.67008533165535
C            3.25290360254968       -2.58914756435801        1.25946245899067
C            3.58698877198004       -1.37247044028248        0.65617344072978
C            2.53272806636134       -0.47337216565023        0.24162467957240
N            1.27480820701873       -0.83761620421746        0.41432764958939
C            0.31230222018659        0.01812215925964        0.03540512397217
C           -1.04114741012055       -0.33555862010059        0.20035015904846
H           -6.61056944625386        3.00236450444771        3.04562640855622
H           -4.17581915156914        3.46200973885348        3.05253175991415
H           -2.67240194872117        2.15372814580496        1.63133412616151
H           -7.49689483532900        1.17569211640051        1.61148990319282
H           -6.96530975769423       -2.27837932451044       -1.32029401337566
H           -5.58867857356567       -3.73378567187683       -2.79339418601865
H           -3.15736178218922       -3.29376969985305       -2.99307885355114
H           -2.12884201613524       -1.47199595866632       -1.73202253163667
H           -2.49506653935368        2.47390458883232       -1.00035065322874
H           -0.12355296637577        3.13056575984458       -1.30853128181156
H            3.75008112561534        3.00431615908686       -1.44569134078366
H            6.10999397301828        3.65425680786813       -1.86651377407388
H            7.92366716819465        2.10798274767486       -1.20577966429757
H            7.41358758126538       -0.01496911567299       -0.15348657253238
H            6.95747838618104       -1.70862879330410        0.75470996895688
H            6.34490504860829       -3.80780641504508        1.79950679027126
H            3.96711405709345       -4.40008655118766        2.13708468722020
H            2.20626251115861       -2.81475447714987        1.39245535571288
H           -1.27535501972477       -1.29976044659471        0.62506035284945

          :  Hamiltonian                  GFN2-xTB          :
         :: gradient norm              0.000070496969 Eh/a0 ::
         :: HOMO-LUMO gap              1.076638535436 eV    ::
         :: SCC energy               -92.756197275022 Eh    ::
         :: -> dispersion             -0.076305574624 Eh    ::
         :: -> Gsolv                  -0.038378697002 Eh    ::
         :: repulsion energy           1.617148189671 Eh    ::

    * Orbital Energies and Occupations

         #    Occupation            Energy/Eh            Energy/eV
      -------------------------------------------------------------
         1        2.0000           -0.7325588             -19.9339
       ...           ...                  ...                  ...
        72        2.0000           -0.4288888             -11.6707
        73        2.0000           -0.4270368             -11.6203
        74        2.0000           -0.4235771             -11.5261
        75        2.0000           -0.4224655             -11.4959
        76        2.0000           -0.4187066             -11.3936
        77        2.0000           -0.4161488             -11.3240
        78        2.0000           -0.4156373             -11.3101
        79        2.0000           -0.4066036             -11.0642
        80        2.0000           -0.3977506             -10.8233
        81        2.0000           -0.3937592             -10.7147
        82        2.0000           -0.3923624             -10.6767
        83        2.0000           -0.3574985              -9.7280
        84        2.0000           -0.3474825              -9.4555 (HOMO)
        85                         -0.3079167              -8.3788 (LUMO)
        86                         -0.2710640              -7.3760
        87                         -0.2565599              -6.9813
        88                         -0.2415120              -6.5719
        89                         -0.2332528              -6.3471
        90                         -0.2314502              -6.2981
        91                         -0.2271874              -6.1821
        92                         -0.2165619              -5.8929
        93                         -0.2080580              -5.6615
        94                         -0.1999526              -5.4410
        95                         -0.1979487              -5.3865
       ...                                ...                  ...
       163                          0.7080172              19.2661
      -------------------------------------------------------------
                  HL-Gap            0.0395657 Eh            1.0766 eV

     #   Z          covCN         q      C6AA      α(0)
     1   6 C        2.919    -0.040    28.991     8.829
     2   6 C        2.919    -0.039    28.959     8.825
     3   6 C        2.924    -0.059    29.468     8.902
     4   6 C        2.923     0.042    27.051     8.529
     5   6 C        2.882     0.123    25.297     8.246
     6   6 C        2.919    -0.057    29.427     8.896
     7   8 O        1.708    -0.268    18.450     5.799
     8   6 C        2.883     0.123    25.300     8.246
     9   6 C        2.920    -0.057    29.421     8.895
    10   6 C        2.919    -0.040    28.995     8.830
    11   6 C        2.919    -0.038    28.950     8.823
    12   6 C        2.924    -0.060    29.486     8.905
    13   6 C        2.920     0.042    27.053     8.529
    14   7 N        2.751    -0.071    22.616     7.063
    15   6 C        2.917     0.067    26.499     8.441
    16   6 C        2.918    -0.039    28.967     8.826
    17   6 C        2.915    -0.044    29.081     8.843
    18   6 C        2.965     0.080    26.210     8.397
    19   7 N        1.848    -0.260    27.608     7.787
    20   6 C        2.960     0.084    26.116     8.382
    21   6 C        2.987    -0.007    28.182     8.708
    22   6 C        2.924    -0.028    28.698     8.785
    23   6 C        2.916    -0.028    28.702     8.785
    24   6 C        2.918    -0.026    28.653     8.778
    25   6 C        2.922    -0.034    28.841     8.807
    26   6 C        2.976     0.005    27.905     8.665
    27   6 C        2.975     0.005    27.896     8.664
    28   6 C        2.922    -0.034    28.841     8.807
    29   6 C        2.918    -0.026    28.645     8.777
    30   6 C        2.916    -0.028    28.702     8.785
    31   6 C        2.924    -0.028    28.690     8.784
    32   6 C        2.987    -0.007    28.188     8.709
    33   6 C        2.959     0.087    26.068     8.374
    34   7 N        1.848    -0.264    27.703     7.801
    35   6 C        2.964     0.083    26.156     8.389
    36   6 C        2.920    -0.058    29.452     8.900
    37   1 H        0.926     0.045     2.387     2.416
    38   1 H        0.926     0.043     2.411     2.428
    39   1 H        0.926     0.037     2.494     2.470
    40   1 H        0.926     0.050     2.315     2.379
    41   1 H        0.926     0.051     2.312     2.378
    42   1 H        0.926     0.045     2.386     2.416
    43   1 H        0.926     0.043     2.415     2.430
    44   1 H        0.926     0.037     2.494     2.470
    45   1 H        0.926     0.054     2.266     2.354
    46   1 H        0.926     0.060     2.197     2.318
    47   1 H        0.926     0.055     2.260     2.351
    48   1 H        0.926     0.043     2.409     2.427
    49   1 H        0.926     0.044     2.399     2.422
    50   1 H        0.926     0.046     2.372     2.408
    51   1 H        0.926     0.046     2.368     2.407
    52   1 H        0.926     0.044     2.396     2.420
    53   1 H        0.926     0.043     2.408     2.427
    54   1 H        0.926     0.055     2.262     2.352
    55   1 H        0.926     0.058     2.228     2.334

molecular dipole:
                 x           y           z       tot (Debye)
 q only:        1.169       0.005       0.008
   full:        1.174       0.037      -0.012       2.985

 projected vibrational frequencies (cm⁻¹)
eigval :       -0.00    -0.00     0.00     0.00     0.00     0.00
eigval :       11.28    21.25    28.60    44.11    57.20    60.42
eigval :       82.81    94.33   106.81   118.55   134.72   151.56
eigval :      194.52   200.47   229.69   247.93   251.73   257.29
eigval :      281.09   289.42   302.29   347.86   369.22   376.10
eigval :      383.79   394.32   398.85   401.30   418.15   427.83
eigval :      436.48   439.09   443.47   452.36   509.47   514.66
eigval :      520.09   522.96   530.32   550.95   557.37   577.68
eigval :      579.93   588.35   595.41   622.41   624.47   658.75
eigval :      660.46   668.32   671.07   681.82   700.33   705.69
eigval :      732.46   761.48   767.33   767.73   778.49   779.51
eigval :      788.73   790.11   821.58   837.91   853.24   856.24
eigval :      863.62   866.88   868.61   879.47   883.71   897.05
eigval :      901.06   912.28   915.40   917.60   917.93   921.28
eigval :      924.62   928.27   929.06   940.63   985.65  1022.26
eigval :     1060.15  1084.46  1088.74  1088.98  1101.35  1106.04
eigval :     1109.53  1139.83  1147.22  1147.81  1163.16  1172.35
eigval :     1177.78  1179.40  1180.96  1193.79  1198.24  1215.12
eigval :     1233.66  1240.46  1246.38  1255.43  1259.85  1280.36
eigval :     1284.82  1292.61  1301.25  1306.15  1323.26  1329.57
eigval :     1337.74  1344.21  1352.35  1368.65  1410.23  1420.07
eigval :     1423.57  1424.12  1433.63  1441.72  1459.79  1473.34
eigval :     1478.60  1483.73  1497.24  1499.75  1530.34  1553.60
eigval :     1566.24  1566.79  1578.23  1584.47  1586.48  1594.42
eigval :     1596.96  1601.69  3077.67  3078.59  3086.29  3087.86
eigval :     3087.94  3088.17  3088.82  3095.53  3096.59  3097.88
eigval :     3101.03  3101.90  3103.90  3105.38  3105.89  3106.59
eigval :     3109.23  3110.31  3113.65

   temp. (K)  partition function   enthalpy   heat capacity  entropy
                                   cal/mol     cal/K/mol   cal/K/mol   J/K/mol
 298.15  VIB  0.287E+11            14798.724     99.545     89.227
         ROT  0.360E+08              888.752      2.981     37.555
         INT  0.103E+19            15687.476    102.526    126.783
         TR   0.959E+28             1481.254      4.968     44.257
         TOT                       17168.7302   107.4943   171.0392   715.6280

       T/K    H(0)-H(T)+PV         H(T)/Eh          T*S/Eh         G(T)/Eh
   ------------------------------------------------------------------------
    298.15    0.273601E-01    0.437124E+00    0.812662E-01    0.355858E+00
   ------------------------------------------------------------------------

         :::::::::::::::::::::::::::::::::::::::::::::::::::::
         ::                  THERMODYNAMIC                  ::
         :::::::::::::::::::::::::::::::::::::::::::::::::::::
         :: total free energy         -90.783191570338 Eh   ::
         ::.................................................::
         :: total energy              -91.139049092047 Eh   ::
         :: zero point energy           0.409763647650 Eh   ::
         :: G(RRHO) w/o ZPVE           -0.053906125941 Eh   ::
         :: G(RRHO) contrib.            0.355857521709 Eh   ::
         :::::::::::::::::::::::::::::::::::::::::::::::::::::

           -------------------------------------------------
          | TOTAL ENERGY              -91.139049092047 Eh   |
          | TOTAL ENTHALPY            -90.701925331346 Eh   |
          | TOTAL FREE ENERGY         -90.783191570338 Eh   |
          | GRADIENT NORM               0.000070495211 Eh/α |
          | HOMO-LUMO GAP               1.076638000848 eV   |
           -------------------------------------------------

 * finished run on 2025/09/05 at 11:38:41.902
