   * xtb version 6.7.1 (edcfbbe) compiled by 'albert@albert-system' on 2024-07-22

   ID    Z sym.   atoms
    1    6 C      1-6, 8-13, 15-18, 20-33, 35, 36
    2    8 O      7
    3    7 N      14, 19, 34
    4    1 H      37-55

          program call               : xtb data2507/toluene/PXZ-11-DPPZ/PXZ-11-DPPZ_toluene_T1_crest.xyz --gfn 2 --uhf 2 --gbsa toluene --ohess vtight --parallel 40 --molden --ceasefiles --namespace data2507/toluene/PXZ-11-DPPZ/PXZ-11-DPPZ_toluene_T1_finalOpt
      * Solvation model:               GBSA
        Solvent                        toluene
        Solvent mass                       9.2140E+01 g/mol
          :  Hamiltonian                  GFN2-xTB          :
 * total energy  :   -91.0910969 Eh     change       -0.1437415E-07 Eh
 * total energy  :   -91.0911450 Eh     change       -0.4814516E-04 Eh
 * total energy  :   -91.0911644 Eh     change       -0.1937588E-04 Eh
 * total energy  :   -91.0911676 Eh     change       -0.3175058E-05 Eh
 * total energy  :   -91.0911688 Eh     change       -0.1213455E-05 Eh
 * total energy  :   -91.0911701 Eh     change       -0.1266809E-05 Eh
 * total energy  :   -91.0911724 Eh     change       -0.2280509E-05 Eh
 * total energy  :   -91.0911753 Eh     change       -0.2978257E-05 Eh
 * total energy  :   -91.0911777 Eh     change       -0.2410235E-05 Eh
 * total energy  :   -91.0911794 Eh     change       -0.1632215E-05 Eh
 * total energy  :   -91.0911828 Eh     change       -0.1921950E-05 Eh
 * total energy  :   -91.0911849 Eh     change       -0.2040402E-05 Eh
 * total energy  :   -91.0911863 Eh     change       -0.1433461E-05 Eh
 * total energy  :   -91.0911872 Eh     change       -0.8920216E-06 Eh
 * total energy  :   -91.0911879 Eh     change       -0.7143676E-06 Eh
 * total energy  :   -91.0911884 Eh     change       -0.5270895E-06 Eh
 * total energy  :   -91.0911887 Eh     change       -0.2172144E-06 Eh
 * total energy  :   -91.0911888 Eh     change       -0.1045965E-06 Eh
 * total energy  :   -91.0911888 Eh     change       -0.2834769E-07 Eh
   *** GEOMETRY OPTIMIZATION CONVERGED AFTER 20 ITERATIONS ***

 final structure:
================
55
 xtb: 6.7.1 (edcfbbe)
C           -4.97978988935583        3.19699727732164       -2.00734552850565
C           -3.65227606869152        2.87242678605806       -2.22956846646512
C           -3.09036577641258        1.76102441338750       -1.62628226954553
C           -3.84705257634881        0.95435225120528       -0.77937401193629
C           -5.20014744727953        1.27930851253615       -0.58028879995836
C           -5.75473177521377        2.39411014339329       -1.18616214568744
O           -6.02545362802122        0.51593094277049        0.20121051134345
C           -5.48840268837142       -0.58751655614117        0.80828581449320
C           -6.33145521649817       -1.34801411652832        1.60097821242646
C           -5.84519977546574       -2.46474262259481        2.26124452012334
C           -4.50955868896768       -2.80829537502839        2.13711243828404
C           -3.66132365926066       -2.05423115471319        1.34556968232742
C           -4.13683199793293       -0.94182148197567        0.65489990250594
N           -3.31718332824685       -0.16543289185670       -0.15274327584368
C           -1.95449579341246       -0.51697833402776       -0.34202018684920
C           -1.62917104547342       -1.66576171560329       -1.05488371202545
C           -0.30357242568951       -2.01415950266826       -1.24157178042287
C            0.72783236173214       -1.22232156624543       -0.73293749860760
N            2.01227823311001       -1.53167357275038       -0.90279781597155
C            2.98357966004504       -0.76469893901464       -0.41327205248344
C            4.35755726107837       -1.10477922641424       -0.61530717107017
C            4.67558584773769       -2.26867805557453       -1.33579099364720
C            5.98046668613154       -2.62851012087475       -1.55129058354424
C            7.00745894799626       -1.82814500432200       -1.04845248246573
C            6.71564458920882       -0.68576855000352       -0.34206469494394
C            5.39189231841776       -0.28749332176898       -0.10038369335016
C            5.05197160019132        0.90525582797122        0.64067702514146
C            6.01624988404652        1.76718295240771        1.18555163517249
C            5.66147850609719        2.89591344457457        1.88498126486387
C            4.31610328659300        3.21429148569174        2.07578260135127
C            3.34737548884129        2.39404857912377        1.55846850737012
C            3.69082492439451        1.23736007422835        0.83835188087685
C            2.64867262972303        0.41055017939519        0.31250428575230
N            1.37082805005643        0.73493235404903        0.48777541936121
C            0.38738415694747       -0.02498387100317        0.00165538505131
C           -0.95498304059943        0.29487654632461        0.18658118293779
H           -5.41669544387078        4.06513037624519       -2.47447896191727
H           -3.04445230971191        3.48361865399946       -2.87843632356512
H           -2.05790445427259        1.51011801642789       -1.80998038597231
H           -6.79508917290551        2.61117000337053       -1.00334178773781
H           -7.36264810250493       -1.04485264550842        1.68859553189981
H           -6.50745889635496       -3.05434653775200        2.87491271073751
H           -4.11856618323996       -3.66761599810558        2.65929198697611
H           -2.62008085459810       -2.32157033277344        1.26029469906601
H           -2.41471847070067       -2.28254572676259       -1.46434622757810
H           -0.03947856788331       -2.90234723277334       -1.79364303892344
H            3.85879804512058       -2.86595555789068       -1.71230666863032
H            6.21500265075071       -3.52508011750261       -2.10595153457544
H            8.03724326611769       -2.10780333456829       -1.21642218943734
H            7.53263908342518       -0.08986680189611        0.03229040547259
H            7.06453867308448        1.54943849420225        1.05777371112616
H            6.42827283002066        3.53944790320192        2.29097448820169
H            4.04273286335271        4.10186924801728        2.62708069924990
H            2.29804346180394        2.61188025903428        1.68909489323366
H           -1.20568599954000        1.17987807470554        0.75054288791539

          :  Hamiltonian                  GFN2-xTB          :
         :: gradient norm              0.000069354753 Eh/a0 ::
         :: HOMO-LUMO gap              1.046397400985 eV    ::
         :: SCC energy               -92.710040602651 Eh    ::
         :: -> dispersion             -0.076242462162 Eh    ::
         :: -> Gsolv                  -0.038975555749 Eh    ::
         :: repulsion energy           1.618851813149 Eh    ::

    * Orbital Energies and Occupations

         #    Occupation            Energy/Eh            Energy/eV
      -------------------------------------------------------------
         1        2.0000           -0.7468196             -20.3220
       ...           ...                  ...                  ...
        73        2.0000           -0.4259035             -11.5894
        74        2.0000           -0.4252208             -11.5708
        75        2.0000           -0.4218267             -11.4785
        76        2.0000           -0.4203379             -11.4380
        77        2.0000           -0.4154960             -11.3062
        78        2.0000           -0.4116226             -11.2008
        79        2.0000           -0.4035614             -10.9815
        80        2.0000           -0.3962127             -10.7815
        81        2.0000           -0.3893856             -10.5957
        82        2.0000           -0.3834843             -10.4351
        83        1.7352           -0.3556471              -9.6776
        84        1.2648           -0.3537069              -9.6249
        85        1.0000           -0.3024690              -8.2306 (HOMO)
        86                         -0.2640145              -7.1842 (LUMO)
        87                         -0.2524835              -6.8704
        88                         -0.2490118              -6.7760
        89                         -0.2414201              -6.5694
        90                         -0.2287784              -6.2254
        91                         -0.2208249              -6.0090
        92                         -0.2172982              -5.9130
        93                         -0.2071117              -5.6358
        94                         -0.1971382              -5.3644
        95                         -0.1907400              -5.1903
        96                         -0.1492918              -4.0624
       ...                                ...                  ...
       163                          0.7110281              19.3481
      -------------------------------------------------------------
                  HL-Gap            0.0384544 Eh            1.0464 eV

     #   Z          covCN         q      C6AA      α(0)
     1   6 C        2.919    -0.033    28.826     8.804
     2   6 C        2.918    -0.032    28.809     8.802
     3   6 C        2.922    -0.053    29.315     8.879
     4   6 C        2.924     0.046    26.964     8.516
     5   6 C        2.884     0.128    25.203     8.230
     6   6 C        2.917    -0.054    29.333     8.881
     7   8 O        1.709    -0.241    18.000     5.728
     8   6 C        2.884     0.128    25.204     8.230
     9   6 C        2.917    -0.054    29.331     8.881
    10   6 C        2.919    -0.033    28.828     8.805
    11   6 C        2.918    -0.032    28.810     8.802
    12   6 C        2.922    -0.053    29.323     8.880
    13   6 C        2.924     0.046    26.968     8.516
    14   7 N        2.752    -0.041    22.032     6.971
    15   6 C        2.918     0.048    26.933     8.510
    16   6 C        2.916    -0.050    29.238     8.867
    17   6 C        2.918    -0.063    29.572     8.917
    18   6 C        2.940     0.085    26.097     8.378
    19   7 N        1.849    -0.248    27.327     7.748
    20   6 C        2.942     0.080    26.226     8.399
    21   6 C        2.987    -0.009    28.242     8.717
    22   6 C        2.923    -0.031    28.766     8.795
    23   6 C        2.916    -0.033    28.818     8.803
    24   6 C        2.917    -0.033    28.813     8.802
    25   6 C        2.920    -0.035    28.879     8.813
    26   6 C        2.976    -0.002    28.074     8.691
    27   6 C        2.976    -0.002    28.071     8.691
    28   6 C        2.920    -0.035    28.879     8.812
    29   6 C        2.917    -0.033    28.811     8.802
    30   6 C        2.916    -0.033    28.819     8.803
    31   6 C        2.923    -0.031    28.765     8.795
    32   6 C        2.987    -0.009    28.243     8.718
    33   6 C        2.942     0.080    26.208     8.396
    34   7 N        1.849    -0.251    27.388     7.756
    35   6 C        2.941     0.087    26.061     8.373
    36   6 C        2.920    -0.073    29.831     8.957
    37   1 H        0.926     0.054     2.265     2.353
    38   1 H        0.926     0.051     2.302     2.373
    39   1 H        0.926     0.047     2.360     2.402
    40   1 H        0.926     0.060     2.195     2.317
    41   1 H        0.926     0.060     2.197     2.318
    42   1 H        0.926     0.054     2.266     2.354
    43   1 H        0.926     0.052     2.296     2.370
    44   1 H        0.926     0.048     2.350     2.397
    45   1 H        0.926     0.043     2.409     2.427
    46   1 H        0.926     0.048     2.347     2.396
    47   1 H        0.926     0.043     2.409     2.427
    48   1 H        0.926     0.036     2.501     2.473
    49   1 H        0.926     0.036     2.508     2.476
    50   1 H        0.926     0.038     2.471     2.458
    51   1 H        0.926     0.038     2.471     2.458
    52   1 H        0.926     0.036     2.506     2.476
    53   1 H        0.926     0.036     2.499     2.472
    54   1 H        0.926     0.043     2.406     2.426
    55   1 H        0.926     0.047     2.362     2.404

molecular dipole:
                 x           y           z       tot (Debye)
 q only:       -1.543       0.129       0.055
   full:       -1.502       0.093       0.036       3.827

 projected vibrational frequencies (cm⁻¹)
eigval :       -0.00    -0.00    -0.00    -0.00     0.00     0.00
eigval :       18.24    21.96    25.59    52.91    58.45    62.87
eigval :       88.18   101.49   107.10   112.52   134.73   149.79
eigval :      192.11   193.73   227.68   244.78   247.53   259.21
eigval :      271.26   282.70   303.96   345.80   369.61   375.73
eigval :      388.58   394.51   401.97   403.83   418.90   430.24
eigval :      431.13   440.02   446.25   458.17   501.79   510.42
eigval :      517.85   524.14   526.06   544.25   553.91   574.50
eigval :      577.20   584.52   586.00   614.80   620.47   634.09
eigval :      661.73   666.27   668.78   673.67   687.29   691.67
eigval :      695.93   726.90   757.07   762.93   775.99   777.35
eigval :      778.45   786.96   795.98   807.19   831.64   850.29
eigval :      854.45   861.38   865.71   866.89   871.07   876.81
eigval :      900.71   901.65   905.77   911.14   913.82   914.47
eigval :      918.14   919.67   920.77   921.11   989.95  1009.10
eigval :     1058.59  1080.34  1083.47  1085.41  1096.83  1110.65
eigval :     1113.47  1131.77  1143.48  1149.00  1162.72  1171.06
eigval :     1177.25  1178.24  1178.60  1197.40  1203.51  1220.16
eigval :     1222.29  1237.10  1246.58  1253.22  1256.37  1260.05
eigval :     1279.30  1280.90  1294.05  1308.86  1312.04  1316.18
eigval :     1323.22  1336.44  1345.56  1351.43  1367.03  1388.26
eigval :     1407.52  1413.13  1418.35  1426.35  1439.49  1447.49
eigval :     1462.38  1465.22  1470.13  1491.01  1513.01  1527.99
eigval :     1532.51  1549.34  1557.49  1564.91  1574.79  1580.89
eigval :     1587.35  1591.13  3072.13  3073.17  3080.93  3081.81
eigval :     3088.45  3092.89  3093.37  3093.58  3094.63  3095.68
eigval :     3097.89  3100.26  3101.41  3101.56  3106.59  3107.73
eigval :     3110.16  3112.93  3113.81

   temp. (K)  partition function   enthalpy   heat capacity  entropy
                                   cal/mol     cal/K/mol   cal/K/mol   J/K/mol
 298.15  VIB  0.167E+11            14894.691    100.778     89.301
         ROT  0.360E+08              888.752      2.981     37.559
         INT  0.602E+18            15783.443    103.759    126.860
         TR   0.959E+28             1481.254      4.968     44.257
         TOT                       17264.6972   108.7272   171.1165   715.9516

       T/K    H(0)-H(T)+PV         H(T)/Eh          T*S/Eh         G(T)/Eh
   ------------------------------------------------------------------------
    298.15    0.275130E-01    0.434873E+00    0.813030E-01    0.353570E+00
   ------------------------------------------------------------------------

         :::::::::::::::::::::::::::::::::::::::::::::::::::::
         ::                  THERMODYNAMIC                  ::
         :::::::::::::::::::::::::::::::::::::::::::::::::::::
         :: total free energy         -90.737618313338 Eh   ::
         ::.................................................::
         :: total energy              -91.091188789232 Eh   ::
         :: zero point energy           0.407360415033 Eh   ::
         :: G(RRHO) w/o ZPVE           -0.053789939139 Eh   ::
         :: G(RRHO) contrib.            0.353570475894 Eh   ::
         :::::::::::::::::::::::::::::::::::::::::::::::::::::

           -------------------------------------------------
          | TOTAL ENERGY              -91.091188789232 Eh   |
          | TOTAL ENTHALPY            -90.656315328002 Eh   |
          | TOTAL FREE ENERGY         -90.737618313338 Eh   |
          | GRADIENT NORM               0.000069739897 Eh/α |
          | HOMO-LUMO GAP               1.046398636189 eV   |
           -------------------------------------------------

 * finished run on 2025/09/05 at 11:43:37.672
