   * xtb version 6.7.1 (edcfbbe) compiled by 'albert@albert-system' on 2024-07-22

   ID    Z sym.   atoms
    1    6 C      1-6, 8-13, 15-18, 20-33, 35, 36
    2    8 O      7
    3    7 N      14, 19, 34
    4    1 H      37-55

          program call               : xtb data2507/toluene/PXZ-11-DPPZ/PXZ-11-DPPZ_toluene_S0_crest.xyz --gfn 2 --gbsa toluene --ohess vtight --parallel 40 --molden --ceasefiles --namespace data2507/toluene/PXZ-11-DPPZ/PXZ-11-DPPZ_toluene_S0_finalOpt
      * Solvation model:               GBSA
        Solvent                        toluene
        Solvent mass                       9.2140E+01 g/mol
          :  Hamiltonian                  GFN2-xTB          :
 * total energy  :   -91.1390686 Eh     change       -0.2170538E-08 Eh
 * total energy  :   -91.1390948 Eh     change       -0.2624468E-04 Eh
 * total energy  :   -91.1391016 Eh     change       -0.6711800E-05 Eh
 * total energy  :   -91.1391040 Eh     change       -0.2486598E-05 Eh
 * total energy  :   -91.1391062 Eh     change       -0.2186296E-05 Eh
 * total energy  :   -91.1391079 Eh     change       -0.1694570E-05 Eh
 * total energy  :   -91.1391098 Eh     change       -0.1834873E-05 Eh
 * total energy  :   -91.1391117 Eh     change       -0.1932107E-05 Eh
 * total energy  :   -91.1391132 Eh     change       -0.1492145E-05 Eh
 * total energy  :   -91.1391143 Eh     change       -0.1095674E-05 Eh
 * total energy  :   -91.1391195 Eh     change       -0.1416558E-05 Eh
 * total energy  :   -91.1391207 Eh     change       -0.1177896E-05 Eh
 * total energy  :   -91.1391217 Eh     change       -0.9911961E-06 Eh
 * total energy  :   -91.1391227 Eh     change       -0.9684216E-06 Eh
 * total energy  :   -91.1391237 Eh     change       -0.1046476E-05 Eh
 * total energy  :   -91.1391248 Eh     change       -0.1077267E-05 Eh
 * total energy  :   -91.1391257 Eh     change       -0.9190598E-06 Eh
 * total energy  :   -91.1391264 Eh     change       -0.6528756E-06 Eh
 * total energy  :   -91.1391264 Eh     change       -0.3154057E-08 Eh
   *** GEOMETRY OPTIMIZATION CONVERGED AFTER 22 ITERATIONS ***

 final structure:
================
55
 xtb: 6.7.1 (edcfbbe)
C           -5.92639517652038        2.62407029117023        2.01231662411077
C           -4.57914132324700        2.92293798298320        1.97306427448800
C           -3.69825243481291        2.10174490126665        1.28549886178853
C           -4.15334199024976        0.97511192541424        0.61024903376579
C           -5.51675444622466        0.66171206461795        0.68789167866749
C           -6.39170375179863        1.48276499007035        1.37550065781768
O           -6.04674534085995       -0.46655702772556        0.10871781446383
C           -5.18005455090652       -1.30623994823777       -0.55066205607911
C           -5.72797382444029       -2.44245270563812       -1.11793249041904
C           -4.92984133001541       -3.32441598540201       -1.83116061606264
C           -3.58565202767500       -3.04991494887300       -1.98431362309630
C           -3.03165740742047       -1.91376372607285       -1.41414294586339
C           -3.81048138489784       -1.03377496668060       -0.67229253169329
N           -3.29028784920142        0.12943620801402       -0.09326775857903
C           -1.93349463435856        0.47683187671517       -0.25013913094564
C           -1.61076736337391        1.67734355526655       -0.93007096480989
C           -0.31301979832008        2.04403625789965       -1.12618967135291
C            0.73426193708025        1.22353840566323       -0.64965866999936
N            2.00965553852210        1.58165015450278       -0.84697886889389
C            2.95864026335660        0.78440535155451       -0.38660099414636
C            4.34240268543997        1.14794192466982       -0.59372402826458
C            4.64648055236659        2.33299414388317       -1.27143819773696
C            5.95303539795921        2.70476840795272       -1.48746622183360
C            6.97954834221665        1.88893611505550       -1.02430254348907
C            6.69400265525103        0.71880029366745       -0.35438695548994
C            5.37458562359926        0.31375489883711       -0.11827174159560
C            5.04724689886948       -0.91715235375134        0.58932803711191
C            6.02845249752310       -1.78467545709626        1.08465483084094
C            5.69522067972219       -2.94349586265769        1.75220095951719
C            4.36184315458128       -3.28292053159796        1.95362289627742
C            3.37512916181443       -2.45113459378929        1.47748739473374
C            3.69923071286984       -1.27283768635740        0.79754391033192
C            2.63715496313745       -0.42370347879462        0.30513820084848
N            1.38267846461723       -0.78785881881033        0.50165944648831
C            0.41228743209104        0.01397539414235        0.03489817213194
C           -0.93751796034760       -0.33758096840863        0.22958677942019
H           -6.61676688301436        3.26076166891454        2.54261954951153
H           -4.19775658297457        3.79514612227275        2.48137770876957
H           -2.64538813867762        2.33663211612554        1.27954118043420
H           -7.43437867189542        1.20784886345827        1.40334402136039
H           -6.78570715457259       -2.61404227289999       -0.99396007812021
H           -5.36531207611881       -4.20914478594222       -2.26795136299955
H           -2.95276476679152       -3.71506152400621       -2.55147463105371
H           -1.98286697733828       -1.70667279387150       -1.55641811844815
H           -2.41737694726202        2.28978617514728       -1.30542028722973
H           -0.05326409216928        2.95026274368947       -1.65105092366191
H            3.82461854562647        2.94081603623137       -1.61654868539023
H            6.18060447815229        3.62107655710367       -2.01119859791483
H            8.00867823010402        2.17238753741386       -1.18924348195620
H            7.51626317100576        0.11299340973985       -0.01004873518752
H            7.07264256369783       -1.55510634678232        0.94841497114569
H            6.47736701677497       -3.59073028014413        2.12115521014389
H            4.10459841407792       -4.19113422828811        2.47767776560011
H            2.33023913624334       -2.68269877334087        1.61391816099349
H           -1.16182107641580       -1.25132529747564        0.75843550624903

          :  Hamiltonian                  GFN2-xTB          :
         :: gradient norm              0.000051221484 Eh/a0 ::
         :: HOMO-LUMO gap              1.087366678683 eV    ::
         :: SCC energy               -92.756171046153 Eh    ::
         :: -> dispersion             -0.076324327959 Eh    ::
         :: -> Gsolv                  -0.038397405437 Eh    ::
         :: repulsion energy           1.617044670529 Eh    ::

    * Orbital Energies and Occupations

         #    Occupation            Energy/Eh            Energy/eV
      -------------------------------------------------------------
         1        2.0000           -0.7327739             -19.9398
       ...           ...                  ...                  ...
        72        2.0000           -0.4290263             -11.6744
        73        2.0000           -0.4269043             -11.6167
        74        2.0000           -0.4233856             -11.5209
        75        2.0000           -0.4223061             -11.4915
        76        2.0000           -0.4188404             -11.3972
        77        2.0000           -0.4161727             -11.3246
        78        2.0000           -0.4155141             -11.3067
        79        2.0000           -0.4064251             -11.0594
        80        2.0000           -0.3976850             -10.8216
        81        2.0000           -0.3937173             -10.7136
        82        2.0000           -0.3922371             -10.6733
        83        2.0000           -0.3572652              -9.7217
        84        2.0000           -0.3476493              -9.4600 (HOMO)
        85                         -0.3076892              -8.3727 (LUMO)
        86                         -0.2708665              -7.3707
        87                         -0.2564442              -6.9782
        88                         -0.2416761              -6.5763
        89                         -0.2333561              -6.3499
        90                         -0.2314164              -6.2972
        91                         -0.2271264              -6.1804
        92                         -0.2164518              -5.8900
        93                         -0.2078896              -5.6570
        94                         -0.1999114              -5.4399
        95                         -0.1978188              -5.3829
       ...                                ...                  ...
       163                          0.7082480              19.2724
      -------------------------------------------------------------
                  HL-Gap            0.0399600 Eh            1.0874 eV

     #   Z          covCN         q      C6AA      α(0)
     1   6 C        2.919    -0.040    28.988     8.829
     2   6 C        2.919    -0.039    28.958     8.825
     3   6 C        2.924    -0.059    29.471     8.903
     4   6 C        2.922     0.042    27.054     8.530
     5   6 C        2.883     0.123    25.295     8.245
     6   6 C        2.919    -0.057    29.425     8.895
     7   8 O        1.708    -0.268    18.444     5.798
     8   6 C        2.883     0.123    25.297     8.246
     9   6 C        2.920    -0.057    29.420     8.895
    10   6 C        2.919    -0.040    28.990     8.829
    11   6 C        2.919    -0.038    28.949     8.823
    12   6 C        2.924    -0.060    29.481     8.904
    13   6 C        2.920     0.042    27.057     8.530
    14   7 N        2.751    -0.070    22.600     7.061
    15   6 C        2.917     0.067    26.505     8.442
    16   6 C        2.918    -0.039    28.972     8.827
    17   6 C        2.915    -0.044    29.086     8.844
    18   6 C        2.965     0.080    26.211     8.398
    19   7 N        1.848    -0.260    27.615     7.788
    20   6 C        2.960     0.084    26.119     8.383
    21   6 C        2.987    -0.007    28.183     8.708
    22   6 C        2.924    -0.028    28.700     8.785
    23   6 C        2.916    -0.028    28.703     8.785
    24   6 C        2.918    -0.026    28.655     8.778
    25   6 C        2.922    -0.034    28.842     8.807
    26   6 C        2.976     0.005    27.907     8.665
    27   6 C        2.975     0.005    27.897     8.664
    28   6 C        2.922    -0.034    28.842     8.807
    29   6 C        2.918    -0.026    28.647     8.777
    30   6 C        2.916    -0.028    28.703     8.785
    31   6 C        2.924    -0.028    28.691     8.784
    32   6 C        2.988    -0.007    28.188     8.709
    33   6 C        2.959     0.087    26.069     8.375
    34   7 N        1.848    -0.264    27.714     7.802
    35   6 C        2.964     0.083    26.156     8.389
    36   6 C        2.920    -0.059    29.463     8.901
    37   1 H        0.926     0.045     2.386     2.415
    38   1 H        0.926     0.043     2.408     2.427
    39   1 H        0.926     0.037     2.483     2.464
    40   1 H        0.926     0.050     2.314     2.379
    41   1 H        0.926     0.051     2.310     2.377
    42   1 H        0.926     0.045     2.384     2.415
    43   1 H        0.926     0.043     2.413     2.429
    44   1 H        0.926     0.037     2.490     2.468
    45   1 H        0.926     0.055     2.262     2.352
    46   1 H        0.926     0.060     2.200     2.319
    47   1 H        0.926     0.055     2.261     2.351
    48   1 H        0.926     0.043     2.411     2.428
    49   1 H        0.926     0.044     2.401     2.423
    50   1 H        0.926     0.046     2.373     2.409
    51   1 H        0.926     0.046     2.370     2.407
    52   1 H        0.926     0.044     2.397     2.421
    53   1 H        0.926     0.043     2.409     2.427
    54   1 H        0.926     0.055     2.262     2.352
    55   1 H        0.926     0.057     2.232     2.337

molecular dipole:
                 x           y           z       tot (Debye)
 q only:        1.122       0.032       0.006
   full:        1.128       0.060      -0.016       2.872

 projected vibrational frequencies (cm⁻¹)
eigval :       -0.00    -0.00     0.00     0.00     0.00     0.00
eigval :       20.43    20.85    25.89    46.26    59.45    61.94
eigval :       90.42    95.04   106.77   114.77   135.68   152.53
eigval :      193.62   203.58   229.91   251.06   253.74   258.31
eigval :      281.20   291.50   302.89   349.65   368.88   378.03
eigval :      383.24   394.27   398.48   401.38   419.33   429.02
eigval :      436.63   440.52   443.11   453.79   509.65   515.43
eigval :      521.31   523.85   532.05   550.98   557.29   578.23
eigval :      580.15   588.65   595.48   623.46   624.18   659.48
eigval :      662.15   668.42   673.12   683.06   700.48   705.88
eigval :      735.16   761.50   766.24   769.14   776.54   779.05
eigval :      788.96   789.98   820.81   837.86   853.39   856.03
eigval :      862.38   864.85   867.26   877.55   884.17   897.62
eigval :      899.97   913.28   914.16   915.57   915.78   919.57
eigval :      923.43   926.75   927.73   940.80   985.60  1022.47
eigval :     1060.36  1084.35  1089.11  1089.57  1101.20  1105.91
eigval :     1109.48  1140.40  1147.43  1148.28  1163.55  1172.88
eigval :     1178.75  1179.64  1181.11  1194.00  1198.00  1215.49
eigval :     1233.66  1239.75  1246.36  1255.51  1258.34  1280.34
eigval :     1285.19  1292.69  1300.96  1306.11  1323.53  1328.66
eigval :     1337.78  1343.95  1352.46  1368.67  1410.54  1419.81
eigval :     1423.84  1424.26  1433.61  1441.64  1459.93  1473.37
eigval :     1478.04  1483.68  1496.86  1499.23  1530.33  1553.75
eigval :     1566.19  1566.94  1578.11  1584.57  1586.26  1594.26
eigval :     1596.99  1601.41  3077.15  3077.70  3086.66  3087.53
eigval :     3088.01  3088.36  3088.47  3096.65  3096.81  3097.65
eigval :     3100.74  3103.12  3103.57  3104.96  3105.17  3106.15
eigval :     3109.52  3110.21  3113.59

   temp. (K)  partition function   enthalpy   heat capacity  entropy
                                   cal/mol     cal/K/mol   cal/K/mol   J/K/mol
 298.15  VIB  0.150E+11            14757.574     99.622     88.469
         ROT  0.360E+08              888.752      2.981     37.555
         INT  0.538E+18            15646.326    102.603    126.024
         TR   0.959E+28             1481.254      4.968     44.257
         TOT                       17127.5799   107.5707   170.2806   712.4541

       T/K    H(0)-H(T)+PV         H(T)/Eh          T*S/Eh         G(T)/Eh
   ------------------------------------------------------------------------
    298.15    0.272945E-01    0.437133E+00    0.809058E-01    0.356227E+00
   ------------------------------------------------------------------------

         :::::::::::::::::::::::::::::::::::::::::::::::::::::
         ::                  THERMODYNAMIC                  ::
         :::::::::::::::::::::::::::::::::::::::::::::::::::::
         :: total free energy         -90.782899529749 Eh   ::
         ::.................................................::
         :: total energy              -91.139126384353 Eh   ::
         :: zero point energy           0.409838132490 Eh   ::
         :: G(RRHO) w/o ZPVE           -0.053611277887 Eh   ::
         :: G(RRHO) contrib.            0.356226854604 Eh   ::
         :::::::::::::::::::::::::::::::::::::::::::::::::::::

           -------------------------------------------------
          | TOTAL ENERGY              -91.139126384353 Eh   |
          | TOTAL ENTHALPY            -90.701993715920 Eh   |
          | TOTAL FREE ENERGY         -90.782899529749 Eh   |
          | GRADIENT NORM               0.000051218117 Eh/α |
          | HOMO-LUMO GAP               1.087367466906 eV   |
           -------------------------------------------------

 * finished run on 2025/09/05 at 11:40:37.053
