   * xtb version 6.7.1 (edcfbbe) compiled by 'albert@albert-system' on 2024-07-22

   ID    Z sym.   atoms
    1    6 C      1-10, 12-21, 23-25, 27-56, 58-66
    2    5 B      11
    3    8 O      22, 67
    4    7 N      26, 57
    5    1 H      68-116

          program call               : xtb data2507/gas/TRZ-pIC/TRZ-pIC_gas_T1_crest.xyz --gfn 2 --spinpol --tblite --uhf 2 --ohess vtight --parallel 40 --molden --ceasefiles --namespace data2507/gas/TRZ-pIC/TRZ-pIC_gas_T1_finalOpt
 * total energy  :  -173.0442572 Eh     change       -0.3340526E-07 Eh
 * total energy  :  -173.0443139 Eh     change       -0.5669993E-04 Eh
 * total energy  :  -173.0443461 Eh     change       -0.3222287E-04 Eh
 * total energy  :  -173.0443516 Eh     change       -0.5495229E-05 Eh
 * total energy  :  -173.0443560 Eh     change       -0.4463982E-05 Eh
 * total energy  :  -173.0443550 Eh     change        0.1063266E-05 Eh
 * total energy  :  -173.0443576 Eh     change       -0.2572929E-05 Eh
 * total energy  :  -173.0443596 Eh     change       -0.2053083E-05 Eh
 * total energy  :  -173.0443609 Eh     change       -0.1320622E-05 Eh
 * total energy  :  -173.0443626 Eh     change       -0.1722641E-05 Eh
 * total energy  :  -173.0443646 Eh     change       -0.3460271E-06 Eh
 * total energy  :  -173.0443650 Eh     change       -0.4338122E-06 Eh
 * total energy  :  -173.0443654 Eh     change       -0.4254373E-06 Eh
 * total energy  :  -173.0443659 Eh     change       -0.4811459E-06 Eh
 * total energy  :  -173.0443665 Eh     change       -0.5840724E-06 Eh
 * total energy  :  -173.0443670 Eh     change       -0.5687158E-06 Eh
 * total energy  :  -173.0443677 Eh     change       -0.6375583E-06 Eh
 * total energy  :  -173.0443682 Eh     change       -0.5335179E-06 Eh
 * total energy  :  -173.0443682 Eh     change       -0.1333939E-07 Eh
   *** GEOMETRY OPTIMIZATION CONVERGED AFTER 22 ITERATIONS ***

 final structure:
================
116
 xtb: 6.7.1 (edcfbbe)
C            9.42293216223607        3.50754407998611        0.81967645987428
C            8.82784834365931        2.21441149478524        1.39427572469523
C            9.20802066879688        2.08047399732426        2.87564429408532
C            9.43882495765477        1.03080162916919        0.63858171382731
C            7.31228252828749        2.27127113990953        1.27334403795961
C            6.61117326817288        3.29184864469471        1.92121614800004
C            5.24262906244670        3.39059291320186        1.81380910481950
C            4.52623627954073        2.45927948200334        1.06491856170243
C            5.18159264056461        1.39227568236185        0.42639175563489
C            6.57914697796845        1.35462473342896        0.54399890592750
B            4.29948777968419        0.38939716787079       -0.35172458944121
C            4.58571911926332       -0.97290569844750       -1.02400407808389
C            5.77063140966373       -1.71694314563011       -0.92292727115554
C            5.97602943145360       -2.92290972101998       -1.56601052407831
C            7.27062889316022       -3.71426069814547       -1.45232799654660
C            7.87563340841235       -3.88826208997967       -2.85250506601697
C            8.31255927187797       -3.02272925162563       -0.56827067905377
C            6.96387598981427       -5.08992599897814       -0.84398732032437
C            4.93465435124556       -3.42161762204911       -2.35293808645076
C            3.74099230713056       -2.74477566067687       -2.46093731500849
C            3.55439820853132       -1.53519510797833       -1.79542517449837
O            2.31396530187765       -0.98367634359940       -1.95660866535397
C            1.92839283694633        0.09500764851491       -1.24096337091694
C            0.58762352076978        0.44487702630690       -1.29586124089209
C            0.13294850407051        1.49961870248451       -0.51226643450035
N           -1.24530799631551        1.76357260914266       -0.45736866226617
C           -1.82651409380746        2.94844503693481       -0.83413943535664
C           -1.21994546539616        4.11643471559618       -1.26607250893267
C           -2.03718029452408        5.19095739380594       -1.56907726062023
C           -3.42485785846742        5.09217341205896       -1.43174152175422
C           -4.03813782247530        3.92494852868564       -1.02773890925881
C           -3.24344647894794        2.80986378675752       -0.74196537515591
C           -3.49130765976458        1.47422881307321       -0.31711593418353
C           -4.69970388985122        0.75571530074053       -0.09135223492866
C           -6.00742787178171        1.35424294190532       -0.33059544601102
C           -6.34589633722228        1.85091370259143       -1.59202271460669
C           -7.59909788509803        2.38109198089382       -1.82347032114434
C           -8.53263530353187        2.44334460996002       -0.80051090797220
C           -8.19840915670196        1.97734817937330        0.46204286439899
C           -6.95158797929754        1.43621502004953        0.69635537109878
C           -4.53146094239579       -0.55814975898464        0.39027215154934
C           -3.27270972247059       -1.11548245511653        0.72010463025148
C           -2.06312132252232       -0.40919870628444        0.46698564845316
C           -0.75962412913836       -0.99557159526068        0.78108843975854
C           -0.34106031004763       -2.16879722741782        0.15125275446828
C            0.91249121274310       -2.69155418231220        0.40290563384581
C            1.76265869054565       -2.06554216526168        1.29994844687136
C            1.34105455199412       -0.92138808310013        1.95960626510233
C            0.09241735295856       -0.39008920307727        1.70571258142285
C           -2.22691232648392        0.87063835671223       -0.09604178457411
C           -3.52104726380133       -2.39724339375625        1.28777309370956
C           -2.72716547823049       -3.39329860248347        1.86551856803510
C           -3.33231650069222       -4.54993265046665        2.30891035741312
C           -4.70879282034715       -4.75585474237051        2.18784158544951
C           -5.52493730669667       -3.78008601655113        1.64155115692982
C           -4.92886014427425       -2.60338365273404        1.22137121565588
N           -5.51036599888893       -1.48535898226282        0.66454421746916
C           -6.86686864797159       -1.42306630045773        0.30201557223084
C           -7.22054749053067       -1.23565524550930       -1.03026869730759
C           -8.55384298208276       -1.17432152234718       -1.38439355553154
C           -9.53897168621136       -1.31534247239845       -0.42048552312612
C           -9.18700426660801       -1.52686372410927        0.90144964379229
C           -7.85467654058336       -1.58316247365772        1.26712427498883
C            1.01332410099571        2.26852742246835        0.23983234560351
C            2.36000446887625        1.92818309322076        0.25325061639724
C            2.84149205906937        0.82005324732654       -0.45953546284009
O            3.17798470575585        2.68379349786898        1.01916194277675
H            9.06873468350260        4.38073404797574        1.36049272806397
H            9.14217522742879        3.61757823071716       -0.22580651414003
H           10.50884789527231        3.48338351160336        0.88534960000895
H            8.85787066739535        2.93089014533499        3.45387623933079
H           10.28928124900949        2.01953159148956        2.98161920500552
H            8.76827242006595        1.17833912227844        3.29603035095182
H           10.52011529155353        1.04191873630357        0.76186626003706
H            9.22247956708214        1.09162906749472       -0.42555443340256
H            9.06742638859812        0.08510043840427        1.02657201317460
H            7.13667338281372        4.02955333919986        2.50825723749102
H            4.70271059840470        4.19044377287108        2.29772843896617
H            7.08944933961205        0.57121931600358        0.01270060369202
H            6.54265559585103       -1.31643890848748       -0.29041912089549
H            8.81382682593472       -4.43605278815875       -2.79066334127336
H            8.07199384408941       -2.91604870600831       -3.29989964218287
H            7.20563583762011       -4.43578668527721       -3.50937218558896
H            7.94490606210486       -2.89937462639938        0.44787066768421
H            9.21368599934674       -3.63165581609973       -0.52685779819482
H            8.58419955237689       -2.05003823147373       -0.97186071531484
H            6.51858244293642       -4.97361301438367        0.14202143058101
H            7.87949049677727       -5.66925824774019       -0.74332079310272
H            6.27226863945812       -5.65206091254327       -1.46537345575706
H            5.04681252575943       -4.35694301993450       -2.87997334063362
H            2.92832267891294       -3.13953788727100       -3.05186838893605
H           -0.09639556211604       -0.12623569774742       -1.90231458134044
H           -0.14670706722074        4.18360813999711       -1.35746643143492
H           -1.59961054782346        6.11850604313640       -1.90424722790493
H           -4.03297208067928        5.95743847431963       -1.65268014117127
H           -5.11006933334944        3.87815903233753       -0.92564620027755
H           -5.62202329263019        1.79205412033530       -2.39200268675235
H           -7.85206639407563        2.74753705741932       -2.80801911436354
H           -9.51246177928586        2.85806940862056       -0.98387889512921
H           -8.91543422651712        2.04005013063831        1.26766659250619
H           -6.68682754608864        1.09129926485546        1.68570753052216
H           -0.99848166618267       -2.64850749617957       -0.55950399493602
H            1.23428491931462       -3.58583287701533       -0.11057748412932
H            2.74902360326737       -2.46528697624800        1.48244180710069
H            1.99328699685387       -0.43971129868991        2.67346123187357
H           -0.23700675283943        0.49683134691460        2.22743563519548
H           -1.66305179055917       -3.25721931057633        1.96810680714142
H           -2.72683891922117       -5.32354746224506        2.75830285201520
H           -5.14167387264806       -5.68281475138210        2.53095463379291
H           -6.58957231386991       -3.93269298982488        1.54708537155091
H           -6.44646139453635       -1.13668509141198       -1.77614676698755
H           -8.82517787638079       -1.01949512706987       -2.41754665955535
H          -10.57997413974515       -1.26336981649555       -0.70074162861048
H           -9.95256800280155       -1.64180233979999        1.65420325735538
H           -7.57237533183718       -1.72644818397928        2.29965269322581
H            0.65647541715169        3.08776106091674        0.84351780935330

 projected vibrational frequencies (cm⁻¹)
eigval :       -0.00    -0.00     0.00     0.00     0.00     0.00
eigval :        8.91    11.21    11.86    21.93    24.86    28.42
eigval :       29.71    36.78    43.63    45.85    52.12    54.36
eigval :       61.68    63.63    69.24    72.71    78.33    82.33
eigval :       92.89    96.26   104.48   109.76   113.24   118.30
eigval :      126.38   138.96   140.78   152.71   159.36   173.08
eigval :      177.83   181.63   192.80   197.31   209.25   210.07
eigval :      220.56   222.48   226.38   228.22   231.06   237.10
eigval :      247.67   252.95   260.48   264.87   269.81   277.98
eigval :      281.19   288.60   299.15   313.59   320.80   321.22
eigval :      328.84   335.93   347.29   360.88   365.17   366.74
eigval :      374.34   377.38   379.19   380.94   384.56   386.70
eigval :      395.47   395.83   408.38   411.65   414.32   433.64
eigval :      435.45   442.71   444.30   456.68   461.01   470.69
eigval :      475.66   489.04   498.83   509.37   515.13   517.21
eigval :      518.01   525.19   530.70   543.92   564.22   570.14
eigval :      572.36   576.88   581.33   583.31   587.98   590.51
eigval :      594.59   597.89   602.14   612.31   619.59   622.50
eigval :      640.34   645.07   649.17   656.25   659.81   661.80
eigval :      665.04   672.44   683.85   684.84   688.83   691.95
eigval :      700.83   711.95   713.37   719.01   731.27   743.88
eigval :      750.82   758.50   759.34   769.74   778.95   784.52
eigval :      821.22   824.84   825.78   831.24   835.31   850.42
eigval :      852.74   856.54   860.48   870.88   871.03   874.09
eigval :      874.71   875.16   876.15   877.30   887.42   889.33
eigval :      892.76   895.23   898.38   900.04   907.56   909.86
eigval :      911.28   914.99   915.04   924.38   926.00   927.70
eigval :      928.29   929.10   929.64   931.55   940.69   959.72
eigval :      960.16   960.44   960.69   962.65   962.82   963.08
eigval :      969.69   973.91   991.29  1017.43  1023.84  1034.51
eigval :     1035.33  1035.60  1035.74  1065.46  1069.00  1076.60
eigval :     1079.51  1080.28  1081.76  1082.03  1097.43  1103.31
eigval :     1112.85  1117.27  1119.64  1121.81  1133.04  1138.77
eigval :     1140.70  1146.92  1154.12  1158.44  1178.34  1179.29
eigval :     1179.71  1180.94  1181.18  1184.79  1188.16  1189.58
eigval :     1196.36  1197.14  1204.00  1218.38  1219.52  1228.15
eigval :     1228.36  1230.36  1230.98  1233.90  1244.31  1244.98
eigval :     1248.65  1252.78  1272.70  1274.23  1278.80  1280.50
eigval :     1281.14  1282.47  1293.46  1297.00  1298.91  1307.15
eigval :     1314.41  1317.58  1319.11  1322.98  1327.86  1328.58
eigval :     1332.91  1351.59  1365.34  1368.92  1378.47  1382.46
eigval :     1390.11  1393.51  1396.35  1396.84  1401.58  1405.30
eigval :     1405.49  1406.64  1407.85  1410.09  1411.55  1426.11
eigval :     1427.68  1428.01  1428.41  1435.91  1442.85  1448.14
eigval :     1452.90  1463.28  1464.51  1469.01  1474.25  1477.01
eigval :     1486.21  1492.00  1492.04  1494.64  1494.77  1499.80
eigval :     1502.82  1504.74  1505.11  1514.41  1514.89  1518.45
eigval :     1522.69  1526.79  1534.59  1543.04  1546.82  1548.23
eigval :     1551.72  1554.43  1560.88  1563.53  1566.27  1579.11
eigval :     1581.19  1581.86  1582.29  1591.74  1593.30  3019.77
eigval :     3020.29  3021.63  3021.98  3026.54  3026.77  3028.46
eigval :     3029.00  3030.76  3030.94  3034.92  3035.43  3037.53
eigval :     3037.82  3046.68  3047.02  3050.19  3050.49  3069.76
eigval :     3070.88  3071.90  3073.44  3077.18  3078.09  3079.86
eigval :     3081.16  3081.28  3081.35  3082.13  3082.94  3083.74
eigval :     3085.24  3085.84  3087.72  3091.55  3092.83  3093.65
eigval :     3093.87  3094.25  3096.38  3097.89  3099.73  3102.83
eigval :     3106.67  3111.35  3112.98  3115.18  3137.94  3145.55

   temp. (K)  partition function   enthalpy   heat capacity  entropy
                                   cal/mol     cal/K/mol   cal/K/mol   J/K/mol
 298.15  VIB  0.384E+26            33843.516    213.258    209.701
         ROT  0.195E+09              888.752      2.981     40.911
         INT  0.747E+34            34732.269    216.239    250.612
         TR   0.246E+29             1481.254      4.968     46.128
         TOT                       36213.5224   221.2072   296.7395  1241.5581

       T/K    H(0)-H(T)+PV         H(T)/Eh          T*S/Eh         G(T)/Eh
   ------------------------------------------------------------------------
    298.15    0.577099E-01    0.971227E+00    0.140991E+00    0.830237E+00
   ------------------------------------------------------------------------

         :::::::::::::::::::::::::::::::::::::::::::::::::::::
         ::                  THERMODYNAMIC                  ::
         :::::::::::::::::::::::::::::::::::::::::::::::::::::
         :: total free energy        -172.214131481689 Eh   ::
         ::.................................................::
         :: total energy             -173.044368235293 Eh   ::
         :: zero point energy           0.913517343221 Eh   ::
         :: G(RRHO) w/o ZPVE           -0.083280589617 Eh   ::
         :: G(RRHO) contrib.            0.830236753604 Eh   ::
         :::::::::::::::::::::::::::::::::::::::::::::::::::::

           -------------------------------------------------
          | TOTAL ENERGY             -173.044368235293 Eh   |
          | TOTAL ENTHALPY           -172.073140970676 Eh   |
          | TOTAL FREE ENERGY        -172.214131481689 Eh   |
          | GRADIENT NORM               0.000053270967 Eh/α |
           -------------------------------------------------

 * finished run on 2025/07/18 at 03:02:42.892
