   * xtb version 6.7.1 (edcfbbe) compiled by 'albert@albert-system' on 2024-07-22

   ID    Z sym.   atoms
    1    6 C      1-10, 12-21, 23-25, 27-56, 58-66
    2    5 B      11
    3    8 O      22, 67
    4    7 N      26, 57
    5    1 H      68-116

          program call               : xtb data2507/gas/TRZ-pIC/TRZ-pIC_gas_S0_finalOpt.xtbopt.xyz --gfn 2 --spinpol --tblite --uhf 2 --ohess vtight --parallel 40 --molden --ceasefiles --namespace data2507/gas/TRZ-pIC/TRZ-pIC_gas_T1_preOpt
 * total energy  :  -173.0416702 Eh     change       -0.1904036E-07 Eh
 * total energy  :  -173.0431485 Eh     change       -0.1478242E-02 Eh
 * total energy  :  -173.0437569 Eh     change       -0.6084557E-03 Eh
 * total energy  :  -173.0438423 Eh     change       -0.8537743E-04 Eh
 * total energy  :  -173.0439947 Eh     change       -0.1524091E-03 Eh
 * total energy  :  -173.0440645 Eh     change       -0.6977514E-04 Eh
 * total energy  :  -173.0441394 Eh     change       -0.7492454E-04 Eh
 * total energy  :  -173.0441931 Eh     change       -0.5367741E-04 Eh
 * total energy  :  -173.0442167 Eh     change       -0.2361678E-04 Eh
 * total energy  :  -173.0442336 Eh     change       -0.1693504E-04 Eh
 * total energy  :  -173.0443486 Eh     change       -0.2160270E-05 Eh
 * total energy  :  -173.0443506 Eh     change       -0.2011109E-05 Eh
 * total energy  :  -173.0443524 Eh     change       -0.1724109E-05 Eh
 * total energy  :  -173.0443537 Eh     change       -0.1316147E-05 Eh
 * total energy  :  -173.0443547 Eh     change       -0.1050157E-05 Eh
 * total energy  :  -173.0443556 Eh     change       -0.8952597E-06 Eh
 * total energy  :  -173.0443565 Eh     change       -0.9166372E-06 Eh
 * total energy  :  -173.0443576 Eh     change       -0.1028278E-05 Eh
 * total energy  :  -173.0443576 Eh     change       -0.4640782E-08 Eh
   *** GEOMETRY OPTIMIZATION CONVERGED AFTER 44 ITERATIONS ***

 final structure:
================
116
 xtb: 6.7.1 (edcfbbe)
C            9.42275724620682        3.52413134723956        0.75786536172371
C            8.83466805343091        2.23695234046707        1.35268670652149
C            9.22150562256472        2.12460640065784        2.83409999840345
C            9.44644223322106        1.04514545932287        0.61065639707047
C            7.31847621386229        2.28718400147443        1.23711822728946
C            6.61644275162501        3.31358994962924        1.87470957153144
C            5.24729425474769        3.40715930737510        1.77039667528831
C            4.53138934384508        2.46482251533081        1.03497965508404
C            5.18775489948399        1.39154506827387        0.40818993730193
C            6.58573442937035        1.35920869763248        0.52185654492905
B            4.30623505581346        0.37684714829651       -0.35503521148164
C            4.59402241745721       -0.99326869758491       -1.01019295836451
C            5.78028180179376       -1.73384828345652       -0.90036803964668
C            5.98739987005143       -2.94739974944871       -1.52838946041560
C            7.28379138985415       -3.73450949083074       -1.40605266927659
C            7.88758326540863       -3.92495328170460       -2.80461041198564
C            8.32523213591367       -3.02946114781875       -0.53213170527957
C            6.98078799423230       -5.10295542064271       -0.77986260717934
C            4.94620455786017       -3.45786755224155       -2.30801182915867
C            3.75125040115042       -2.78453533624760       -2.42377716188861
C            3.56305521095229       -1.56678168306364       -1.77378726684877
O            2.32192254841341       -1.01875514600812       -1.94174837384001
C            1.93524048826201        0.06870981607804       -1.24007039087979
C            0.59460815435397        0.41844639371912       -1.30159661688038
C            0.13942941191438        1.48297044630627       -0.53173408071121
N           -1.23803775959102        1.75241958304870       -0.48378297508510
C           -1.81121669580774        2.93667550355021       -0.87457130681549
C           -1.19656368002353        4.09436573459971       -1.32248183135116
C           -2.00611148589380        5.17142310424761       -1.63678837232812
C           -3.39411991832987        5.08526072936865       -1.49442521945192
C           -4.01549955622951        3.92777773287543       -1.07507151119608
C           -3.22887735227506        2.80982103201194       -0.77821800697715
C           -3.48575189450749        1.48111784485234       -0.33715091126610
C           -4.69900317251849        0.77377108996234       -0.10211277006408
C           -6.00314230367356        1.37887089635553       -0.34346968201332
C           -6.34130270056545        1.86892570702605       -1.60759616018420
C           -7.59147479273949        2.40584604071601       -1.83984511967283
C           -8.52233336513337        2.48126520656062       -0.81532839375729
C           -8.18844663661983        2.02145465731666        0.44959620177973
C           -6.94468514687546        1.47384660035990        0.68487330824592
C           -4.53934410275410       -0.53623487082463        0.39300021025837
C           -3.28451506262442       -1.09825934774888        0.72926895359360
C           -2.07012868692508       -0.40344651452661        0.46729101774470
C           -0.77058264613187       -0.99702332716903        0.78392928205124
C           -0.36464062405858       -2.18078885298615        0.16558867337934
C            0.88561452859194       -2.71118353228695        0.41754324768667
C            1.74507459473743       -2.08224377208313        1.30361311082012
C            1.33588166599691       -0.92742028115969        1.95242165480949
C            0.09046275894421       -0.38866836979328        1.69830997126958
C           -2.22540655123392        0.87103763979073       -0.11037612214392
C           -3.54175500308945       -2.37182417453798        1.31129832909116
C           -2.75500191498758       -3.36581812127359        1.90217189272397
C           -3.36814647360909       -4.51315076267005        2.35854258797313
C           -4.74567211579033       -4.71200714151905        2.23740701906087
C           -5.55486999937043       -3.73767957649512        1.67837995221877
C           -4.95082955987258       -2.56962914537829        1.24571367652167
N           -5.52455390363323       -1.45399252244987        0.67617741004831
C           -6.87970670928987       -1.38746705034157        0.30932059537671
C           -7.22848029317176       -1.21206927480119       -1.02589205057114
C           -8.56039516098624       -1.14720583640076       -1.38458046079175
C           -9.54906187611191       -1.27241197891529       -0.42211917760131
C           -9.20209581308601       -1.47151975055053        0.90306250327062
C           -7.87116724444363       -1.53151317404000        1.27319496489843
C            1.01878550918680        2.26012472875998        0.21308241158309
C            2.36537685718802        1.92019131724663        0.23215820932276
C            2.84750710467865        0.80374269399194       -0.46701167760627
O            3.18253655369498        2.68556009191380        0.98920214495038
H            9.06796968436218        4.40337057981279        1.28840452123171
H            9.13682831298651        3.61899651676572       -0.28770347183169
H           10.50903600336360        3.50454568834026        0.81884232456233
H            8.87175779809935        2.98213897366119        3.40196853160977
H           10.30335587668781        2.06778168989850        2.93623237918891
H            8.78580894877627        1.22734522997001        3.26887778171520
H           10.52815343323641        1.06118006744324        0.72960921608986
H            9.22586370503963        1.09097983334768       -0.45336160954519
H            9.07937682895696        0.10366630525506        1.01278053013978
H            7.14167905206676        4.06002273173077        2.45084389243452
H            4.70656522968276        4.21145910440045        2.24595739800497
H            7.09650683178364        0.57065056346438       -0.00131842788668
H            6.55184582672839       -1.32395458298742       -0.27332317609866
H            8.82732759624224       -4.46938105339377       -2.73688593352079
H            8.08078984194718       -2.95805627414055       -3.26472002868400
H            7.21826350029283       -4.48267939105934       -3.45353184900454
H            7.95849641454457       -2.89387333904383        0.48277972812709
H            9.22771959092365       -3.63587073761664       -0.48397001940544
H            8.59430586629379       -2.06143954199329       -0.94847510968897
H            6.53737125827784       -4.97503317764851        0.20555096955154
H            7.89765549661143       -5.67934902125880       -0.67386250536591
H            6.28886961814485       -5.67405645425151       -1.39266720618408
H            5.05962004381453       -4.39962770677693       -2.82319010474817
H            2.93890749300245       -3.18823324308059       -3.00908075870017
H           -0.08861289488777       -0.15951005245264       -1.90240537955764
H           -0.12305392368114        4.15184277311053       -1.41730919080461
H           -1.56217705790686        6.09125974423336       -1.98458976555792
H           -3.99594518726663        5.95272885743071       -1.72377575683957
H           -5.08745481997762        3.89087908224268       -0.96936484208785
H           -5.61981540332827        1.79951738351768       -2.40887000881968
H           -7.84417168017829        2.76735382148740       -2.82628876174292
H           -9.49972375938970        2.90143342666017       -0.99931641843434
H           -8.90330207497430        2.09421033933186        1.25631200964615
H           -6.67999696997198        1.13403547549797        1.67601713827875
H           -1.02932240265355       -2.66298647606186       -0.53669726749763
H            1.19743962088156       -3.61398133890940       -0.08709462505665
H            2.72901532894784       -2.48802072076921        1.48598817716908
H            1.99542840021392       -0.44319705357990        2.65777999251727
H           -0.22918148468948        0.50660499880570        2.21174698136204
H           -1.69020747950733       -3.23508720728387        2.00484636866019
H           -2.76837690385369       -5.28501102797707        2.81848148263769
H           -5.18485302813779       -5.63217032409878        2.59065499131561
H           -6.62029105866388       -3.88468668407754        1.58387380893758
H           -6.45167813594723       -1.12525768929396       -1.77047689091060
H           -8.82790915062218       -1.00212732031628       -2.42014699921612
H          -10.58894406539606       -1.21775489112992       -0.70598936549444
H           -9.97046309122568       -1.57382721929537        1.65477810790184
H           -7.59262957250349       -1.66525431533543        2.30801817436641
H            0.66108214175503        3.08674180035719        0.80611582584536

 projected vibrational frequencies (cm⁻¹)
eigval :       -0.00    -0.00    -0.00     0.00     0.00     0.00
eigval :        9.12    11.23    11.90    21.88    24.90    28.30
eigval :       29.62    36.69    43.60    45.81    52.10    54.34
eigval :       61.63    63.82    68.98    72.76    77.90    82.49
eigval :       92.72    96.00   104.45   109.96   113.51   118.89
eigval :      126.31   138.95   141.17   152.68   159.54   173.15
eigval :      177.89   181.71   192.93   197.32   209.44   209.96
eigval :      220.60   222.55   226.39   228.19   231.05   237.11
eigval :      247.61   253.01   260.44   264.77   269.86   278.00
eigval :      281.14   288.83   299.31   313.62   320.87   321.24
eigval :      328.79   336.01   347.13   360.93   365.15   366.70
eigval :      374.33   377.27   379.28   380.88   384.57   386.56
eigval :      395.44   395.92   408.50   411.65   414.37   433.66
eigval :      435.53   442.70   444.29   456.65   460.90   470.72
eigval :      475.65   489.12   498.83   509.39   515.11   517.20
eigval :      518.01   525.28   530.74   543.96   564.21   570.19
eigval :      572.38   576.89   581.33   583.37   587.99   590.49
eigval :      594.59   597.84   602.15   612.32   619.51   622.54
eigval :      640.37   645.18   649.10   656.21   659.78   661.88
eigval :      665.06   672.47   683.88   684.88   688.86   691.94
eigval :      700.86   711.95   713.52   719.02   731.24   743.72
eigval :      750.82   758.58   759.38   769.74   778.93   784.32
eigval :      821.16   824.96   825.80   831.35   835.34   850.40
eigval :      852.82   856.65   860.61   871.07   871.23   874.13
eigval :      874.68   875.24   876.19   877.34   887.43   889.43
eigval :      892.82   895.32   898.49   900.05   907.53   909.90
eigval :      911.30   915.03   915.09   924.34   926.07   927.79
eigval :      928.28   929.04   929.78   931.57   940.60   959.64
eigval :      960.15   960.47   960.79   962.73   962.91   963.14
eigval :      969.66   973.69   991.29  1017.45  1023.91  1034.60
eigval :     1035.41  1035.65  1035.80  1065.48  1068.85  1076.62
eigval :     1079.48  1080.21  1081.68  1081.95  1097.66  1103.37
eigval :     1112.91  1117.23  1119.59  1121.78  1133.14  1138.82
eigval :     1140.74  1147.24  1154.26  1158.46  1178.42  1179.38
eigval :     1179.77  1181.00  1181.25  1184.89  1188.22  1189.67
eigval :     1196.45  1197.23  1204.13  1218.50  1219.52  1228.21
eigval :     1228.44  1230.42  1230.99  1233.95  1244.48  1245.15
eigval :     1248.81  1252.94  1272.63  1274.27  1278.81  1280.55
eigval :     1281.19  1282.50  1293.49  1297.08  1299.13  1307.16
eigval :     1314.45  1317.62  1319.12  1323.12  1327.90  1328.48
eigval :     1333.09  1351.62  1365.34  1368.83  1378.55  1382.57
eigval :     1390.15  1393.68  1396.53  1396.99  1401.64  1405.38
eigval :     1405.56  1406.58  1407.94  1410.02  1411.61  1426.31
eigval :     1427.98  1428.23  1428.73  1436.05  1442.94  1448.25
eigval :     1452.91  1463.50  1464.59  1469.01  1474.31  1477.08
eigval :     1486.25  1492.05  1492.21  1494.81  1494.99  1499.93
eigval :     1502.97  1504.83  1505.27  1514.54  1515.03  1518.50
eigval :     1522.73  1526.79  1534.67  1543.01  1546.78  1548.48
eigval :     1551.51  1554.55  1560.75  1563.59  1566.38  1579.03
eigval :     1581.20  1581.83  1582.39  1591.72  1593.49  3019.86
eigval :     3020.36  3021.75  3022.06  3026.68  3026.90  3028.55
eigval :     3029.10  3030.96  3031.18  3035.04  3035.53  3037.69
eigval :     3038.05  3047.03  3047.24  3050.41  3050.66  3069.79
eigval :     3070.99  3072.09  3073.50  3077.19  3078.06  3079.90
eigval :     3081.24  3081.39  3081.41  3082.30  3082.87  3083.92
eigval :     3085.43  3085.86  3087.66  3091.63  3092.90  3093.74
eigval :     3093.92  3094.40  3096.46  3098.00  3099.74  3102.88
eigval :     3106.66  3111.66  3113.09  3115.01  3138.01  3145.51

   temp. (K)  partition function   enthalpy   heat capacity  entropy
                                   cal/mol     cal/K/mol   cal/K/mol   J/K/mol
 298.15  VIB  0.376E+26            33841.538    213.241    209.659
         ROT  0.195E+09              888.752      2.981     40.914
         INT  0.733E+34            34730.290    216.222    250.573
         TR   0.246E+29             1481.254      4.968     46.128
         TOT                       36211.5440   221.1897   296.7005  1241.3950

       T/K    H(0)-H(T)+PV         H(T)/Eh          T*S/Eh         G(T)/Eh
   ------------------------------------------------------------------------
    298.15    0.577068E-01    0.971262E+00    0.140972E+00    0.830290E+00
   ------------------------------------------------------------------------

         :::::::::::::::::::::::::::::::::::::::::::::::::::::
         ::                  THERMODYNAMIC                  ::
         :::::::::::::::::::::::::::::::::::::::::::::::::::::
         :: total free energy        -172.214067689556 Eh   ::
         ::.................................................::
         :: total energy             -173.044357581919 Eh   ::
         :: zero point energy           0.913555119813 Eh   ::
         :: G(RRHO) w/o ZPVE           -0.083265227450 Eh   ::
         :: G(RRHO) contrib.            0.830289892363 Eh   ::
         :::::::::::::::::::::::::::::::::::::::::::::::::::::

           -------------------------------------------------
          | TOTAL ENERGY             -173.044357581919 Eh   |
          | TOTAL ENTHALPY           -172.073095693581 Eh   |
          | TOTAL FREE ENERGY        -172.214067689556 Eh   |
          | GRADIENT NORM               0.000075108235 Eh/α |
           -------------------------------------------------

 * finished run on 2025/07/18 at 02:42:19.616
