   * xtb version 6.7.1 (edcfbbe) compiled by 'albert@albert-system' on 2024-07-22

   ID    Z sym.   atoms
    1    6 C      1-10, 12-21, 23-25, 27-56, 58-66
    2    5 B      11
    3    8 O      22, 67
    4    7 N      26, 57
    5    1 H      68-116

          program call               : xtb data2507/gas/TRZ-pIC/TRZ-pIC_gas_S0_crest.xyz --gfn 2 --ohess vtight --parallel 40 --molden --ceasefiles --namespace data2507/gas/TRZ-pIC/TRZ-pIC_gas_S0_finalOpt
          :  Hamiltonian                  GFN2-xTB          :
 * total energy  :  -173.1293228 Eh     change       -0.9289437E-08 Eh
 * total energy  :  -173.1293240 Eh     change       -0.1216856E-05 Eh
 * total energy  :  -173.1293258 Eh     change       -0.1796605E-05 Eh
 * total energy  :  -173.1293295 Eh     change       -0.3744914E-05 Eh
 * total energy  :  -173.1293313 Eh     change       -0.1794333E-05 Eh
 * total energy  :  -173.1293330 Eh     change       -0.1681464E-05 Eh
 * total energy  :  -173.1293353 Eh     change       -0.2342693E-05 Eh
 * total energy  :  -173.1293372 Eh     change       -0.1811133E-05 Eh
 * total energy  :  -173.1293382 Eh     change       -0.1047633E-05 Eh
 * total energy  :  -173.1293394 Eh     change       -0.1153285E-05 Eh
 * total energy  :  -173.1293436 Eh     change       -0.7985115E-06 Eh
 * total energy  :  -173.1293443 Eh     change       -0.7084323E-06 Eh
 * total energy  :  -173.1293450 Eh     change       -0.6792779E-06 Eh
 * total energy  :  -173.1293456 Eh     change       -0.6467362E-06 Eh
 * total energy  :  -173.1293462 Eh     change       -0.5804548E-06 Eh
 * total energy  :  -173.1293467 Eh     change       -0.5209277E-06 Eh
 * total energy  :  -173.1293473 Eh     change       -0.5262326E-06 Eh
 * total energy  :  -173.1293479 Eh     change       -0.6131435E-06 Eh
 * total energy  :  -173.1293479 Eh     change       -0.6279635E-08 Eh
   *** GEOMETRY OPTIMIZATION CONVERGED AFTER 22 ITERATIONS ***

 final structure:
================
116
 xtb: 6.7.1 (edcfbbe)
C            9.40149483964736        3.58482946909862        0.75052899524305
C            8.84369499839044        2.28099452894883        1.33828065665602
C            9.25438642677520        2.15690009087071        2.81225382208527
C            9.46258615917805        1.10821308619620        0.57217468155073
C            7.32565802050673        2.30796856639782        1.24523896090583
C            6.61498759587002        3.31552121332047        1.90586075853824
C            5.24587374485413        3.39252474167963        1.82076041623576
C            4.53164259735035        2.45085735983700        1.07808308870276
C            5.19823866466820        1.39558496444013        0.43310020048951
C            6.59710750787016        1.37892205417459        0.52868371376897
B            4.32082317177182        0.37748349179459       -0.33167525569737
C            4.61968331946696       -0.98513322709921       -0.99920363156393
C            5.80992066520658       -1.71858599024919       -0.89166424734517
C            6.02538606454814       -2.92414038453766       -1.53026364644099
C            7.32268435167622       -3.70916229165468       -1.40854427622536
C            7.93399708142828       -3.88579307439482       -2.80564144146128
C            8.35727616378081       -3.00891759132583       -0.52275123885795
C            7.01878388474539       -5.08354220408887       -0.79590768891625
C            4.98876017134682       -3.43015769081837       -2.32144031246555
C            3.79297620252753       -2.76368113590225       -2.43705099085648
C            3.59307672009978       -1.55323159301837       -1.77161809402540
O            2.35287205961578       -1.01289061942757       -1.93417343731162
C            1.95568677233248        0.06199924016139       -1.21993957805837
C            0.61502942559628        0.41112808392018       -1.28623487684597
C            0.14774171071629        1.45766268007516       -0.50011613226173
N           -1.22822798310724        1.71981799623202       -0.46310167454334
C           -1.81693860460120        2.90793642576594       -0.83148336427363
C           -1.21234809392697        4.09040983780125       -1.23250021020569
C           -2.03061373628650        5.15669880437185       -1.54890269847952
C           -3.41693624869890        5.04938803711835       -1.46919311358413
C           -4.02291210017278        3.86669204512255       -1.09432720989356
C           -3.22297764079989        2.77257162601041       -0.78336208300847
C           -3.48904075827251        1.41932465666877       -0.37067461254710
C           -4.68255511556219        0.72939949255247       -0.15308893439635
C           -5.99601043623497        1.36110308805993       -0.38013740472033
C           -6.39605866758911        1.71586513739884       -1.66453322692409
C           -7.64188564738326        2.27528066112712       -1.87927825363556
C           -8.49938157412606        2.49188609092049       -0.81386477370098
C           -8.10117784118451        2.15772775996751        0.46919192003231
C           -6.85669549504706        1.59650219327365        0.68622931420233
C           -4.55241152721608       -0.57570904141086        0.31358348100421
C           -3.29102349059278       -1.15111227768341        0.62825573769051
C           -2.09589201579801       -0.46867186867534        0.39294486986718
C           -0.78778989730350       -1.06880202443029        0.72195234740358
C           -0.33117304784062       -2.18737010122559        0.03068089895795
C            0.91794047123241       -2.71558940042479        0.29915062319873
C            1.72455078530504       -2.13593052885065        1.26411140999269
C            1.26541868296868       -1.04082993861747        1.97646755887848
C            0.01527193579577       -0.51248458226491        1.71195128233288
C           -2.22454801936558        0.80867992058888       -0.14817061323487
C           -3.56470478129349       -2.43857315828198        1.21033610171548
C           -2.77409073270253       -3.44462971605522        1.75512749603797
C           -3.38455710236749       -4.58914295898466        2.22781246275309
C           -4.76602334070835       -4.75186237507126        2.15765776645204
C           -5.57597111950895       -3.76298679659109        1.63565347511893
C           -4.96869954317994       -2.60057174843397        1.18246274676936
N           -5.55113891427475       -1.47992235017200        0.63400796686052
C           -6.92199348907312       -1.36733659933340        0.34701792566178
C           -7.34942728506930       -1.18882441698458       -0.96437327713925
C           -8.69785309012931       -1.06856302949609       -1.23891343000588
C           -9.62763625709706       -1.14621068473088       -0.21554081308073
C           -9.20503539090252       -1.35103837826179        1.08670605543059
C           -7.85664715247035       -1.46071849321829        1.37194633188302
C            1.01985715575086        2.22326364728240        0.26394758644407
C            2.36979834468655        1.89651194418164        0.27797427245834
C            2.86004156860469        0.79259229040533       -0.43508195433786
O            3.18430946919718        2.65652246383875        1.04336920408623
H            9.04219034677340        4.45180194223832        1.29790481801680
H            9.09749759567827        3.68841145617696       -0.28909312596257
H           10.48865570412231        3.58133093476868        0.79387134482953
H            8.89918639123313        3.00110693969042        3.39641545444771
H           10.33837139251616        2.11754528895325        2.89702238676182
H            8.84110917936765        1.24681460803453        3.24219744059661
H           10.54546808571081        1.14048472794765        0.67478689174035
H            9.22522866782163        1.16334928106323       -0.48781447168926
H            9.11735173859874        0.15602902481365        0.96849510137341
H            7.13816931835306        4.06119374427105        2.48487560009689
H            4.70013041801987        4.18317380673538        2.31288877141148
H            7.11119630399779        0.60353813795982       -0.01103283446963
H            6.57634631539406       -1.31064371737035       -0.25676148324121
H            8.87491225735617       -4.42779748060729       -2.73715210726438
H            8.12692476519803       -2.91463734683662       -3.25681792967275
H            7.27034879659270       -4.44047213740038       -3.46290078273875
H            7.98411843046885       -2.88144525171648        0.49088791967679
H            9.26003410041616       -3.61455743882685       -0.47322113350469
H            8.62807504717535       -2.03768075220488       -0.93055354541215
H            6.57023278186374       -4.96535360633814        0.18837004019995
H            7.93627514789560       -5.65874926266721       -0.69035062035971
H            6.33141542408547       -5.65102201742639       -1.41709711699303
H            5.11046021863295       -4.36627010815065       -2.84492441124926
H            2.98523207704404       -3.16466507120682       -3.03030126438709
H           -0.06130779184265       -0.15665266945681       -1.90392942436841
H           -0.13777669098232        4.17122816456450       -1.29548826886409
H           -1.58782457808901        6.09148084750435       -1.85995210122705
H           -4.02755253448289        5.90697967825808       -1.70997256408921
H           -5.09762908084847        3.79726369186537       -1.03898442355876
H           -5.72457225097432        1.54452771551474       -2.49393274279572
H           -7.94548019494117        2.54231972624731       -2.88127004005748
H           -9.47447315036605        2.92453694031031       -0.98272788869374
H           -8.76385488221391        2.33332422589174        1.30397839826892
H           -6.54297716909562        1.33965358826896        1.68789260586289
H           -0.95797393826553       -2.63147472969814       -0.72942011038870
H            1.26925806812849       -3.57550090701802       -0.25235534578910
H            2.70869696283290       -2.53658407742836        1.45941160346819
H            1.88716712732752       -0.59317579554264        2.73825638581065
H           -0.34349369171575        0.34058800370396        2.26956466160531
H           -1.70312790430022       -3.33293783125603        1.81306921489205
H           -2.78130788606096       -5.37622003498597        2.65551002974313
H           -5.21207099466544       -5.66593343848622        2.52127097465227
H           -6.64678659193363       -3.88971717751005        1.57868936399057
H           -6.61946808612390       -1.14275713977824       -1.75843217031217
H           -9.02488284155963       -0.91926645243896       -2.25702689694765
H          -10.68067757094550       -1.05115994287348       -0.43358657067079
H           -9.92814634978948       -1.41763102046246        1.88623854278736
H           -7.51852684609094       -1.60309232921106        2.38787492129877
H            0.65550807425810        3.03971682943725        0.86668359419893

          :  Hamiltonian                  GFN2-xTB          :
         :: gradient norm              0.000062519264 Eh/a0 ::
         :: HOMO-LUMO gap              1.985624196749 eV    ::
         :: SCC energy              -176.201825407697 Eh    ::
         :: -> dispersion             -0.182967074598 Eh    ::
         :: repulsion energy           3.072477531860 Eh    ::

    * Orbital Energies and Occupations

         #    Occupation            Energy/Eh            Energy/eV
      -------------------------------------------------------------
         1        2.0000           -0.7269432             -19.7811
       ...           ...                  ...                  ...
       149        2.0000           -0.3989135             -10.8550
       150        2.0000           -0.3979654             -10.8292
       151        2.0000           -0.3969805             -10.8024
       152        2.0000           -0.3939920             -10.7211
       153        2.0000           -0.3901095             -10.6154
       154        2.0000           -0.3865257             -10.5179
       155        2.0000           -0.3863762             -10.5138
       156        2.0000           -0.3856187             -10.4932
       157        2.0000           -0.3814604             -10.3801
       158        2.0000           -0.3708994             -10.0927
       159        2.0000           -0.3646758              -9.9233
       160        2.0000           -0.3615235              -9.8376
       161        2.0000           -0.3420996              -9.3090 (HOMO)
       162                         -0.2691293              -7.3234 (LUMO)
       163                         -0.2519344              -6.8555
       164                         -0.2323106              -6.3215
       165                         -0.2316594              -6.3038
       166                         -0.2290679              -6.2333
       167                         -0.2287769              -6.2253
       168                         -0.2240155              -6.0958
       169                         -0.2205381              -6.0011
       170                         -0.2189663              -5.9584
       171                         -0.2175363              -5.9195
       172                         -0.2169372              -5.9032
       ...                                ...                  ...
       317                          0.7492673              20.3886
      -------------------------------------------------------------
                  HL-Gap            0.0729703 Eh            1.9856 eV

     #   Z          covCN         q      C6AA      α(0)
     1   6 C        3.762    -0.106    22.576     6.773
     2   6 C        3.903     0.025    20.090     6.371
     3   6 C        3.762    -0.106    22.577     6.773
     4   6 C        3.761    -0.108    22.608     6.778
     5   6 C        2.969     0.000    28.023     8.683
     6   6 C        2.928    -0.032    28.793     8.800
     7   6 C        2.913    -0.055    29.371     8.887
     8   6 C        2.877     0.135    25.056     8.206
     9   6 C        2.883    -0.092    30.320     9.027
    10   6 C        2.930    -0.044    29.102     8.847
    11   5 B        2.725     0.211    18.226     7.153
    12   6 C        2.883    -0.093    30.323     9.028
    13   6 C        2.930    -0.044    29.102     8.847
    14   6 C        2.969    -0.000    28.030     8.684
    15   6 C        3.903     0.026    20.089     6.371
    16   6 C        3.762    -0.106    22.577     6.773
    17   6 C        3.761    -0.108    22.605     6.778
    18   6 C        3.762    -0.106    22.570     6.772
    19   6 C        2.928    -0.032    28.795     8.800
    20   6 C        2.913    -0.055    29.357     8.885
    21   6 C        2.879     0.136    25.027     8.201
    22   8 O        1.711    -0.222    17.686     5.678
    23   6 C        2.876     0.141    24.917     8.183
    24   6 C        2.918    -0.080    29.996     8.981
    25   6 C        2.917     0.069    26.449     8.434
    26   7 N        2.804    -0.042    22.058     6.976
    27   6 C        3.073     0.048    26.852     8.496
    28   6 C        2.910    -0.052    29.300     8.876
    29   6 C        2.924    -0.033    28.831     8.805
    30   6 C        2.920    -0.042    29.051     8.839
    31   6 C        2.913    -0.035    28.874     8.811
    32   6 C        3.061    -0.017    28.362     8.733
    33   6 C        3.071    -0.024    28.526     8.757
    34   6 C        2.964    -0.018    28.464     8.751
    35   6 C        2.976     0.016    27.640     8.624
    36   6 C        2.925    -0.031    28.774     8.797
    37   6 C        2.919    -0.031    28.762     8.795
    38   6 C        2.920    -0.032    28.805     8.801
    39   6 C        2.919    -0.030    28.743     8.792
    40   6 C        2.925    -0.033    28.818     8.803
    41   6 C        3.068     0.034    27.174     8.548
    42   6 C        3.071    -0.024    28.538     8.759
    43   6 C        2.963    -0.017    28.438     8.747
    44   6 C        2.975     0.016    27.651     8.626
    45   6 C        2.925    -0.029    28.729     8.790
    46   6 C        2.919    -0.027    28.687     8.783
    47   6 C        2.920    -0.033    28.814     8.803
    48   6 C        2.919    -0.031    28.774     8.796
    49   6 C        2.925    -0.035    28.866     8.811
    50   6 C        3.066     0.033    27.193     8.551
    51   6 C        3.061    -0.017    28.369     8.734
    52   6 C        2.913    -0.035    28.877     8.812
    53   6 C        2.920    -0.043    29.056     8.839
    54   6 C        2.924    -0.034    28.841     8.807
    55   6 C        2.910    -0.053    29.314     8.878
    56   6 C        3.076     0.048    26.854     8.496
    57   7 N        2.801    -0.049    22.176     6.994
    58   6 C        2.915     0.067    26.504     8.442
    59   6 C        2.923    -0.039    28.961     8.825
    60   6 C        2.920    -0.027    28.676     8.782
    61   6 C        2.920    -0.033    28.811     8.802
    62   6 C        2.920    -0.029    28.714     8.787
    63   6 C        2.923    -0.041    29.013     8.833
    64   6 C        2.916    -0.082    30.047     8.989
    65   6 C        2.874     0.140    24.942     8.187
    66   6 C        2.889    -0.126    31.196     9.157
    67   8 O        1.711    -0.222    17.682     5.678
    68   1 H        0.925     0.036     2.497     2.471
    69   1 H        0.925     0.034     2.532     2.488
    70   1 H        0.925     0.037     2.484     2.464
    71   1 H        0.925     0.037     2.496     2.470
    72   1 H        0.925     0.037     2.484     2.464
    73   1 H        0.925     0.034     2.531     2.488
    74   1 H        0.925     0.037     2.493     2.469
    75   1 H        0.925     0.035     2.511     2.478
    76   1 H        0.925     0.036     2.499     2.472
    77   1 H        0.926     0.035     2.512     2.478
    78   1 H        0.926     0.043     2.411     2.428
    79   1 H        0.926     0.046     2.374     2.410
    80   1 H        0.926     0.045     2.377     2.411
    81   1 H        0.925     0.037     2.484     2.465
    82   1 H        0.925     0.034     2.532     2.488
    83   1 H        0.925     0.036     2.496     2.471
    84   1 H        0.925     0.035     2.513     2.479
    85   1 H        0.925     0.037     2.494     2.470
    86   1 H        0.925     0.036     2.500     2.472
    87   1 H        0.925     0.034     2.535     2.490
    88   1 H        0.925     0.037     2.485     2.465
    89   1 H        0.925     0.036     2.498     2.472
    90   1 H        0.926     0.035     2.514     2.480
    91   1 H        0.926     0.042     2.420     2.433
    92   1 H        0.926     0.052     2.295     2.369
    93   1 H        0.926     0.028     2.620     2.531
    94   1 H        0.926     0.028     2.617     2.530
    95   1 H        0.926     0.026     2.648     2.545
    96   1 H        0.926     0.031     2.572     2.508
    97   1 H        0.926     0.031     2.571     2.507
    98   1 H        0.926     0.029     2.602     2.522
    99   1 H        0.926     0.028     2.616     2.530
   100   1 H        0.926     0.028     2.621     2.532
   101   1 H        0.926     0.027     2.632     2.537
   102   1 H        0.926     0.033     2.550     2.497
   103   1 H        0.926     0.030     2.584     2.514
   104   1 H        0.926     0.025     2.662     2.551
   105   1 H        0.926     0.026     2.642     2.542
   106   1 H        0.926     0.028     2.617     2.530
   107   1 H        0.926     0.031     2.569     2.506
   108   1 H        0.926     0.025     2.654     2.548
   109   1 H        0.926     0.027     2.632     2.537
   110   1 H        0.926     0.025     2.661     2.551
   111   1 H        0.926     0.038     2.475     2.460
   112   1 H        0.926     0.035     2.513     2.479
   113   1 H        0.926     0.035     2.519     2.482
   114   1 H        0.926     0.036     2.505     2.475
   115   1 H        0.926     0.040     2.445     2.445
   116   1 H        0.926     0.055     2.262     2.352

molecular dipole:
                 x           y           z       tot (Debye)
 q only:        0.819      -0.335      -0.079
   full:        0.691      -0.290      -0.086       1.917

 projected vibrational frequencies (cm⁻¹)
eigval :       -0.00    -0.00    -0.00     0.00     0.00     0.00
eigval :        9.10    11.73    12.21    22.21    26.37    28.57
eigval :       30.79    37.32    43.89    46.86    53.78    54.52
eigval :       60.55    62.66    66.25    71.26    77.81    80.15
eigval :       92.06    97.04   103.77   109.40   113.56   121.01
eigval :      127.37   135.58   141.73   152.74   159.99   172.46
eigval :      177.69   187.55   197.09   198.90   209.14   210.18
eigval :      220.46   221.62   226.09   230.15   231.59   239.10
eigval :      246.34   250.40   263.71   265.92   272.30   280.80
eigval :      287.09   293.27   300.08   320.96   321.74   328.67
eigval :      333.47   341.66   349.95   361.53   365.33   366.93
eigval :      373.32   377.59   379.01   383.49   386.43   389.14
eigval :      394.69   397.64   413.18   415.81   425.11   435.22
eigval :      437.43   444.56   445.38   464.58   468.70   472.30
eigval :      477.38   490.19   504.28   516.35   517.99   520.97
eigval :      522.88   527.61   539.15   542.37   567.81   570.75
eigval :      581.78   582.88   587.61   588.57   590.98   592.90
eigval :      598.06   604.91   615.22   624.74   628.85   630.48
eigval :      644.58   648.88   652.38   660.15   665.37   667.39
eigval :      674.79   680.31   688.37   694.84   701.63   704.01
eigval :      709.89   715.58   715.95   720.31   731.87   749.73
eigval :      755.81   772.65   775.25   775.41   787.37   788.20
eigval :      824.88   829.41   829.93   834.29   841.36   862.23
eigval :      865.85   868.98   874.20   874.45   876.70   877.97
eigval :      878.93   880.55   881.17   884.72   895.40   899.57
eigval :      901.97   903.36   904.99   906.07   910.00   921.57
eigval :      921.89   922.05   922.24   929.20   929.85   930.50
eigval :      930.84   931.77   932.58   933.67   942.36   960.15
eigval :      960.52   961.12   963.17   963.42   963.45   969.84
eigval :      971.86   979.23   998.34  1024.64  1034.77  1034.93
eigval :     1035.73  1035.86  1036.81  1076.62  1077.74  1079.02
eigval :     1080.40  1083.17  1084.13  1085.73  1104.80  1110.04
eigval :     1117.55  1119.03  1121.33  1122.33  1132.95  1139.22
eigval :     1143.17  1164.43  1169.34  1178.87  1179.34  1180.79
eigval :     1181.24  1182.63  1182.86  1187.88  1191.26  1196.86
eigval :     1198.62  1208.35  1220.10  1222.81  1228.30  1228.67
eigval :     1230.70  1233.13  1235.73  1241.91  1245.93  1251.34
eigval :     1263.23  1273.35  1274.27  1278.89  1281.19  1281.76
eigval :     1283.85  1294.34  1297.12  1301.65  1309.33  1314.23
eigval :     1316.22  1319.48  1321.78  1323.62  1333.82  1338.74
eigval :     1348.64  1361.36  1362.78  1369.38  1385.19  1392.00
eigval :     1400.37  1402.28  1406.25  1406.33  1406.41  1411.79
eigval :     1413.56  1428.69  1429.33  1429.97  1430.78  1432.45
eigval :     1434.42  1437.15  1449.82  1456.28  1468.94  1474.27
eigval :     1477.62  1480.02  1482.51  1484.96  1492.07  1492.18
eigval :     1494.51  1494.62  1499.86  1502.87  1505.05  1505.43
eigval :     1514.80  1515.06  1518.60  1522.48  1530.14  1537.42
eigval :     1546.46  1552.07  1563.76  1568.66  1578.68  1581.34
eigval :     1582.17  1583.10  1585.34  1587.18  1597.15  1598.08
eigval :     1599.71  1601.44  1601.73  1604.00  1605.64  3021.61
eigval :     3022.05  3023.94  3024.11  3026.91  3027.10  3030.41
eigval :     3030.81  3031.26  3031.48  3035.26  3035.68  3037.98
eigval :     3038.43  3047.44  3047.61  3051.09  3051.48  3070.00
eigval :     3070.14  3072.00  3072.85  3074.83  3075.88  3077.40
eigval :     3078.89  3079.21  3081.31  3082.40  3083.19  3083.69
eigval :     3083.91  3084.31  3084.95  3088.66  3091.20  3091.52
eigval :     3091.71  3093.37  3093.72  3096.08  3096.72  3099.28
eigval :     3109.19  3109.70  3109.80  3115.76  3136.63  3143.41

   temp. (K)  partition function   enthalpy   heat capacity  entropy
                                   cal/mol     cal/K/mol   cal/K/mol   J/K/mol
 298.15  VIB  0.258E+26            33620.671    211.684    208.451
         ROT  0.195E+09              888.752      2.981     40.917
         INT  0.504E+34            34509.423    214.665    249.368
         TR   0.246E+29             1481.254      4.968     46.128
         TOT                       35990.6773   219.6335   295.4955  1236.3530

       T/K    H(0)-H(T)+PV         H(T)/Eh          T*S/Eh         G(T)/Eh
   ------------------------------------------------------------------------
    298.15    0.573548E-01    0.975155E+00    0.140399E+00    0.834755E+00
   ------------------------------------------------------------------------

         :::::::::::::::::::::::::::::::::::::::::::::::::::::
         ::                  THERMODYNAMIC                  ::
         :::::::::::::::::::::::::::::::::::::::::::::::::::::
         :: total free energy        -172.294592551693 Eh   ::
         ::.................................................::
         :: total energy             -173.129347875837 Eh   ::
         :: zero point energy           0.917799962143 Eh   ::
         :: G(RRHO) w/o ZPVE           -0.083044637999 Eh   ::
         :: G(RRHO) contrib.            0.834755324144 Eh   ::
         :::::::::::::::::::::::::::::::::::::::::::::::::::::

           -------------------------------------------------
          | TOTAL ENERGY             -173.129347875837 Eh   |
          | TOTAL ENTHALPY           -172.154193118645 Eh   |
          | TOTAL FREE ENERGY        -172.294592551693 Eh   |
          | GRADIENT NORM               0.000062509029 Eh/α |
          | HOMO-LUMO GAP               1.985623999724 eV   |
           -------------------------------------------------

 * finished run on 2025/07/18 at 02:41:55.998
