   * xtb version 6.7.1 (edcfbbe) compiled by 'albert@albert-system' on 2024-07-22

   ID    Z sym.   atoms
    1    7 N      1, 21
    2    6 C      2-20, 22-45
    3    1 H      46-75

          program call               : xtb data2507/toluene/TPB-AC/TPB-AC_toluene_T1_crest.xyz --gfn 2 --uhf 2 --gbsa toluene --ohess vtight --parallel 40 --molden --ceasefiles --namespace data2507/toluene/TPB-AC/TPB-AC_toluene_T1_finalOpt
      * Solvation model:               GBSA
        Solvent                        toluene
        Solvent mass                       9.2140E+01 g/mol
          :  Hamiltonian                  GFN2-xTB          :
 * total energy  :  -113.1398444 Eh     change       -0.6666596E-08 Eh
 * total energy  :  -113.1399449 Eh     change       -0.1005426E-03 Eh
 * total energy  :  -113.1399969 Eh     change       -0.5193933E-04 Eh
 * total energy  :  -113.1400161 Eh     change       -0.1923277E-04 Eh
 * total energy  :  -113.1400388 Eh     change       -0.2272156E-04 Eh
 * total energy  :  -113.1400593 Eh     change       -0.2044469E-04 Eh
 * total energy  :  -113.1400804 Eh     change       -0.2109003E-04 Eh
 * total energy  :  -113.1400983 Eh     change       -0.1793777E-04 Eh
 * total energy  :  -113.1401090 Eh     change       -0.1075247E-04 Eh
 * total energy  :  -113.1401189 Eh     change       -0.9883714E-05 Eh
 * total energy  :  -113.1401918 Eh     change       -0.2476188E-05 Eh
 * total energy  :  -113.1401937 Eh     change       -0.1916668E-05 Eh
 * total energy  :  -113.1401950 Eh     change       -0.1306066E-05 Eh
 * total energy  :  -113.1401966 Eh     change       -0.1627878E-05 Eh
 * total energy  :  -113.1401972 Eh     change       -0.6220771E-06 Eh
 * total energy  :  -113.1401980 Eh     change       -0.7249292E-06 Eh
 * total energy  :  -113.1401983 Eh     change       -0.3489002E-06 Eh
 * total energy  :  -113.1401986 Eh     change       -0.2753801E-06 Eh
 * total energy  :  -113.1401986 Eh     change       -0.8044722E-08 Eh
   *** GEOMETRY OPTIMIZATION CONVERGED AFTER 44 ITERATIONS ***

 final structure:
================
75
 xtb: 6.7.1 (edcfbbe)
N          -10.27620425731140        1.11683976767639       -0.24097584661801
C           -9.12815211774261        0.98497811707410       -0.19981290850165
C           -7.74476554951942        0.82487549001839       -0.14883096289335
C           -7.11247166102363       -0.21580822473779       -0.86115139292842
C           -5.75724424663901       -0.37737577437060       -0.79772273486483
C           -4.93929139599473        0.48944231715864       -0.02981571305330
C           -3.51927139471653        0.32617094573524        0.03996618453494
C           -2.68256391230556        1.45592079389794        0.12702967203183
C           -1.31515753337988        1.39667377572570        0.01165597141475
C           -0.56773563945589        2.64826667944319       -0.12398471958430
C           -0.82708808125476        3.73039638842123        0.72057594551287
C           -0.13694658858695        4.91830632922007        0.57718969984899
C            0.81287978645825        5.05777792834446       -0.42334976143636
C            1.06585189001314        3.99815594056575       -1.28073509794619
C            0.38738349483041        2.80439506333499       -1.13318439411330
C           -0.66929873425580        0.11424570082564       -0.12472795377700
C            0.74785386020034       -0.04763896417245       -0.06082319353145
C            1.57282206263712        0.81649157077328        0.70452032976750
C            2.92932711492397        0.66156582978242        0.74874666262675
C            3.56241628776201       -0.37411468560627        0.03489646179318
N            4.93766257972987       -0.52079613771757        0.06602880533090
C            5.76292947162781        0.60481163998374        0.17022639696275
C            5.43349076243349        1.78469513649708       -0.50120500030982
C            6.25107311574989        2.89234520429455       -0.39566979513792
C            7.40389726419386        2.84282582485772        0.37379968395521
C            7.73624106817690        1.67254997015144        1.03975587273268
C            6.92489676328595        0.55916132988494        0.94391566811637
C            5.51465571311290       -1.79368535516606       -0.00580361182552
C            4.91812797220886       -2.87683202895803        0.64422241699709
C            5.49150350889915       -4.13087607904338        0.56840089076062
C            6.66297030505568       -4.32490420644191       -0.14802388518252
C            7.25994012352613       -3.25174639871428       -0.79284855140044
C            6.69427151897916       -1.99376808140232       -0.72670961452207
C            2.75549695172425       -1.26153691664310       -0.70476572736286
C            1.39834696924710       -1.10804628549429       -0.74202667435717
C           -1.50648574877877       -1.01662974116540       -0.20718952381874
C           -2.87242791347580       -0.95734700647110       -0.08528406063598
C           -3.61608581055352       -2.21262909460759        0.05478317677868
C           -3.35798584906294       -3.29528798131366       -0.78857485970828
C           -4.03749839921580       -4.48825736304565       -0.63418469662051
C           -4.97653691278270       -4.63104239291892        0.37528529684325
C           -5.22954665275176       -3.56948349265118        1.23071029384430
C           -4.55969215511929       -2.37238897277718        1.07318420116522
C           -5.58872363450906        1.54947219642700        0.65154661203529
C           -6.94503901650229        1.70776227670996        0.60793882051579
H           -7.71686951774824       -0.87718306166680       -1.46684419054752
H           -5.29363377632328       -1.15538618329530       -1.38451095039971
H           -3.14812978267933        2.43046258659493        0.15793851974546
H           -1.55511618628876        3.62178565833427        1.51209877899491
H           -0.33921742540895        5.74049260540264        1.24889202033590
H            1.34771601275288        5.98926668764859       -0.53675256145016
H            1.79254507267523        4.10788736756408       -2.07299234470675
H            0.57155217196202        1.98897554399196       -1.81756147128823
H            1.11177084143977        1.58049612268666        1.30985789383230
H            3.52696756771054        1.31551228288785        1.36665783066955
H            4.54461592122305        1.81649738201818       -1.11323698272376
H            5.99124534099643        3.79772571373161       -0.92346850459625
H            8.04054122032902        3.71076094397601        0.45271772407697
H            8.62950706234944        1.62983774151788        1.64487393677175
H            7.17566716777776       -0.34685612848362        1.47530620026740
H            4.01669323466696       -2.72124777057785        1.21827378974107
H            5.02586776328058       -4.96032334381131        1.07952470839309
H            7.10841317440693       -5.30642207853335       -0.20335307029704
H            8.16851433245009       -3.39789770965626       -1.35763845492863
H            7.15100579038823       -1.16152245403219       -1.24145079951553
H            3.22709413413688       -2.04642646153914       -1.27787986443386
H            0.81275303433224       -1.77214697758196       -1.35885269633534
H           -1.04353223687341       -1.99230501764202       -0.23810718428264
H           -2.64071989859795       -3.18405703837238       -1.58963290943158
H           -3.83784316815376       -5.31105521824632       -1.30613584810873
H           -5.50790099783226       -5.56383372545025        0.49547166075473
H           -5.95405723530341       -3.67708414817572        2.02557849250622
H           -4.75220308401589       -1.55352414721899        1.75155997370472
H           -5.00351283789607        2.21999793720177        1.26362141065988
H           -7.42503576190208        2.50663257263505        1.15678525334386

          :  Hamiltonian                  GFN2-xTB          :
         :: gradient norm              0.000136371733 Eh/a0 ::
         :: HOMO-LUMO gap              0.725839982394 eV    ::
         :: SCC energy              -115.340252432549 Eh    ::
         :: -> dispersion             -0.104448644122 Eh    ::
         :: -> Gsolv                  -0.057250232093 Eh    ::
         :: repulsion energy           2.200053828760 Eh    ::

    * Orbital Energies and Occupations

         #    Occupation            Energy/Eh            Energy/eV
      -------------------------------------------------------------
         1        2.0000           -0.6848087             -18.6346
       ...           ...                  ...                  ...
        95        2.0000           -0.4164236             -11.3315
        96        2.0000           -0.4131339             -11.2419
        97        2.0000           -0.4084058             -11.1133
        98        2.0000           -0.4065657             -11.0632
        99        2.0000           -0.4054086             -11.0317
       100        2.0000           -0.4046287             -11.0105
       101        2.0000           -0.4021113             -10.9420
       102        2.0000           -0.4015997             -10.9281
       103        2.0000           -0.3945914             -10.7374
       104        2.0000           -0.3859856             -10.5032
       105        1.9999           -0.3724260             -10.1342
       106        1.0001           -0.3553455              -9.6694
       107        1.0000           -0.2775825              -7.5534 (HOMO)
       108        0.0000           -0.2509084              -6.8276 (LUMO)
       109                         -0.2451889              -6.6719
       110                         -0.2448315              -6.6622
       111                         -0.2390099              -6.5038
       112                         -0.2343840              -6.3779
       113                         -0.2300850              -6.2609
       114                         -0.2233201              -6.0768
       115                         -0.2231261              -6.0716
       116                         -0.2213350              -6.0228
       117                         -0.2196984              -5.9783
       118                         -0.2152836              -5.8582
       ...                                ...                  ...
       210                          1.1681781              31.7877
      -------------------------------------------------------------
                  HL-Gap            0.0266741 Eh            0.7258 eV

     #   Z          covCN         q      C6AA      α(0)
     1   7 N        0.911    -0.338    28.693     7.747
     2   6 C        1.911     0.104    28.520     8.625
     3   6 C        2.969    -0.010    28.265     8.721
     4   6 C        2.918    -0.029    28.730     8.790
     5   6 C        2.918    -0.035    28.877     8.812
     6   6 C        2.971     0.003    27.960     8.673
     7   6 C        2.970    -0.000    28.036     8.685
     8   6 C        2.925    -0.043    29.062     8.841
     9   6 C        2.970     0.003    27.960     8.673
    10   6 C        2.978     0.014    27.685     8.631
    11   6 C        2.924    -0.035    28.871     8.812
    12   6 C        2.917    -0.030    28.747     8.792
    13   6 C        2.919    -0.032    28.790     8.799
    14   6 C        2.917    -0.030    28.754     8.793
    15   6 C        2.924    -0.031    28.778     8.797
    16   6 C        2.970    -0.008    28.212     8.712
    17   6 C        2.971     0.016    27.661     8.627
    18   6 C        2.918    -0.032    28.808     8.802
    19   6 C        2.914    -0.042    29.052     8.838
    20   6 C        2.925     0.055    26.770     8.485
    21   7 N        2.752    -0.023    21.698     6.918
    22   6 C        2.927     0.062    26.614     8.460
    23   6 C        2.921    -0.040    28.983     8.828
    24   6 C        2.918    -0.025    28.638     8.776
    25   6 C        2.919    -0.030    28.743     8.792
    26   6 C        2.919    -0.026    28.642     8.776
    27   6 C        2.921    -0.041    29.011     8.833
    28   6 C        2.927     0.062    26.612     8.460
    29   6 C        2.921    -0.040    28.992     8.830
    30   6 C        2.918    -0.026    28.641     8.776
    31   6 C        2.919    -0.030    28.742     8.792
    32   6 C        2.918    -0.025    28.640     8.776
    33   6 C        2.921    -0.041    29.009     8.832
    34   6 C        2.914    -0.042    29.038     8.836
    35   6 C        2.919    -0.036    28.892     8.814
    36   6 C        2.925    -0.042    29.038     8.837
    37   6 C        2.970    -0.003    28.101     8.695
    38   6 C        2.978     0.013    27.711     8.635
    39   6 C        2.924    -0.037    28.931     8.821
    40   6 C        2.917    -0.031    28.781     8.797
    41   6 C        2.919    -0.034    28.836     8.806
    42   6 C        2.917    -0.031    28.766     8.795
    43   6 C        2.924    -0.031    28.781     8.798
    44   6 C        2.919    -0.039    28.970     8.826
    45   6 C        2.918    -0.030    28.743     8.792
    46   1 H        0.925     0.018     2.764     2.600
    47   1 H        0.926     0.028     2.614     2.528
    48   1 H        0.926     0.031     2.567     2.505
    49   1 H        0.926     0.030     2.583     2.513
    50   1 H        0.926     0.031     2.569     2.507
    51   1 H        0.926     0.032     2.554     2.499
    52   1 H        0.926     0.032     2.554     2.499
    53   1 H        0.926     0.031     2.578     2.511
    54   1 H        0.926     0.040     2.450     2.448
    55   1 H        0.926     0.040     2.450     2.448
    56   1 H        0.926     0.045     2.388     2.416
    57   1 H        0.926     0.044     2.391     2.418
    58   1 H        0.926     0.043     2.409     2.427
    59   1 H        0.926     0.045     2.389     2.417
    60   1 H        0.926     0.044     2.399     2.422
    61   1 H        0.926     0.044     2.390     2.417
    62   1 H        0.926     0.044     2.394     2.420
    63   1 H        0.926     0.043     2.409     2.427
    64   1 H        0.926     0.045     2.387     2.416
    65   1 H        0.926     0.044     2.395     2.420
    66   1 H        0.926     0.042     2.417     2.431
    67   1 H        0.926     0.042     2.416     2.431
    68   1 H        0.926     0.036     2.509     2.477
    69   1 H        0.926     0.031     2.566     2.505
    70   1 H        0.926     0.031     2.578     2.511
    71   1 H        0.926     0.029     2.607     2.525
    72   1 H        0.926     0.026     2.642     2.542
    73   1 H        0.926     0.025     2.664     2.552
    74   1 H        0.926     0.030     2.589     2.516
    75   1 H        0.925     0.020     2.736     2.587

molecular dipole:
                 x           y           z       tot (Debye)
 q only:        8.681      -0.767       0.114
   full:        8.926      -0.795       0.153      22.780

 projected vibrational frequencies (cm⁻¹)
eigval :       -0.00    -0.00    -0.00     0.00     0.00     0.00
eigval :       12.10    16.28    18.45    30.23    34.13    44.65
eigval :       46.09    50.23    58.68    60.13    64.63    68.28
eigval :       72.43    78.15    89.06   104.35   116.59   124.99
eigval :      140.27   153.01   159.51   185.82   204.04   206.04
eigval :      216.19   232.41   236.29   254.25   268.56   283.86
eigval :      305.96   311.91   331.21   348.70   360.56   372.12
eigval :      374.23   379.10   379.85   383.29   387.46   398.44
eigval :      410.22   420.93   442.56   452.25   473.21   477.32
eigval :      485.85   503.00   513.00   520.13   534.53   551.98
eigval :      573.28   582.06   584.26   585.16   585.68   590.65
eigval :      594.52   605.42   613.58   617.01   631.25   649.37
eigval :      659.97   661.56   668.70   670.88   671.84   679.21
eigval :      694.25   707.54   735.74   754.62   757.65   759.88
eigval :      760.54   779.43   799.90   811.54   836.55   840.69
eigval :      861.66   866.62   870.67   871.20   872.16   875.90
eigval :      881.96   896.67   897.34   897.83   898.60   907.49
eigval :      907.77   909.00   912.21   913.89   918.85   928.30
eigval :      928.65   928.87   928.90   929.25   929.34   930.06
eigval :      930.80   950.20   965.51   977.28   985.76   997.05
eigval :     1000.56  1012.58  1042.16  1065.49  1077.84  1079.38
eigval :     1082.95  1083.55  1119.53  1120.70  1121.18  1122.10
eigval :     1139.44  1143.40  1167.89  1176.19  1178.05  1181.04
eigval :     1181.44  1181.99  1188.27  1190.84  1197.03  1199.65
eigval :     1215.06  1225.05  1237.09  1250.67  1255.12  1261.13
eigval :     1271.04  1271.95  1272.93  1276.92  1280.97  1283.18
eigval :     1291.62  1312.55  1315.11  1316.32  1317.87  1319.06
eigval :     1324.32  1326.15  1347.53  1357.25  1374.39  1379.89
eigval :     1423.59  1425.72  1428.29  1431.29  1436.15  1436.63
eigval :     1443.90  1445.69  1450.97  1452.90  1456.00  1457.76
eigval :     1465.17  1469.66  1479.89  1515.47  1543.74  1562.18
eigval :     1562.38  1564.87  1566.54  1574.76  1580.26  1582.46
eigval :     1585.06  1595.86  2276.24  3061.90  3063.93  3064.91
eigval :     3065.36  3066.06  3067.71  3073.74  3075.52  3076.46
eigval :     3076.80  3077.41  3079.30  3079.62  3080.86  3081.38
eigval :     3082.04  3082.11  3082.39  3083.60  3086.71  3088.77
eigval :     3089.29  3091.09  3092.71  3094.26  3095.23  3096.66
eigval :     3100.14  3101.48  3105.90

   temp. (K)  partition function   enthalpy   heat capacity  entropy
                                   cal/mol     cal/K/mol   cal/K/mol   J/K/mol
 298.15  VIB  0.811E+17            21673.432    135.870    136.007
         ROT  0.787E+08              888.752      2.981     39.111
         INT  0.638E+25            22562.184    138.851    175.118
         TR   0.133E+29             1481.254      4.968     44.910
         TOT                       24043.4380   143.8190   220.0281   920.5977

       T/K    H(0)-H(T)+PV         H(T)/Eh          T*S/Eh         G(T)/Eh
   ------------------------------------------------------------------------
    298.15    0.383157E-01    0.615816E+00    0.104542E+00    0.511273E+00
   ------------------------------------------------------------------------

         :::::::::::::::::::::::::::::::::::::::::::::::::::::
         ::                  THERMODYNAMIC                  ::
         :::::::::::::::::::::::::::::::::::::::::::::::::::::
         :: total free energy        -112.628925352393 Eh   ::
         ::.................................................::
         :: total energy             -113.140198601363 Eh   ::
         :: zero point energy           0.577500057726 Eh   ::
         :: G(RRHO) w/o ZPVE           -0.066226808756 Eh   ::
         :: G(RRHO) contrib.            0.511273248970 Eh   ::
         :::::::::::::::::::::::::::::::::::::::::::::::::::::

           -------------------------------------------------
          | TOTAL ENERGY             -113.140198601363 Eh   |
          | TOTAL ENTHALPY           -112.524382886233 Eh   |
          | TOTAL FREE ENERGY        -112.628925352393 Eh   |
          | GRADIENT NORM               0.000135839936 Eh/α |
          | HOMO-LUMO GAP               0.725839567315 eV   |
           -------------------------------------------------

 * finished run on 2025/09/09 at 05:26:47.020
