   * xtb version 6.7.1 (edcfbbe) compiled by 'albert@albert-system' on 2024-07-22

   ID    Z sym.   atoms
    1    7 N      1, 21
    2    6 C      2-20, 22-45
    3    1 H      46-75

          program call               : xtb data2507/toluene/TPB-AC/TPB-AC_toluene_S0_finalOpt.xtbopt.xyz --gfn 2 --uhf 2 --gbsa toluene --ohess vtight --parallel 40 --molden --ceasefiles --namespace data2507/toluene/TPB-AC/TPB-AC_toluene_T1_preOpt
      * Solvation model:               GBSA
        Solvent                        toluene
        Solvent mass                       9.2140E+01 g/mol
          :  Hamiltonian                  GFN2-xTB          :
 * total energy  :  -113.1276787 Eh     change       -0.8659467E-07 Eh
 * total energy  :  -113.1329721 Eh     change       -0.5293482E-02 Eh
 * total energy  :  -113.1349936 Eh     change       -0.2021442E-02 Eh
 * total energy  :  -113.1356430 Eh     change       -0.6494373E-03 Eh
 * total energy  :  -113.1363828 Eh     change       -0.7397640E-03 Eh
 * total energy  :  -113.1369681 Eh     change       -0.5852823E-03 Eh
 * total energy  :  -113.1374647 Eh     change       -0.4966404E-03 Eh
 * total energy  :  -113.1377657 Eh     change       -0.3009728E-03 Eh
 * total energy  :  -113.1379633 Eh     change       -0.1976546E-03 Eh
 * total energy  :  -113.1380792 Eh     change       -0.1158874E-03 Eh
 * total energy  :  -113.1394880 Eh     change       -0.3931412E-06 Eh
 * total energy  :  -113.1394884 Eh     change       -0.3746559E-06 Eh
 * total energy  :  -113.1394887 Eh     change       -0.3595857E-06 Eh
 * total energy  :  -113.1394890 Eh     change       -0.2756707E-06 Eh
 * total energy  :  -113.1394892 Eh     change       -0.2141838E-06 Eh
 * total energy  :  -113.1394894 Eh     change       -0.1935701E-06 Eh
 * total energy  :  -113.1394896 Eh     change       -0.2088820E-06 Eh
 * total energy  :  -113.1394898 Eh     change       -0.1474780E-06 Eh
 * total energy  :  -113.1394898 Eh     change       -0.8514660E-07 Eh
   *** GEOMETRY OPTIMIZATION CONVERGED AFTER 66 ITERATIONS ***

 final structure:
================
75
 xtb: 6.7.1 (edcfbbe)
N          -10.14335971099350        1.15080642456769        1.32683949388005
C           -9.01454219250097        1.02080737025445        1.11223475660870
C           -7.65418420724628        0.86462110093335        0.85249220004917
C           -6.95031095457785       -0.25696257284025        1.33856648026848
C           -5.62227878330809       -0.41757523133015        1.06043540163017
C           -4.90072023023925        0.53289203708013        0.29497798376089
C           -3.50468688511528        0.36767378642068        0.02042607924182
C           -2.65816098078576        1.48988312463893       -0.07157429724179
C           -1.29174042604399        1.40398141895124       -0.17561816127847
C           -0.52515665242777        2.63041809102899       -0.40676964240124
C           -0.78592994703471        3.79099649125816        0.32555452762989
C           -0.08594424146597        4.95552252141102        0.07610445166958
C            0.87878493111812        4.99159572186459       -0.91926089154548
C            1.13661683587363        3.85129275792539       -1.66400699443386
C            0.44701587176878        2.68189868445761       -1.41085406818456
C           -0.66341756990991        0.10569337486492       -0.17538928478979
C            0.74946826963919       -0.06612679033855       -0.07909549962361
C            1.56815993585080        0.85647620448158        0.62603211303649
C            2.92033001305330        0.69237384599250        0.72016202253433
C            3.56026672363265       -0.40647640721220        0.11343424035090
N            4.93193879904582       -0.56257298719212        0.19079659687103
C            5.76720636894149        0.55948521233361        0.22426678047627
C            5.46551526118385        1.68646242346513       -0.54446998746991
C            6.29283496812831        2.79118276918984       -0.50680396131478
C            7.42814210194479        2.79103582665778        0.28992939912120
C            7.73321431980015        1.67308129062414        1.05214292269126
C            6.91212079059793        0.56323858293898        1.02475193719812
C            5.49584210194340       -1.84248808902143        0.23390567213251
C            4.87145523035595       -2.86505758899803        0.95262145813968
C            5.42886047546963       -4.12802911912631        0.98526404486128
C            6.61147113062226       -4.39091948014556        0.31005326192355
C            7.23738903731783       -3.37728265073887       -0.40051105672779
C            6.68807882479011       -2.11117246180251       -0.44295583370477
C            2.76085220361415       -1.34608937060831       -0.56973299175553
C            1.40711163521068       -1.18594977956958       -0.65217498183572
C           -1.52214208874358       -1.01288964509066       -0.23329795009125
C           -2.88779815383910       -0.92467496241897       -0.14602623631477
C           -3.68226346799402       -2.14560460251184       -0.32802951453526
C           -4.76844309356326       -2.16230906826886       -1.20622440012033
C           -5.48671504126003       -3.32312027281614       -1.41583931494996
C           -5.14087616174141       -4.48990203941579       -0.75196262629032
C           -4.06116303522397       -4.48843990716446        0.11671787384814
C           -3.33552840871320       -3.33048460518225        0.32277041048706
C           -5.61560893405471        1.67106045064390       -0.15308550703293
C           -6.94881009216077        1.82932273453900        0.10211595069720
H           -7.47704272175031       -0.98482080919995        1.94057683450247
H           -5.09768696661955       -1.26453641474864        1.47536229910939
H           -3.10666989800700        2.47247648889611       -0.04982968136827
H           -1.52436814730095        3.76519279029546        1.11462120138184
H           -0.29224656902475        5.84056749683094        0.66113800353471
H            1.42182867426159        5.90442873129226       -1.11537255962099
H            1.87621744339139        3.87760948269716       -2.45151225467192
H            0.63568863355683        1.80293584316110       -2.00987969069324
H            1.10077574835491        1.67366945526621        1.15168351794127
H            3.50956833509980        1.38992445356674        1.29711419518661
H            4.59121183985619        1.67856075940505       -1.17781254459902
H            6.05440109258942        3.65524706202444       -1.10875877983926
H            8.07221739246209        3.65669301695791        0.31571455785904
H            8.61280463020951        1.66929799228920        1.67835208529750
H            7.14141929876278       -0.30091719587726        1.63036224304791
H            3.96120996879421       -2.65423392663282        1.49412759632957
H            4.94178421611993       -4.91037826640256        1.54796806986293
H            7.04372039733014       -5.37942550904916        0.33885653434485
H            8.15545508978655       -3.57738822318814       -0.93241868912606
H            7.16695707690317       -1.32658612365531       -1.00968578724904
H            3.23782354582755       -2.17878201736218       -1.06572546060152
H            0.83251181498106       -1.89468355593508       -1.22820089683779
H           -1.08424277572826       -1.99547176625557       -0.32911304872327
H           -5.03638693699045       -1.25988821543913       -1.73695792855963
H           -6.32264504375651       -3.31865477783558       -2.10104754707890
H           -5.70967406581606       -5.39436140436605       -0.91137885893111
H           -3.78706800128859       -5.39428851371334        0.63901862419268
H           -2.50679336097448       -3.33139728211562        1.01701803372566
H           -5.11058935049009        2.40794600033273       -0.76040010070459
H           -7.48323979884508        2.69036602046311       -0.27589432550725

          :  Hamiltonian                  GFN2-xTB          :
         :: gradient norm              0.000052672844 Eh/a0 ::
         :: HOMO-LUMO gap              0.711487547675 eV    ::
         :: SCC energy              -115.339219882267 Eh    ::
         :: -> dispersion             -0.104416198805 Eh    ::
         :: -> Gsolv                  -0.057658649920 Eh    ::
         :: repulsion energy           2.199730040936 Eh    ::

    * Orbital Energies and Occupations

         #    Occupation            Energy/Eh            Energy/eV
      -------------------------------------------------------------
         1        2.0000           -0.6858459             -18.6628
       ...           ...                  ...                  ...
        95        2.0000           -0.4169308             -11.3453
        96        2.0000           -0.4134299             -11.2500
        97        2.0000           -0.4107911             -11.1782
        98        2.0000           -0.4069308             -11.0731
        99        2.0000           -0.4056490             -11.0383
       100        2.0000           -0.4044381             -11.0053
       101        2.0000           -0.4014323             -10.9235
       102        2.0000           -0.3997610             -10.8780
       103        2.0000           -0.3920321             -10.6677
       104        2.0000           -0.3847935             -10.4708
       105        1.9999           -0.3731751             -10.1546
       106        1.0001           -0.3563156              -9.6958
       107        1.0000           -0.2769311              -7.5357 (HOMO)
       108        0.0000           -0.2507846              -6.8242 (LUMO)
       109                         -0.2456093              -6.6834
       110                         -0.2438638              -6.6359
       111                         -0.2395729              -6.5191
       112                         -0.2349871              -6.3943
       113                         -0.2300846              -6.2609
       114                         -0.2234702              -6.0809
       115                         -0.2228048              -6.0628
       116                         -0.2212683              -6.0210
       117                         -0.2200257              -5.9872
       118                         -0.2149655              -5.8495
       ...                                ...                  ...
       210                          1.1680837              31.7852
      -------------------------------------------------------------
                  HL-Gap            0.0261465 Eh            0.7115 eV

     #   Z          covCN         q      C6AA      α(0)
     1   7 N        0.911    -0.338    28.705     7.749
     2   6 C        1.911     0.104    28.522     8.625
     3   6 C        2.969    -0.010    28.273     8.722
     4   6 C        2.918    -0.029    28.729     8.789
     5   6 C        2.919    -0.035    28.879     8.812
     6   6 C        2.970     0.003    27.950     8.672
     7   6 C        2.970    -0.000    28.034     8.685
     8   6 C        2.925    -0.044    29.090     8.845
     9   6 C        2.970     0.002    27.976     8.676
    10   6 C        2.978     0.014    27.695     8.632
    11   6 C        2.924    -0.035    28.883     8.813
    12   6 C        2.917    -0.030    28.753     8.793
    13   6 C        2.919    -0.032    28.805     8.801
    14   6 C        2.917    -0.031    28.762     8.794
    15   6 C        2.924    -0.032    28.792     8.799
    16   6 C        2.970    -0.008    28.203     8.711
    17   6 C        2.970     0.016    27.641     8.624
    18   6 C        2.918    -0.033    28.811     8.802
    19   6 C        2.914    -0.042    29.040     8.837
    20   6 C        2.925     0.054    26.790     8.488
    21   7 N        2.752    -0.020    21.638     6.909
    22   6 C        2.928     0.062    26.619     8.461
    23   6 C        2.921    -0.039    28.973     8.827
    24   6 C        2.918    -0.025    28.632     8.775
    25   6 C        2.919    -0.029    28.731     8.790
    26   6 C        2.918    -0.025    28.636     8.775
    27   6 C        2.921    -0.040    29.002     8.831
    28   6 C        2.927     0.062    26.618     8.461
    29   6 C        2.921    -0.039    28.981     8.828
    30   6 C        2.918    -0.025    28.636     8.775
    31   6 C        2.919    -0.029    28.731     8.790
    32   6 C        2.918    -0.025    28.634     8.775
    33   6 C        2.921    -0.040    29.000     8.831
    34   6 C        2.914    -0.041    29.029     8.835
    35   6 C        2.918    -0.036    28.889     8.814
    36   6 C        2.925    -0.043    29.060     8.840
    37   6 C        2.970    -0.003    28.107     8.696
    38   6 C        2.978     0.013    27.727     8.637
    39   6 C        2.924    -0.032    28.788     8.799
    40   6 C        2.918    -0.031    28.772     8.796
    41   6 C        2.919    -0.034    28.849     8.808
    42   6 C        2.917    -0.032    28.788     8.799
    43   6 C        2.924    -0.038    28.943     8.822
    44   6 C        2.918    -0.039    28.971     8.827
    45   6 C        2.919    -0.030    28.748     8.792
    46   1 H        0.925     0.018     2.764     2.600
    47   1 H        0.926     0.028     2.615     2.529
    48   1 H        0.926     0.032     2.563     2.504
    49   1 H        0.926     0.030     2.589     2.516
    50   1 H        0.926     0.030     2.581     2.512
    51   1 H        0.926     0.032     2.564     2.504
    52   1 H        0.926     0.032     2.560     2.502
    53   1 H        0.926     0.030     2.587     2.515
    54   1 H        0.926     0.040     2.443     2.444
    55   1 H        0.926     0.041     2.441     2.443
    56   1 H        0.926     0.045     2.379     2.412
    57   1 H        0.926     0.045     2.384     2.415
    58   1 H        0.926     0.044     2.402     2.423
    59   1 H        0.926     0.045     2.381     2.413
    60   1 H        0.926     0.044     2.390     2.417
    61   1 H        0.926     0.045     2.381     2.413
    62   1 H        0.926     0.045     2.386     2.416
    63   1 H        0.926     0.044     2.402     2.423
    64   1 H        0.926     0.045     2.379     2.412
    65   1 H        0.926     0.045     2.387     2.416
    66   1 H        0.926     0.043     2.412     2.429
    67   1 H        0.926     0.043     2.412     2.429
    68   1 H        0.926     0.036     2.503     2.474
    69   1 H        0.926     0.024     2.679     2.560
    70   1 H        0.926     0.025     2.651     2.546
    71   1 H        0.926     0.028     2.617     2.530
    72   1 H        0.926     0.030     2.586     2.515
    73   1 H        0.926     0.031     2.569     2.506
    74   1 H        0.926     0.029     2.597     2.520
    75   1 H        0.925     0.019     2.743     2.590

molecular dipole:
                 x           y           z       tot (Debye)
 q only:        8.843      -0.854      -0.562
   full:        9.074      -0.873      -0.644      23.228

 projected vibrational frequencies (cm⁻¹)
eigval :       -0.00     0.00     0.00     0.00     0.00     0.00
eigval :       10.30    14.77    18.90    28.84    37.41    45.41
eigval :       48.48    49.56    57.59    60.36    62.59    69.60
eigval :       69.88    80.91    95.63   104.32   114.23   125.91
eigval :      134.76   149.29   155.15   190.48   204.39   206.82
eigval :      222.38   230.82   234.25   256.88   264.47   287.49
eigval :      294.42   306.40   320.69   348.76   364.47   371.74
eigval :      375.52   376.78   378.51   382.23   386.34   402.59
eigval :      412.32   422.07   446.88   459.41   466.19   477.08
eigval :      481.99   500.22   513.20   522.32   535.36   551.63
eigval :      573.02   581.01   582.87   585.31   587.52   590.82
eigval :      594.02   607.15   612.25   618.33   628.79   651.42
eigval :      659.13   661.76   668.27   671.06   675.17   678.58
eigval :      687.18   707.34   735.67   753.35   756.15   758.41
eigval :      758.94   779.03   795.05   810.91   832.80   838.69
eigval :      857.32   861.86   866.28   869.15   870.39   873.79
eigval :      875.04   895.95   897.08   897.53   897.86   901.15
eigval :      907.17   907.85   910.19   910.51   917.69   926.34
eigval :      927.05   927.23   928.57   928.62   928.98   929.38
eigval :      930.21   950.10   965.28   977.20   985.64   996.63
eigval :     1000.16  1011.89  1041.97  1065.72  1077.56  1078.73
eigval :     1082.68  1083.38  1119.36  1121.11  1121.42  1121.77
eigval :     1136.76  1143.82  1166.92  1174.79  1176.49  1178.48
eigval :     1179.76  1181.57  1188.23  1192.35  1198.59  1200.37
eigval :     1215.80  1222.77  1241.93  1250.87  1254.53  1259.97
eigval :     1270.30  1271.38  1273.35  1276.58  1281.53  1282.80
eigval :     1290.79  1311.97  1314.96  1316.15  1317.18  1318.67
eigval :     1324.51  1325.54  1347.48  1359.16  1371.24  1380.97
eigval :     1423.41  1426.05  1427.36  1429.97  1435.79  1437.22
eigval :     1442.77  1446.22  1451.11  1451.49  1455.62  1458.11
eigval :     1465.13  1469.43  1480.81  1525.23  1541.99  1560.71
eigval :     1561.88  1565.13  1567.62  1573.44  1579.75  1581.84
eigval :     1586.57  1596.85  2275.85  3061.22  3063.75  3064.53
eigval :     3065.00  3065.08  3067.80  3073.12  3074.68  3076.41
eigval :     3077.29  3079.04  3080.25  3080.97  3081.14  3081.53
eigval :     3081.85  3082.26  3082.52  3083.57  3086.36  3088.39
eigval :     3089.61  3091.36  3093.10  3093.90  3095.43  3096.47
eigval :     3100.34  3101.27  3107.31

   temp. (K)  partition function   enthalpy   heat capacity  entropy
                                   cal/mol     cal/K/mol   cal/K/mol   J/K/mol
 298.15  VIB  0.982E+17            21700.559    136.095    136.399
         ROT  0.790E+08              888.752      2.981     39.120
         INT  0.776E+25            22589.312    139.075    175.519
         TR   0.133E+29             1481.254      4.968     44.910
         TOT                       24070.5655   144.0436   220.4290   922.2749

       T/K    H(0)-H(T)+PV         H(T)/Eh          T*S/Eh         G(T)/Eh
   ------------------------------------------------------------------------
    298.15    0.383589E-01    0.615633E+00    0.104733E+00    0.510900E+00
   ------------------------------------------------------------------------

         :::::::::::::::::::::::::::::::::::::::::::::::::::::
         ::                  THERMODYNAMIC                  ::
         :::::::::::::::::::::::::::::::::::::::::::::::::::::
         :: total free energy        -112.628589423415 Eh   ::
         ::.................................................::
         :: total energy             -113.139489835410 Eh   ::
         :: zero point energy           0.577274454601 Eh   ::
         :: G(RRHO) w/o ZPVE           -0.066374042606 Eh   ::
         :: G(RRHO) contrib.            0.510900411995 Eh   ::
         :::::::::::::::::::::::::::::::::::::::::::::::::::::

           -------------------------------------------------
          | TOTAL ENERGY             -113.139489835410 Eh   |
          | TOTAL ENTHALPY           -112.523856492981 Eh   |
          | TOTAL FREE ENERGY        -112.628589423415 Eh   |
          | GRADIENT NORM               0.000052502735 Eh/α |
          | HOMO-LUMO GAP               0.711483210092 eV   |
           -------------------------------------------------

 * finished run on 2025/09/09 at 05:22:07.226
