   * xtb version 6.7.1 (edcfbbe) compiled by 'albert@albert-system' on 2024-07-22

   ID    Z sym.   atoms
    1    7 N      1, 21
    2    6 C      2-20, 22-45
    3    1 H      46-75

          program call               : xtb data2507/toluene/TPB-AC/TPB-AC.xyz --gfn 2 --gbsa toluene --ohess vtight --parallel 40 --molden --ceasefiles --namespace data2507/toluene/TPB-AC/TPB-AC_toluene_S0_preOpt
      * Solvation model:               GBSA
        Solvent                        toluene
        Solvent mass                       9.2140E+01 g/mol
          :  Hamiltonian                  GFN2-xTB          :
 * total energy  :  -113.2021103 Eh     change       -0.1621800E-08 Eh
 * total energy  :  -113.2133310 Eh     change       -0.1122069E-01 Eh
 * total energy  :  -113.2170275 Eh     change       -0.3696524E-02 Eh
 * total energy  :  -113.2183820 Eh     change       -0.1354554E-02 Eh
 * total energy  :  -113.2192400 Eh     change       -0.8579964E-03 Eh
 * total energy  :  -113.2195198 Eh     change       -0.2797252E-03 Eh
 * total energy  :  -113.2200064 Eh     change       -0.4866136E-03 Eh
 * total energy  :  -113.2203711 Eh     change       -0.3647677E-03 Eh
 * total energy  :  -113.2210761 Eh     change       -0.7049670E-03 Eh
 * total energy  :  -113.2215157 Eh     change       -0.4395579E-03 Eh
 * total energy  :  -113.2235128 Eh     change       -0.2172158E-05 Eh
 * total energy  :  -113.2235149 Eh     change       -0.2070297E-05 Eh
 * total energy  :  -113.2235164 Eh     change       -0.1486670E-05 Eh
 * total energy  :  -113.2235176 Eh     change       -0.1166099E-05 Eh
 * total energy  :  -113.2235186 Eh     change       -0.1045450E-05 Eh
 * total energy  :  -113.2235196 Eh     change       -0.1018589E-05 Eh
 * total energy  :  -113.2235207 Eh     change       -0.1033440E-05 Eh
 * total energy  :  -113.2235216 Eh     change       -0.9845720E-06 Eh
 * total energy  :  -113.2235216 Eh     change       -0.4675570E-08 Eh
   *** GEOMETRY OPTIMIZATION CONVERGED AFTER 68 ITERATIONS ***

 final structure:
================
75
 xtb: 6.7.1 (edcfbbe)
N          -10.53585094837272        1.35815891311621       -0.13734669252847
C           -9.40005714711293        1.18736230892118       -0.12716423474170
C           -8.00495399474025        0.98033551821239       -0.11805131294565
C           -7.38311908821778        0.44225580669769        1.01159325082637
C           -6.01985557543366        0.23880680070135        1.01144571552761
C           -5.24948392764086        0.56480699522066       -0.10543427334744
C           -3.79085034504501        0.37081967770793       -0.09599099922460
C           -2.96926035407079        1.42868862734783       -0.46855037277956
C           -1.58415299568673        1.33752900370801       -0.42686755103976
C           -0.77451291095559        2.51758719056049       -0.77980630901919
C            0.22045383146071        2.97932688706028        0.07819416164472
C            0.96578896959259        4.09648338287491       -0.24927645521084
C            0.72946466633070        4.76901787017621       -1.43733632279674
C           -0.26341483955491        4.32238888534957       -2.29322690750083
C           -1.01386818417689        3.20768449772084       -1.96492565708591
C           -0.99649704446925        0.13610966237155       -0.00714344634109
C            0.46493499588498       -0.04323498929786        0.01307541341794
C            1.10479928753206       -0.51783678731346        1.15540466091183
C            2.47470826124376       -0.67879725025800        1.18499364319279
C            3.24441342450448       -0.38092606363052        0.06049233123362
N            4.63601381983486       -0.53236846721897        0.09194331703969
C            5.34785097012233       -0.15864463128616        1.23772603600257
C            4.95925654498678        0.96016375613020        1.97535603478271
C            5.66090915232584        1.32625860294995        3.10774214082839
C            6.76258604601469        0.59327981956611        3.51910418045973
C            7.15430584043313       -0.51746623089920        2.78898067119369
C            6.45340638430653       -0.89707502955844        1.66040685116976
C            5.30779343335166       -1.04600699374273       -1.02291310514943
C            4.72789182768154       -2.05589911869395       -1.79138993077235
C            5.39223893608677       -2.56323015465165       -2.89131941005651
C            6.64404354956341       -2.08189551516937       -3.23965559447908
C            7.22508828354320       -1.07950944566888       -2.47949348954504
C            6.56474064153864       -0.55945142425225       -1.38296205559902
C            2.60397908687351        0.07146209225870       -1.09353551116423
C            1.23570276183423        0.23990073305246       -1.11228491498693
C           -1.81808690203397       -0.92136631438041        0.36293405904313
C           -3.20394405967924       -0.83157693468796        0.32214821634803
C           -4.01098284448171       -2.01639120255273        0.66389725982268
C           -5.00722088682626       -2.47047866039533       -0.19697032711770
C           -5.74922107672635       -3.59345373185017        0.11873129570233
C           -5.50815518410097       -4.27930528795824        1.29814470945248
C           -4.51387594739493       -3.84048638380613        2.15680549357476
C           -3.76661112507725       -2.72043650028342        1.84014685455623
C           -5.87820665327702        1.11499553619857       -1.22278583258558
C           -7.24220405626716        1.31792066126942       -1.23833765339317
H           -7.97640627293887        0.19148274234468        1.87885249411502
H           -5.54037575850458       -0.16796692279141        1.88869016089882
H           -3.42151437022515        2.36737859391561       -0.75624369260995
H            0.39937317935814        2.46462452745089        1.01087501504099
H            1.73398276421394        4.44610727449326        0.42566014926259
H            1.31531716019805        5.63979587547895       -1.69354919875027
H           -0.45364926127750        4.84466574341353       -3.22010413657398
H           -1.78016009827025        2.85471937105148       -2.64080570483932
H            0.52172224069624       -0.74682420604996        2.03611429135355
H            2.96046520984188       -1.03714719081161        2.08113779069603
H            4.10747372033448        1.53999511831537        1.65025188917748
H            5.35069561239820        2.19670900874163        3.66776985279801
H            7.31176102612759        0.88520737642260        4.40174381767340
H            8.00807825641544       -1.09924952093452        3.10528032003292
H            6.75607823499456       -1.76907126966282        1.09883021841316
H            3.75629646044257       -2.44031627809678       -1.51661332145359
H            4.93265655340559       -3.34786040072012       -3.47494316143587
H            7.16241367817958       -2.48448886810734       -4.09695583190057
H            8.19772355372147       -0.69236376823717       -2.74706264764629
H            7.01682356231664        0.22906161902201       -0.79887103442474
H            3.18977957414695        0.29757292659716       -1.97257112751509
H            0.75507738525052        0.59446202058212       -2.01206557554280
H           -1.36362676693926       -1.85774608437064        0.65441251177105
H           -5.18957494420693       -1.94709012829535       -1.12446744808452
H           -6.51831667132895       -3.93614285714294       -0.55865130237612
H           -6.09119648661656       -5.15455512607767        1.54507787372997
H           -4.32001411153517       -4.37359111942653        3.07666186603652
H           -2.99855674203063       -2.37406260858821        2.51725352655200
H           -5.29040102114308        1.36638240106574       -2.09343083719105
H           -7.72791029072788        1.73480663882385       -2.10877469451500

          :  Hamiltonian                  GFN2-xTB          :
         :: gradient norm              0.000080099298 Eh/a0 ::
         :: HOMO-LUMO gap              1.931093639735 eV    ::
         :: SCC energy              -115.445156402876 Eh    ::
         :: -> dispersion             -0.104082277353 Eh    ::
         :: -> Gsolv                  -0.050403434808 Eh    ::
         :: repulsion energy           2.221634761465 Eh    ::

    * Orbital Energies and Occupations

         #    Occupation            Energy/Eh            Energy/eV
      -------------------------------------------------------------
         1        2.0000           -0.6669858             -18.1496
       ...           ...                  ...                  ...
        94        2.0000           -0.4118492             -11.2070
        95        2.0000           -0.4108099             -11.1787
        96        2.0000           -0.4100150             -11.1571
        97        2.0000           -0.4087287             -11.1221
        98        2.0000           -0.4073379             -11.0842
        99        2.0000           -0.4064003             -11.0587
       100        2.0000           -0.4053574             -11.0303
       101        2.0000           -0.4043631             -11.0033
       102        2.0000           -0.4039623             -10.9924
       103        2.0000           -0.3999532             -10.8833
       104        2.0000           -0.3959876             -10.7754
       105        2.0000           -0.3798447             -10.3361
       106        2.0000           -0.3491564              -9.5010 (HOMO)
       107                         -0.2781900              -7.5699 (LUMO)
       108                         -0.2528151              -6.8794
       109                         -0.2413811              -6.5683
       110                         -0.2404405              -6.5427
       111                         -0.2303449              -6.2680
       112                         -0.2283549              -6.2139
       113                         -0.2252502              -6.1294
       114                         -0.2244703              -6.1081
       115                         -0.2242667              -6.1026
       116                         -0.2217263              -6.0335
       117                         -0.2211399              -6.0175
       ...                                ...                  ...
       210                          1.1598354              31.5607
      -------------------------------------------------------------
                  HL-Gap            0.0709664 Eh            1.9311 eV

     #   Z          covCN         q      C6AA      α(0)
     1   7 N        0.911    -0.279    27.195     7.542
     2   6 C        1.912     0.118    28.191     8.575
     3   6 C        2.974     0.013    27.723     8.637
     4   6 C        2.924    -0.019    28.479     8.752
     5   6 C        2.923    -0.027    28.673     8.781
     6   6 C        2.977     0.026    27.408     8.588
     7   6 C        2.978     0.002    27.976     8.676
     8   6 C        2.930    -0.039    28.977     8.828
     9   6 C        2.978     0.005    27.916     8.667
    10   6 C        2.977     0.013    27.729     8.638
    11   6 C        2.924    -0.032    28.796     8.800
    12   6 C        2.919    -0.030    28.752     8.793
    13   6 C        2.920    -0.032    28.795     8.800
    14   6 C        2.918    -0.031    28.764     8.795
    15   6 C        2.925    -0.035    28.867     8.811
    16   6 C        2.978     0.007    27.853     8.657
    17   6 C        2.977     0.005    27.909     8.666
    18   6 C        2.924    -0.035    28.861     8.810
    19   6 C        2.921    -0.048    29.195     8.861
    20   6 C        2.924     0.065    26.549     8.450
    21   7 N        2.752    -0.080    22.798     7.091
    22   6 C        2.923     0.066    26.527     8.446
    23   6 C        2.922    -0.048    29.199     8.861
    24   6 C        2.919    -0.030    28.757     8.794
    25   6 C        2.919    -0.040    28.987     8.829
    26   6 C        2.919    -0.030    28.758     8.794
    27   6 C        2.922    -0.048    29.199     8.861
    28   6 C        2.923     0.066    26.529     8.446
    29   6 C        2.922    -0.049    29.207     8.863
    30   6 C        2.919    -0.030    28.759     8.794
    31   6 C        2.919    -0.040    28.989     8.829
    32   6 C        2.919    -0.030    28.760     8.794
    33   6 C        2.922    -0.048    29.204     8.862
    34   6 C        2.921    -0.047    29.175     8.858
    35   6 C        2.924    -0.032    28.788     8.799
    36   6 C        2.930    -0.040    28.992     8.830
    37   6 C        2.977     0.006    27.893     8.663
    38   6 C        2.977     0.012    27.745     8.640
    39   6 C        2.924    -0.033    28.823     8.804
    40   6 C        2.918    -0.030    28.756     8.794
    41   6 C        2.920    -0.032    28.786     8.798
    42   6 C        2.918    -0.030    28.753     8.793
    43   6 C        2.925    -0.035    28.863     8.810
    44   6 C        2.923    -0.030    28.746     8.792
    45   6 C        2.924    -0.019    28.489     8.753
    46   1 H        0.926     0.041     2.436     2.441
    47   1 H        0.926     0.044     2.390     2.418
    48   1 H        0.926     0.038     2.477     2.461
    49   1 H        0.926     0.029     2.606     2.524
    50   1 H        0.926     0.030     2.591     2.517
    51   1 H        0.926     0.031     2.577     2.510
    52   1 H        0.926     0.031     2.566     2.505
    53   1 H        0.926     0.032     2.562     2.503
    54   1 H        0.926     0.035     2.515     2.480
    55   1 H        0.926     0.033     2.545     2.495
    56   1 H        0.926     0.031     2.575     2.509
    57   1 H        0.926     0.033     2.548     2.496
    58   1 H        0.926     0.031     2.569     2.507
    59   1 H        0.926     0.033     2.549     2.497
    60   1 H        0.926     0.031     2.571     2.507
    61   1 H        0.926     0.031     2.576     2.510
    62   1 H        0.926     0.033     2.550     2.497
    63   1 H        0.926     0.031     2.571     2.507
    64   1 H        0.926     0.033     2.550     2.497
    65   1 H        0.926     0.031     2.573     2.508
    66   1 H        0.926     0.032     2.561     2.503
    67   1 H        0.926     0.032     2.558     2.501
    68   1 H        0.926     0.038     2.474     2.460
    69   1 H        0.926     0.027     2.623     2.533
    70   1 H        0.926     0.030     2.590     2.517
    71   1 H        0.926     0.031     2.569     2.507
    72   1 H        0.926     0.033     2.550     2.497
    73   1 H        0.926     0.033     2.537     2.491
    74   1 H        0.926     0.048     2.351     2.398
    75   1 H        0.926     0.042     2.419     2.432

molecular dipole:
                 x           y           z       tot (Debye)
 q only:        1.947      -0.292       0.046
   full:        2.328      -0.354       0.039       5.986

 projected vibrational frequencies (cm⁻¹)
eigval :       -0.00    -0.00     0.00     0.00     0.00     0.00
eigval :       10.59    12.36    17.78    27.85    29.93    39.67
eigval :       45.67    48.14    54.06    54.27    59.13    62.67
eigval :       64.62    75.63    87.35    98.43   105.95   119.89
eigval :      131.69   140.50   147.23   183.93   198.09   205.84
eigval :      213.24   224.71   232.58   254.33   264.77   302.11
eigval :      307.54   315.87   329.73   347.45   363.34   369.26
eigval :      372.57   373.29   377.79   378.90   386.30   389.66
eigval :      412.46   437.01   469.20   470.54   480.54   490.46
eigval :      496.60   512.80   525.54   536.26   547.65   553.23
eigval :      576.88   582.98   586.49   587.26   588.08   592.93
eigval :      598.72   609.22   618.33   628.89   646.06   659.29
eigval :      664.08   669.63   674.66   684.12   692.77   695.07
eigval :      708.71   718.44   741.61   754.64   758.34   760.24
eigval :      765.91   794.21   814.83   819.53   867.76   868.01
eigval :      871.52   872.81   875.19   875.43   876.54   881.44
eigval :      888.66   891.98   892.47   902.40   903.34   909.30
eigval :      915.30   918.77   919.44   924.57   925.61   926.11
eigval :      926.46   928.01   928.23   929.42   929.87   930.55
eigval :      931.62   959.28   976.25   984.47  1000.76  1003.82
eigval :     1016.04  1038.42  1074.28  1082.09  1082.63  1083.32
eigval :     1087.06  1101.74  1119.14  1119.78  1120.67  1123.11
eigval :     1134.87  1138.82  1177.75  1180.13  1180.14  1181.66
eigval :     1184.25  1186.79  1193.46  1195.21  1196.71  1197.32
eigval :     1212.57  1225.89  1240.64  1243.83  1252.45  1264.93
eigval :     1265.44  1269.29  1277.26  1280.22  1281.05  1281.64
eigval :     1305.34  1310.15  1312.40  1315.06  1315.82  1316.83
eigval :     1317.56  1323.21  1325.22  1350.57  1385.08  1397.97
eigval :     1410.06  1428.11  1431.46  1434.13  1441.04  1454.01
eigval :     1470.39  1473.26  1476.87  1483.07  1488.54  1506.38
eigval :     1532.14  1547.47  1557.38  1574.59  1575.50  1579.19
eigval :     1580.25  1581.42  1588.03  1591.51  1593.86  1598.53
eigval :     1599.29  1601.12  2358.65  3064.86  3066.78  3067.51
eigval :     3067.95  3070.06  3070.66  3070.81  3071.36  3072.34
eigval :     3074.45  3075.61  3075.68  3077.55  3078.09  3078.85
eigval :     3079.58  3080.93  3081.33  3082.18  3083.00  3083.28
eigval :     3084.15  3084.90  3088.78  3089.03  3090.00  3090.72
eigval :     3092.68  3093.62  3099.02

   temp. (K)  partition function   enthalpy   heat capacity  entropy
                                   cal/mol     cal/K/mol   cal/K/mol   J/K/mol
 298.15  VIB  0.348E+18            21660.945    134.014    137.101
         ROT  0.783E+08              888.752      2.981     39.100
         INT  0.272E+26            22549.697    136.995    176.202
         TR   0.133E+29             1481.254      4.968     44.910
         TOT                       24030.9514   141.9630   221.1120   925.1324

       T/K    H(0)-H(T)+PV         H(T)/Eh          T*S/Eh         G(T)/Eh
   ------------------------------------------------------------------------
    298.15    0.382958E-01    0.618527E+00    0.105057E+00    0.513470E+00
   ------------------------------------------------------------------------

         :::::::::::::::::::::::::::::::::::::::::::::::::::::
         ::                  THERMODYNAMIC                  ::
         :::::::::::::::::::::::::::::::::::::::::::::::::::::
         :: total free energy        -112.710051865244 Eh   ::
         ::.................................................::
         :: total energy             -113.223521641030 Eh   ::
         :: zero point energy           0.580231441978 Eh   ::
         :: G(RRHO) w/o ZPVE           -0.066761666192 Eh   ::
         :: G(RRHO) contrib.            0.513469775786 Eh   ::
         :::::::::::::::::::::::::::::::::::::::::::::::::::::

           -------------------------------------------------
          | TOTAL ENERGY             -113.223521641030 Eh   |
          | TOTAL ENTHALPY           -112.604994440358 Eh   |
          | TOTAL FREE ENERGY        -112.710051865244 Eh   |
          | GRADIENT NORM               0.000080020772 Eh/α |
          | HOMO-LUMO GAP               1.931093508553 eV   |
           -------------------------------------------------

 * finished run on 2025/09/09 at 05:17:22.446
