   * xtb version 6.7.1 (edcfbbe) compiled by 'albert@albert-system' on 2024-07-22

   ID    Z sym.   atoms
    1    7 N      1, 21
    2    6 C      2-20, 22-45
    3    1 H      46-75

          program call               : xtb data2507/toluene/TPB-AC/TPB-AC_toluene_S0_crest.xyz --gfn 2 --gbsa toluene --ohess vtight --parallel 40 --molden --ceasefiles --namespace data2507/toluene/TPB-AC/TPB-AC_toluene_S0_finalOpt
      * Solvation model:               GBSA
        Solvent                        toluene
        Solvent mass                       9.2140E+01 g/mol
          :  Hamiltonian                  GFN2-xTB          :
 * total energy  :  -113.2237092 Eh     change       -0.7878498E-09 Eh
 * total energy  :  -113.2237537 Eh     change       -0.4452921E-04 Eh
 * total energy  :  -113.2237877 Eh     change       -0.3393611E-04 Eh
 * total energy  :  -113.2238000 Eh     change       -0.1237103E-04 Eh
 * total energy  :  -113.2238239 Eh     change       -0.2385802E-04 Eh
 * total energy  :  -113.2238361 Eh     change       -0.1217361E-04 Eh
 * total energy  :  -113.2238582 Eh     change       -0.2209445E-04 Eh
 * total energy  :  -113.2238681 Eh     change       -0.9890563E-05 Eh
 * total energy  :  -113.2238849 Eh     change       -0.1688687E-04 Eh
 * total energy  :  -113.2238961 Eh     change       -0.1117739E-04 Eh
 * total energy  :  -113.2241283 Eh     change       -0.3988666E-06 Eh
 * total energy  :  -113.2241282 Eh     change        0.5371874E-07 Eh
 * total energy  :  -113.2241286 Eh     change       -0.3150856E-06 Eh
 * total energy  :  -113.2241287 Eh     change       -0.1163573E-06 Eh
 * total energy  :  -113.2241289 Eh     change       -0.1814805E-06 Eh
 * total energy  :  -113.2241290 Eh     change       -0.1414468E-06 Eh
 * total energy  :  -113.2241290 Eh     change        0.1682292E-07 Eh
 * total energy  :  -113.2241291 Eh     change       -0.1230392E-06 Eh
 * total energy  :  -113.2241292 Eh     change       -0.9088606E-07 Eh
   *** GEOMETRY OPTIMIZATION CONVERGED AFTER 49 ITERATIONS ***

 final structure:
================
75
 xtb: 6.7.1 (edcfbbe)
N          -10.23841184832072        1.16992041470766        0.38111838662593
C           -9.10000090353523        1.03239120240773        0.31448006807986
C           -7.70219481448372        0.86307062621038        0.23044848269384
C           -7.04004296661118        0.03970161579522        1.14484569780406
C           -5.67533993627145       -0.12925093687439        1.05096955251102
C           -4.94347575067579        0.51375111867917        0.05183920563983
C           -3.48437921848973        0.34524491987564       -0.03688099566628
C           -2.67749285089524        1.47407080439407       -0.11880361857953
C           -1.29166869092233        1.39165850376748       -0.15457273094180
C           -0.50806446746485        2.63218720788834       -0.29872618631464
C           -0.73961392139479        3.71350609895309        0.54708335925662
C           -0.01962062567684        4.88575020572012        0.40249558334229
C            0.93054150288665        4.99893831589645       -0.59857902557068
C            1.15626240429302        3.93344873662532       -1.45498357267622
C            0.44556255496079        2.75703502776798       -1.30575518015930
C           -0.68565245366620        0.12881751049550       -0.09268845936659
C            0.77578069289846       -0.03464393230255       -0.05643197649878
C            1.56024929784316        0.71466897313681        0.81866504346619
C            2.92662255395568        0.54137397458855        0.87124115457376
C            3.55704732618456       -0.38343903951742        0.03699255150494
N            4.94429728332359       -0.55161643233974        0.07981478188451
C            5.77681681292607        0.55545665538724        0.28790250565542
C            5.47011257309190        1.78826683446769       -0.28846375217437
C            6.29152153758457        2.87903500563574       -0.07852389638749
C            7.43254141655508        2.75957962296212        0.69864115705053
C            7.74430767478895        1.53627078448009        1.27003013204908
C            6.92419482408285        0.44187053797000        1.07300670482863
C            5.50222462034543       -1.82668749452972       -0.07578878338595
C            4.87413519320077       -2.94629802609897        0.47034527170941
C            5.42881742399473       -4.20193019275582        0.31366148937330
C            6.61822431357528       -4.36311572797304       -0.37872332096917
C            7.24813326282107       -3.25409138885494       -0.92044210685094
C            6.69605897056371       -1.99561019891292       -0.77742075221390
C            2.77486335173617       -1.13849603834159       -0.83774742980671
C            1.40627062451214       -0.97079540139134       -0.87363913404799
C           -1.49492864848560       -0.99988669942888       -0.02942463075974
C           -2.88118606572055       -0.91973358364746       -0.00771080430551
C           -3.67444824362436       -2.16185755375287        0.00390759399970
C           -4.69752818232252       -2.36146078199255       -0.91984826961236
C           -5.43083507444685       -3.53347542570356       -0.91228683169377
C           -5.15402771063397       -4.52298743160736        0.01714762049100
C           -4.13156001150427       -4.33817086863956        0.93303499130251
C           -3.39296993318586       -3.16872455817300        0.92370412092354
C           -5.61161306664844        1.34667964858038       -0.84606015507966
C           -6.97766509964099        1.51956791858405       -0.76707708878932
H           -7.60380749831750       -0.45864848792970        1.91995984671715
H           -5.16429521728776       -0.75875386018650        1.76349328977763
H           -3.14257803891949        2.44930322470826       -0.15123446600471
H           -1.47482617529539        3.62459748589095        1.33479796497373
H           -0.20132623018297        5.71378802828635        1.07279973754837
H            1.49119828300543        5.91530314768107       -0.71283592532402
H            1.88910262987540        4.02111770237837       -2.24444090010973
H            0.61883848970942        1.93017958356581       -1.97931790974205
H            1.08966099038086        1.42447611980333        1.48258305844423
H            3.51819103544624        1.12081650479414        1.56490678925533
H            4.58610850465119        1.88138089759123       -0.90203264255418
H            6.04268169970479        3.82730275915195       -0.53255555464646
H            8.07416437702229        3.61322570487008        0.85802870926454
H            8.62886034145675        1.43470419276400        1.88206766056590
H            7.16519352444303       -0.50821687338005        1.52750315671441
H            3.95236172754831       -2.82250141086483        1.02012284032155
H            4.93302823657508       -5.06004677142488        0.74410186498132
H            7.05101531291629       -5.34536994112497       -0.49535124105800
H            8.17295378755187       -3.37033547828789       -1.46682522609843
H            7.18454968584055       -1.13406853689842       -1.20923402069308
H            3.24995659985182       -1.85476228696007       -1.49237746351453
H            0.81820192092666       -1.55342908805199       -1.56838537861493
H           -1.02893483226787       -1.97439312832966        0.00510927049862
H           -4.90908967316924       -1.59783834012547       -1.65452539578375
H           -6.22136556802845       -3.67614609997547       -1.63516791666276
H           -5.73135681801254       -5.43600416423730        0.02515294936537
H           -3.90943458671051       -5.10832071729854        1.65790581893522
H           -2.60324186022538       -3.02203601439527        1.64711013846717
H           -5.05318806418386        1.84516368274300       -1.62489753507443
H           -7.49463686661152        2.15641846128915       -1.47034445073568

          :  Hamiltonian                  GFN2-xTB          :
         :: gradient norm              0.000045259464 Eh/a0 ::
         :: HOMO-LUMO gap              1.928520727246 eV    ::
         :: SCC energy              -115.445463213754 Eh    ::
         :: -> dispersion             -0.104266031641 Eh    ::
         :: -> Gsolv                  -0.050208565634 Eh    ::
         :: repulsion energy           2.221334013134 Eh    ::

    * Orbital Energies and Occupations

         #    Occupation            Energy/Eh            Energy/eV
      -------------------------------------------------------------
         1        2.0000           -0.6669141             -18.1477
       ...           ...                  ...                  ...
        94        2.0000           -0.4169019             -11.3445
        95        2.0000           -0.4141365             -11.2692
        96        2.0000           -0.4089159             -11.1272
        97        2.0000           -0.4077816             -11.0963
        98        2.0000           -0.4067562             -11.0684
        99        2.0000           -0.4060846             -11.0501
       100        2.0000           -0.4052225             -11.0267
       101        2.0000           -0.4045798             -11.0092
       102        2.0000           -0.4039363             -10.9917
       103        2.0000           -0.3967012             -10.7948
       104        2.0000           -0.3950525             -10.7499
       105        2.0000           -0.3809102             -10.3651
       106        2.0000           -0.3490310              -9.4976 (HOMO)
       107                         -0.2781591              -7.5691 (LUMO)
       108                         -0.2524107              -6.8684
       109                         -0.2413522              -6.5675
       110                         -0.2402047              -6.5363
       111                         -0.2306676              -6.2768
       112                         -0.2282344              -6.2106
       113                         -0.2249265              -6.1206
       114                         -0.2245339              -6.1099
       115                         -0.2241323              -6.0990
       116                         -0.2220502              -6.0423
       117                         -0.2206006              -6.0028
       ...                                ...                  ...
       210                          1.1596878              31.5567
      -------------------------------------------------------------
                  HL-Gap            0.0708719 Eh            1.9285 eV

     #   Z          covCN         q      C6AA      α(0)
     1   7 N        0.911    -0.279    27.197     7.543
     2   6 C        1.912     0.118    28.192     8.575
     3   6 C        2.974     0.013    27.725     8.637
     4   6 C        2.924    -0.019    28.480     8.752
     5   6 C        2.923    -0.027    28.674     8.781
     6   6 C        2.977     0.026    27.408     8.588
     7   6 C        2.978     0.002    27.985     8.677
     8   6 C        2.931    -0.040    28.983     8.829
     9   6 C        2.978     0.004    27.924     8.668
    10   6 C        2.978     0.013    27.719     8.636
    11   6 C        2.925    -0.035    28.871     8.812
    12   6 C        2.918    -0.031    28.761     8.794
    13   6 C        2.920    -0.032    28.793     8.799
    14   6 C        2.919    -0.030    28.748     8.792
    15   6 C        2.924    -0.032    28.794     8.800
    16   6 C        2.977     0.007    27.861     8.658
    17   6 C        2.976     0.004    27.937     8.670
    18   6 C        2.923    -0.032    28.794     8.800
    19   6 C        2.921    -0.048    29.201     8.862
    20   6 C        2.923     0.065    26.551     8.450
    21   7 N        2.752    -0.079    22.778     7.088
    22   6 C        2.924     0.066    26.531     8.447
    23   6 C        2.922    -0.048    29.183     8.859
    24   6 C        2.919    -0.030    28.752     8.793
    25   6 C        2.919    -0.039    28.978     8.828
    26   6 C        2.919    -0.030    28.757     8.794
    27   6 C        2.922    -0.048    29.193     8.860
    28   6 C        2.923     0.066    26.530     8.447
    29   6 C        2.922    -0.048    29.195     8.861
    30   6 C        2.919    -0.030    28.756     8.794
    31   6 C        2.919    -0.039    28.979     8.828
    32   6 C        2.919    -0.030    28.755     8.794
    33   6 C        2.922    -0.048    29.191     8.860
    34   6 C        2.920    -0.049    29.218     8.864
    35   6 C        2.924    -0.035    28.871     8.812
    36   6 C        2.931    -0.041    29.007     8.833
    37   6 C        2.977     0.005    27.901     8.664
    38   6 C        2.977     0.012    27.746     8.640
    39   6 C        2.924    -0.033    28.825     8.804
    40   6 C        2.918    -0.030    28.757     8.794
    41   6 C        2.920    -0.032    28.787     8.798
    42   6 C        2.918    -0.030    28.752     8.793
    43   6 C        2.925    -0.035    28.866     8.811
    44   6 C        2.923    -0.030    28.748     8.793
    45   6 C        2.924    -0.019    28.488     8.753
    46   1 H        0.926     0.041     2.437     2.441
    47   1 H        0.926     0.044     2.391     2.418
    48   1 H        0.926     0.038     2.479     2.462
    49   1 H        0.926     0.031     2.569     2.506
    50   1 H        0.926     0.031     2.572     2.508
    51   1 H        0.926     0.031     2.577     2.511
    52   1 H        0.926     0.030     2.590     2.517
    53   1 H        0.926     0.028     2.609     2.526
    54   1 H        0.926     0.032     2.560     2.502
    55   1 H        0.926     0.031     2.569     2.507
    56   1 H        0.926     0.032     2.564     2.504
    57   1 H        0.926     0.033     2.541     2.493
    58   1 H        0.926     0.032     2.563     2.504
    59   1 H        0.926     0.033     2.544     2.494
    60   1 H        0.926     0.031     2.570     2.507
    61   1 H        0.926     0.032     2.564     2.504
    62   1 H        0.926     0.033     2.542     2.493
    63   1 H        0.926     0.032     2.564     2.504
    64   1 H        0.926     0.033     2.545     2.495
    65   1 H        0.926     0.031     2.570     2.507
    66   1 H        0.926     0.032     2.551     2.498
    67   1 H        0.926     0.035     2.515     2.480
    68   1 H        0.926     0.039     2.466     2.456
    69   1 H        0.926     0.027     2.626     2.534
    70   1 H        0.926     0.030     2.592     2.518
    71   1 H        0.926     0.031     2.570     2.507
    72   1 H        0.926     0.032     2.552     2.498
    73   1 H        0.926     0.034     2.536     2.490
    74   1 H        0.926     0.048     2.351     2.398
    75   1 H        0.926     0.042     2.422     2.433

molecular dipole:
                 x           y           z       tot (Debye)
 q only:        2.050      -0.264      -0.089
   full:        2.422      -0.314      -0.113       6.213

 projected vibrational frequencies (cm⁻¹)
eigval :       -0.00     0.00     0.00     0.00     0.00     0.00
eigval :       11.59    15.31    17.12    30.18    32.55    41.49
eigval :       43.31    47.70    55.43    56.70    59.40    62.79
eigval :       66.19    77.56    91.03    99.13   105.96   121.29
eigval :      134.66   142.78   143.46   187.42   198.69   205.36
eigval :      216.89   231.27   233.27   257.82   264.12   290.95
eigval :      305.71   314.80   336.15   347.87   368.24   369.05
eigval :      373.09   373.28   377.20   380.60   387.55   392.77
eigval :      418.14   436.51   464.95   478.53   481.99   489.08
eigval :      497.17   508.08   526.99   535.25   549.54   553.55
eigval :      576.79   584.56   586.20   586.76   589.04   592.50
eigval :      598.49   611.01   614.81   629.54   647.15   660.07
eigval :      664.61   667.60   676.50   682.01   689.39   701.22
eigval :      708.60   718.32   741.97   755.76   759.58   761.12
eigval :      764.42   794.36   816.55   819.29   867.64   868.36
eigval :      871.45   872.52   873.59   877.00   877.81   883.28
eigval :      890.80   892.46   893.48   902.50   905.74   909.54
eigval :      917.48   919.13   919.44   925.69   926.09   927.26
eigval :      928.09   928.68   928.89   930.42   931.03   932.77
eigval :      932.93   959.22   976.21   984.65  1000.90  1003.97
eigval :     1016.14  1038.67  1074.40  1081.42  1082.47  1083.71
eigval :     1088.46  1101.81  1119.93  1121.73  1121.99  1122.26
eigval :     1134.85  1141.18  1177.66  1178.03  1180.97  1182.47
eigval :     1184.86  1186.96  1193.45  1194.96  1200.57  1201.62
eigval :     1212.58  1225.49  1240.99  1244.03  1252.46  1264.79
eigval :     1265.63  1270.38  1276.84  1280.14  1282.90  1283.20
eigval :     1306.52  1309.46  1312.18  1314.07  1315.57  1316.03
eigval :     1318.15  1323.87  1324.93  1350.35  1384.48  1397.53
eigval :     1411.39  1427.93  1432.00  1434.09  1440.58  1454.06
eigval :     1469.77  1472.57  1477.43  1483.02  1488.79  1506.78
eigval :     1532.27  1547.37  1556.01  1574.24  1575.48  1579.21
eigval :     1580.19  1581.14  1587.64  1591.28  1593.02  1598.58
eigval :     1599.00  1600.75  2358.33  3065.23  3066.32  3067.05
eigval :     3067.56  3070.80  3071.19  3071.63  3071.91  3072.86
eigval :     3074.07  3074.91  3074.94  3077.61  3078.61  3078.79
eigval :     3079.15  3080.33  3081.35  3082.54  3082.92  3083.80
eigval :     3085.15  3086.97  3088.25  3088.47  3089.87  3091.46
eigval :     3093.18  3094.45  3097.93

   temp. (K)  partition function   enthalpy   heat capacity  entropy
                                   cal/mol     cal/K/mol   cal/K/mol   J/K/mol
 298.15  VIB  0.189E+18            21605.855    134.068    136.380
         ROT  0.783E+08              888.752      2.981     39.102
         INT  0.148E+26            22494.608    137.049    175.482
         TR   0.133E+29             1481.254      4.968     44.910
         TOT                       23975.8616   142.0171   220.3924   922.1216

       T/K    H(0)-H(T)+PV         H(T)/Eh          T*S/Eh         G(T)/Eh
   ------------------------------------------------------------------------
    298.15    0.382080E-01    0.618663E+00    0.104716E+00    0.513947E+00
   ------------------------------------------------------------------------

         :::::::::::::::::::::::::::::::::::::::::::::::::::::
         ::                  THERMODYNAMIC                  ::
         :::::::::::::::::::::::::::::::::::::::::::::::::::::
         :: total free energy        -112.710182214696 Eh   ::
         ::.................................................::
         :: total energy             -113.224129202963 Eh   ::
         :: zero point energy           0.580454543238 Eh   ::
         :: G(RRHO) w/o ZPVE           -0.066507554971 Eh   ::
         :: G(RRHO) contrib.            0.513946988267 Eh   ::
         :::::::::::::::::::::::::::::::::::::::::::::::::::::

           -------------------------------------------------
          | TOTAL ENERGY             -113.224129202963 Eh   |
          | TOTAL ENTHALPY           -112.605466692250 Eh   |
          | TOTAL FREE ENERGY        -112.710182214696 Eh   |
          | GRADIENT NORM               0.000045248294 Eh/α |
          | HOMO-LUMO GAP               1.928522846953 eV   |
           -------------------------------------------------

 * finished run on 2025/09/09 at 05:21:58.963
