   * xtb version 6.7.1 (edcfbbe) compiled by 'albert@albert-system' on 2024-07-22

   ID    Z sym.   atoms
    1    6 C      1, 3-14, 18-21, 23-28, 31, 32
    2    8 O      2
    3    9 F      15-17
    4    7 N      22, 29
    5   16 S      30
    6    1 H      33-49

          program call               : xtb data2507/toluene/3ca/3ca_toluene_S0_finalOpt.xtbopt.xyz --gfn 2 --uhf 2 --gbsa toluene --ohess vtight --parallel 40 --molden --ceasefiles --namespace data2507/toluene/3ca/3ca_toluene_T1_preOpt
      * Solvation model:               GBSA
        Solvent                        toluene
        Solvent mass                       9.2140E+01 g/mol
          :  Hamiltonian                  GFN2-xTB          :
 * total energy  :   -89.5508382 Eh     change       -0.2186766E-09 Eh
 * total energy  :   -89.5582479 Eh     change       -0.7409705E-02 Eh
 * total energy  :   -89.5602351 Eh     change       -0.1987247E-02 Eh
 * total energy  :   -89.5603647 Eh     change       -0.1296175E-03 Eh
 * total energy  :   -89.5604926 Eh     change       -0.1278814E-03 Eh
 * total energy  :   -89.5605650 Eh     change       -0.7236952E-04 Eh
 * total energy  :   -89.5606309 Eh     change       -0.6596437E-04 Eh
 * total energy  :   -89.5606696 Eh     change       -0.3865583E-04 Eh
 * total energy  :   -89.5607010 Eh     change       -0.3143198E-04 Eh
 * total energy  :   -89.5607194 Eh     change       -0.1831462E-04 Eh
 * total energy  :   -89.5608604 Eh     change       -0.1250643E-05 Eh
 * total energy  :   -89.5608615 Eh     change       -0.1081219E-05 Eh
 * total energy  :   -89.5608623 Eh     change       -0.7701446E-06 Eh
 * total energy  :   -89.5608628 Eh     change       -0.5221900E-06 Eh
 * total energy  :   -89.5608632 Eh     change       -0.4069391E-06 Eh
 * total energy  :   -89.5608635 Eh     change       -0.3503589E-06 Eh
 * total energy  :   -89.5608639 Eh     change       -0.3502988E-06 Eh
 * total energy  :   -89.5608643 Eh     change       -0.4131781E-06 Eh
 * total energy  :   -89.5608643 Eh     change       -0.5468451E-08 Eh
   *** GEOMETRY OPTIMIZATION CONVERGED AFTER 44 ITERATIONS ***

 final structure:
================
49
 xtb: 6.7.1 (edcfbbe)
C            8.99739548779784       -0.49305282802829       -0.03957560442280
O            7.97015439808754       -1.44856703677426        0.13205699075005
C            6.68124937436597       -1.04985876961603        0.08403334786923
C            5.71879842261016       -2.05947789944357        0.26863202251498
C            4.38267261335821       -1.77347593519061        0.24256901928521
C            3.92459652041222       -0.44923278108973        0.02537504026594
C            2.55250329799655       -0.13241946004290       -0.00718306032361
C            1.44178578428452       -0.98029551700767        0.11737108303780
C            0.21098586940701       -0.37992480742141       -0.00753055651587
C           -1.04388552041170       -1.10296535765184       -0.02035840713825
C           -2.06742769043667       -0.76854784072476       -0.91512490026838
C           -3.24857959543715       -1.47783832590724       -0.92984692685220
C           -3.43001378704411       -2.53938114947035       -0.04781198676849
C           -4.69842682370906       -3.32826663617253       -0.07229926991325
F           -5.75723898805718       -2.63868164875002       -0.53441552734227
F           -5.06139986010520       -3.79637742199714        1.13847148250969
F           -4.61599559312791       -4.42847676161000       -0.86486943476918
C           -2.41383338056805       -2.90163572016270        0.83347108255917
C           -1.23449153477594       -2.19039376487432        0.84162519361852
C            0.32136278228626        1.05423533172126       -0.16019125710670
C           -0.67192044166290        2.01115428298080       -0.08074061504286
N           -1.98016007535689        1.78002068536116        0.14210693442003
C           -2.57632427384495        2.98350913500690        0.15362704855921
C           -3.92436324189216        3.31565549984258        0.34106593818706
C           -4.26636491215902        4.64891902751313        0.31119002687442
C           -3.31285964270224        5.65250884129570        0.10206179260377
C           -1.97182432849951        5.35588545210906       -0.08696054721000
C           -1.61412234362152        4.02213852450971       -0.06093627308020
N           -0.42213825802134        3.37691864300310       -0.20319753159763
S            2.00758036879332        1.53575096085833       -0.26801117853097
C            4.90648779352788        0.55119560220767       -0.15761513989855
C            6.24838331099735        0.26405160556450       -0.13063891376768
H            9.92939032677459       -1.04957056531324        0.04246117633286
H            8.94012369785650       -0.02107575368716       -1.02432277482492
H            8.96057500122002        0.27348734067195        0.73947193225662
H            6.06865310948051       -3.06687549686166        0.43276495890960
H            3.66951178978616       -2.56808654497820        0.38829562520638
H            1.55472263837526       -2.04206884912270        0.24013309108548
H           -1.92284813627947        0.03635461099591       -1.61573228722823
H           -4.03501262432887       -1.21423169574929       -1.62064563094420
H           -2.56185963924707       -3.72839603565549        1.51189733516250
H           -0.45822512281745       -2.45701917221595        1.54208086907813
H           -4.65461432341359        2.53843238643855        0.50008052546339
H           -5.29818305793859        4.93535777176713        0.45181829010392
H           -3.63160605834541        6.68388565344692        0.08775041476565
H           -1.24036920979359        6.13353543905557       -0.24693242166476
H            0.48048622056333        3.79173725174463       -0.35802386868319
H            4.58192649587582        1.56779045436851       -0.32407460250387
H            6.95902131984309        1.06185176083308       -0.27584364537721

          :  Hamiltonian                  GFN2-xTB          :
         :: gradient norm              0.000046296684 Eh/a0 ::
         :: HOMO-LUMO gap              1.013959756446 eV    ::
         :: SCC energy               -90.814362019770 Eh    ::
         :: -> dispersion             -0.061095491984 Eh    ::
         :: -> Gsolv                  -0.037611239477 Eh    ::
         :: repulsion energy           1.253497707782 Eh    ::

    * Orbital Energies and Occupations

         #    Occupation            Energy/Eh            Energy/eV
      -------------------------------------------------------------
         1        2.0000           -0.8803907             -23.9567
       ...           ...                  ...                  ...
        69        2.0000           -0.4394141             -11.9571
        70        2.0000           -0.4376307             -11.9085
        71        2.0000           -0.4306537             -11.7187
        72        2.0000           -0.4285688             -11.6619
        73        2.0000           -0.4241729             -11.5423
        74        2.0000           -0.4235189             -11.5245
        75        2.0000           -0.4220744             -11.4852
        76        2.0000           -0.4005499             -10.8995
        77        2.0000           -0.3957514             -10.7689
        78        2.0000           -0.3919908             -10.6666
        79        2.0000           -0.3840250             -10.4499
        80        1.0000           -0.3622517              -9.8574
        81        1.0000           -0.2990795              -8.1384 (HOMO)
        82                         -0.2618172              -7.1244 (LUMO)
        83                         -0.2391600              -6.5079
        84                         -0.2369706              -6.4483
        85                         -0.2356178              -6.4115
        86                         -0.2186730              -5.9504
        87                         -0.2149458              -5.8490
        88                         -0.2101250              -5.7178
        89                         -0.1798554              -4.8941
        90                         -0.1519057              -4.1336
        91                         -0.1374476              -3.7401
        92                         -0.1088227              -2.9612
       ...                                ...                  ...
       150                          0.6919150              18.8280
      -------------------------------------------------------------
                  HL-Gap            0.0372622 Eh            1.0140 eV

     #   Z          covCN         q      C6AA      α(0)
     1   6 C        3.643     0.026    20.477     6.505
     2   8 O        1.705    -0.254    18.205     5.761
     3   6 C        2.864     0.150    24.737     8.153
     4   6 C        2.914    -0.048    29.201     8.861
     5   6 C        2.919    -0.032    28.795     8.800
     6   6 C        2.995     0.008    27.819     8.652
     7   6 C        2.978     0.032    27.288     8.569
     8   6 C        3.058    -0.046    29.080     8.843
     9   6 C        3.084     0.001    27.915     8.661
    10   6 C        2.972     0.026    27.420     8.589
    11   6 C        2.924    -0.018    28.462     8.749
    12   6 C        2.917    -0.022    28.546     8.761
    13   6 C        2.976    -0.036    28.894     8.817
    14   6 C        3.336     0.484    17.305     6.587
    15   9 F        0.791    -0.219    11.435     3.994
    16   9 F        0.791    -0.221    11.449     3.997
    17   9 F        0.790    -0.229    11.542     4.013
    18   6 C        2.917    -0.024    28.613     8.772
    19   6 C        2.925    -0.030    28.745     8.792
    20   6 C        2.979     0.002    27.972     8.675
    21   6 C        3.175     0.140    24.593     8.099
    22   7 N        1.877    -0.317    29.062     7.991
    23   6 C        3.169     0.084    25.784     8.296
    24   6 C        2.908    -0.050    29.236     8.866
    25   6 C        2.919    -0.038    28.935     8.821
    26   6 C        2.925    -0.031    28.784     8.798
    27   6 C        2.905    -0.061    29.515     8.908
    28   6 C        3.055     0.056    26.692     8.473
    29   7 N        2.767    -0.145    24.129     7.296
    30  16 S        2.257    -0.126   146.345    20.361
    31   6 C        2.924    -0.031    28.772     8.796
    32   6 C        2.910    -0.060    29.481     8.903
    33   1 H        0.925     0.076     2.024     2.225
    34   1 H        0.924     0.059     2.216     2.328
    35   1 H        0.924     0.059     2.216     2.328
    36   1 H        0.926     0.058     2.220     2.330
    37   1 H        0.926     0.052     2.291     2.367
    38   1 H        0.926     0.055     2.264     2.353
    39   1 H        0.926     0.055     2.255     2.348
    40   1 H        0.926     0.054     2.273     2.357
    41   1 H        0.926     0.055     2.262     2.352
    42   1 H        0.926     0.059     2.205     2.322
    43   1 H        0.926     0.042     2.425     2.435
    44   1 H        0.926     0.040     2.442     2.444
    45   1 H        0.926     0.044     2.400     2.423
    46   1 H        0.926     0.037     2.492     2.469
    47   1 H        0.860     0.173     1.254     1.754
    48   1 H        0.926     0.055     2.258     2.350
    49   1 H        0.926     0.055     2.254     2.348

molecular dipole:
                 x           y           z       tot (Debye)
 q only:        4.626       1.537      -0.080
   full:        4.658       1.762      -0.126      12.662

 projected vibrational frequencies (cm⁻¹)
eigval :       -0.00    -0.00    -0.00     0.00     0.00     0.00
eigval :        9.79    16.57    20.43    26.65    37.16    44.24
eigval :       54.43    59.45    87.68    99.02   102.94   118.93
eigval :      132.40   158.96   160.73   184.36   197.44   216.69
eigval :      231.67   238.20   240.41   261.09   297.75   320.54
eigval :      333.60   349.08   371.17   372.92   374.95   380.92
eigval :      406.46   413.90   432.97   448.70   461.02   463.31
eigval :      472.69   506.42   507.50   518.80   523.26   533.94
eigval :      549.14   582.92   588.84   594.95   601.40   609.72
eigval :      617.65   626.45   666.73   667.83   690.92   703.63
eigval :      722.71   754.88   780.18   799.23   802.31   811.91
eigval :      820.13   824.33   841.75   848.38   860.14   865.01
eigval :      882.50   892.37   892.48   907.21   910.36   910.75
eigval :      920.72   931.27   963.76   985.55   992.53  1022.85
eigval :     1028.17  1045.19  1048.79  1065.47  1078.37  1109.27
eigval :     1122.90  1129.54  1143.88  1148.97  1163.42  1171.80
eigval :     1175.39  1182.54  1194.30  1209.48  1232.82  1244.45
eigval :     1252.28  1258.11  1267.94  1270.83  1290.73  1305.25
eigval :     1319.62  1329.42  1332.50  1363.20  1373.97  1391.89
eigval :     1401.15  1408.02  1424.29  1429.44  1457.56  1460.26
eigval :     1466.51  1479.33  1493.63  1503.37  1527.97  1543.18
eigval :     1566.16  1575.57  1584.95  1592.46  2948.96  2958.76
eigval :     3030.42  3078.74  3081.52  3084.25  3088.91  3094.18
eigval :     3094.75  3098.14  3100.89  3104.64  3108.95  3112.70
eigval :     3120.66  3136.34  3478.91

   temp. (K)  partition function   enthalpy   heat capacity  entropy
                                   cal/mol     cal/K/mol   cal/K/mol   J/K/mol
 298.15  VIB  0.500E+13            15822.162     96.408     99.015
         ROT  0.415E+08              888.752      2.981     37.841
         INT  0.208E+21            16710.915     99.389    136.857
         TR   0.925E+28             1481.254      4.968     44.184
         TOT                       18192.1686   104.3567   181.0410   757.4755

       T/K    H(0)-H(T)+PV         H(T)/Eh          T*S/Eh         G(T)/Eh
   ------------------------------------------------------------------------
    298.15    0.289911E-01    0.376454E+00    0.860184E-01    0.290436E+00
   ------------------------------------------------------------------------

         :::::::::::::::::::::::::::::::::::::::::::::::::::::
         ::                  THERMODYNAMIC                  ::
         :::::::::::::::::::::::::::::::::::::::::::::::::::::
         :: total free energy         -89.270428528923 Eh   ::
         ::.................................................::
         :: total energy              -89.560864305832 Eh   ::
         :: zero point energy           0.347463124278 Eh   ::
         :: G(RRHO) w/o ZPVE           -0.057027347369 Eh   ::
         :: G(RRHO) contrib.            0.290435776909 Eh   ::
         :::::::::::::::::::::::::::::::::::::::::::::::::::::

           -------------------------------------------------
          | TOTAL ENERGY              -89.560864305832 Eh   |
          | TOTAL ENTHALPY            -89.184410115494 Eh   |
          | TOTAL FREE ENERGY         -89.270428528923 Eh   |
          | GRADIENT NORM               0.000046327356 Eh/α |
          | HOMO-LUMO GAP               1.013957419363 eV   |
           -------------------------------------------------

 * finished run on 2025/08/25 at 16:09:59.481
