   * xtb version 6.7.1 (edcfbbe) compiled by 'albert@albert-system' on 2024-07-22

   ID    Z sym.   atoms
    1    6 C      1, 3-14, 18-21, 23-28, 31, 32
    2    8 O      2
    3    9 F      15-17
    4    7 N      22, 29
    5   16 S      30
    6    1 H      33-49

          program call               : xtb data2507/toluene/3ca/3ca_toluene_S0_crest.xyz --gfn 2 --gbsa toluene --ohess vtight --parallel 40 --molden --ceasefiles --namespace data2507/toluene/3ca/3ca_toluene_S0_finalOpt
      * Solvation model:               GBSA
        Solvent                        toluene
        Solvent mass                       9.2140E+01 g/mol
          :  Hamiltonian                  GFN2-xTB          :
 * total energy  :   -89.6316952 Eh     change       -0.3360668E-08 Eh
 * total energy  :   -89.6317426 Eh     change       -0.4739621E-04 Eh
 * total energy  :   -89.6317604 Eh     change       -0.1783239E-04 Eh
 * total energy  :   -89.6317643 Eh     change       -0.3814285E-05 Eh
 * total energy  :   -89.6317677 Eh     change       -0.3450425E-05 Eh
 * total energy  :   -89.6317700 Eh     change       -0.2333943E-05 Eh
 * total energy  :   -89.6317712 Eh     change       -0.1190493E-05 Eh
 * total energy  :   -89.6317724 Eh     change       -0.1207649E-05 Eh
 * total energy  :   -89.6317736 Eh     change       -0.1164935E-05 Eh
 * total energy  :   -89.6317745 Eh     change       -0.9460894E-06 Eh
 * total energy  :   -89.6317758 Eh     change       -0.5204136E-06 Eh
 * total energy  :   -89.6317762 Eh     change       -0.3771946E-06 Eh
 * total energy  :   -89.6317765 Eh     change       -0.3112936E-06 Eh
 * total energy  :   -89.6317768 Eh     change       -0.3143858E-06 Eh
 * total energy  :   -89.6317771 Eh     change       -0.2557970E-06 Eh
 * total energy  :   -89.6317773 Eh     change       -0.2173824E-06 Eh
 * total energy  :   -89.6317775 Eh     change       -0.2186574E-06 Eh
 * total energy  :   -89.6317777 Eh     change       -0.1828943E-06 Eh
 * total energy  :   -89.6317778 Eh     change       -0.9840656E-07 Eh
   *** GEOMETRY OPTIMIZATION CONVERGED AFTER 20 ITERATIONS ***

 final structure:
================
49
 xtb: 6.7.1 (edcfbbe)
C            9.00103427620789       -0.48130134832850        0.00699916694303
O            7.98502251792621       -1.46266355908767        0.02399416628021
C            6.68755428734658       -1.06297914222186        0.01150251058972
C            5.73216349233494       -2.08424281496365        0.03679221145060
C            4.38895159825510       -1.79346870844628        0.02751676232015
C            3.94251775747917       -0.46591547566343       -0.00694836173522
C            2.53231538455134       -0.14786464968649       -0.01565570068999
C            1.45357687409652       -0.99291669577411        0.00985455854817
C            0.19977981131793       -0.34824076111599       -0.02487388350689
C           -1.06311961240000       -1.09298643604752       -0.02610654120963
C           -2.03754526705490       -0.85491710463278       -0.99159339309420
C           -3.21262960980185       -1.57929768099663       -0.99347203660476
C           -3.42204763916341       -2.55194752563714       -0.02244205382929
C           -4.68381684762912       -3.35822575350489       -0.03581178939056
F           -5.73553038219689       -2.70249287966055       -0.55837393634017
F           -5.07092916213663       -3.76598462886139        1.18741449844725
F           -4.56660216466135       -4.49238981364596       -0.76997762221013
C           -2.45103235312788       -2.81235219242711        0.93639680211346
C           -1.27666434640013       -2.08486520018261        0.92841491284186
C            0.31796919021342        1.02759365682719       -0.06225099465861
C           -0.70702608158973        2.02317855954249       -0.01594727265869
N           -1.99264282941206        1.78670008166974        0.09250811692966
C           -2.59940720122720        3.01058894378138        0.11627332620008
C           -3.94782780200901        3.34409080456145        0.21120509211891
C           -4.27653945172992        4.68308513516985        0.20530121889814
C           -3.30210503957094        5.68050599327941        0.10817171516332
C           -1.95871322419279        5.37410547519391        0.01299899476689
C           -1.62040767010825        4.03112679717124        0.01710621596121
N           -0.42456409916102        3.36913125072734       -0.06556306009118
S            1.99106087435422        1.50646437679231       -0.06246799076674
C            4.90449022040441        0.54418736467994       -0.03245283770945
C            6.25547482262598        0.26042843365309       -0.02356641567134
H            9.93896855156336       -1.03375033206703        0.02503431080770
H            8.95375352422246        0.12545435218206       -0.90196774660418
H            8.94340103877646        0.16639237683746        0.88668149435695
H            6.07790187679399       -3.10594464183270        0.06329301037617
H            3.67760183673530       -2.60312346421807        0.04673240104115
H            1.53895534184024       -2.06365518015708        0.03019520198215
H           -1.87278574156309       -0.10223604196525       -1.74474171026310
H           -3.96978372940689       -1.39116762287628       -1.73917708414346
H           -2.62076902251277       -3.57276613793520        1.68362335108029
H           -0.52520976525646       -2.27724469584470        1.67891890473409
H           -4.69697340348973        2.57169429055388        0.28595544379048
H           -5.31405698762162        4.97482723704952        0.27688453448164
H           -3.60957550839267        6.71566555903307        0.10802860143458
H           -1.20660130151925        6.14517043000259       -0.06185095903381
H            0.49062362455412        3.78116075691589       -0.14145519473559
H            4.58503244460758        1.57629570307404       -0.05928446072564
H            6.96096227712835        1.07542298878311       -0.04416496228508

          :  Hamiltonian                  GFN2-xTB          :
         :: gradient norm              0.000050672093 Eh/a0 ::
         :: HOMO-LUMO gap              2.135983581452 eV    ::
         :: SCC energy               -90.899831760692 Eh    ::
         :: -> dispersion             -0.060926091757 Eh    ::
         :: -> Gsolv                  -0.036467370795 Eh    ::
         :: repulsion energy           1.268053987015 Eh    ::

    * Orbital Energies and Occupations

         #    Occupation            Energy/Eh            Energy/eV
      -------------------------------------------------------------
         1        2.0000           -0.8828017             -24.0223
       ...           ...                  ...                  ...
        68        2.0000           -0.4440277             -12.0826
        69        2.0000           -0.4411760             -12.0050
        70        2.0000           -0.4363196             -11.8729
        71        2.0000           -0.4314643             -11.7407
        72        2.0000           -0.4278160             -11.6415
        73        2.0000           -0.4271333             -11.6229
        74        2.0000           -0.4224141             -11.4945
        75        2.0000           -0.4164548             -11.3323
        76        2.0000           -0.4049461             -11.0191
        77        2.0000           -0.3947883             -10.7427
        78        2.0000           -0.3921050             -10.6697
        79        2.0000           -0.3856109             -10.4930
        80        2.0000           -0.3694028             -10.0520 (HOMO)
        81                         -0.2909068              -7.9160 (LUMO)
        82                         -0.2599099              -7.0725
        83                         -0.2449243              -6.6647
        84                         -0.2379007              -6.4736
        85                         -0.2328910              -6.3373
        86                         -0.2188079              -5.9541
        87                         -0.2133574              -5.8057
        88                         -0.2075943              -5.6489
        89                         -0.1795804              -4.8866
        90                         -0.1517771              -4.1301
        91                         -0.1399432              -3.8080
       ...                                ...                  ...
       150                          0.6957981              18.9336
      -------------------------------------------------------------
                  HL-Gap            0.0784960 Eh            2.1360 eV

     #   Z          covCN         q      C6AA      α(0)
     1   6 C        3.643     0.032    20.388     6.491
     2   8 O        1.705    -0.277    18.592     5.822
     3   6 C        2.864     0.146    24.815     8.165
     4   6 C        2.918    -0.053    29.325     8.880
     5   6 C        2.924    -0.033    28.819     8.804
     6   6 C        2.998    -0.001    28.045     8.687
     7   6 C        2.983     0.031    27.298     8.570
     8   6 C        3.119    -0.056    29.211     8.852
     9   6 C        3.145     0.001    27.756     8.619
    10   6 C        2.974     0.032    27.275     8.567
    11   6 C        2.925    -0.016    28.414     8.742
    12   6 C        2.919    -0.019    28.494     8.754
    13   6 C        2.977    -0.029    28.718     8.790
    14   6 C        3.336     0.485    17.295     6.586
    15   9 F        0.791    -0.217    11.416     3.991
    16   9 F        0.791    -0.218    11.422     3.992
    17   9 F        0.791    -0.226    11.506     4.007
    18   6 C        2.919    -0.022    28.562     8.764
    19   6 C        2.927    -0.026    28.647     8.777
    20   6 C        2.990    -0.004    28.105     8.696
    21   6 C        3.203     0.148    24.276     8.027
    22   7 N        1.885    -0.316    29.030     7.987
    23   6 C        3.197     0.070    25.917     8.299
    24   6 C        2.910    -0.046    29.152     8.853
    25   6 C        2.922    -0.040    28.995     8.830
    26   6 C        2.926    -0.037    28.913     8.818
    27   6 C        2.907    -0.056    29.397     8.890
    28   6 C        3.076     0.044    26.936     8.509
    29   7 N        2.779    -0.135    23.926     7.265
    30  16 S        2.361    -0.056   143.368    20.152
    31   6 C        2.927    -0.033    28.820     8.804
    32   6 C        2.915    -0.065    29.614     8.924
    33   1 H        0.925     0.070     2.087     2.259
    34   1 H        0.924     0.051     2.307     2.375
    35   1 H        0.924     0.051     2.307     2.375
    36   1 H        0.926     0.052     2.294     2.369
    37   1 H        0.926     0.048     2.342     2.393
    38   1 H        0.926     0.053     2.282     2.362
    39   1 H        0.926     0.060     2.201     2.320
    40   1 H        0.926     0.059     2.205     2.322
    41   1 H        0.926     0.060     2.198     2.319
    42   1 H        0.926     0.064     2.158     2.297
    43   1 H        0.926     0.040     2.445     2.445
    44   1 H        0.926     0.038     2.481     2.463
    45   1 H        0.926     0.040     2.451     2.448
    46   1 H        0.926     0.035     2.512     2.478
    47   1 H        0.860     0.173     1.255     1.755
    48   1 H        0.926     0.050     2.326     2.385
    49   1 H        0.926     0.049     2.331     2.387

molecular dipole:
                 x           y           z       tot (Debye)
 q only:        3.614       1.513      -0.051
   full:        3.735       1.732      -0.070      10.466

 projected vibrational frequencies (cm⁻¹)
eigval :       -0.00    -0.00    -0.00     0.00     0.00     0.00
eigval :      -10.89    11.37    17.85    24.02    33.32    35.08
eigval :       45.94    60.25    76.16    91.17   105.03   127.30
eigval :      139.32   158.75   162.80   190.11   205.16   223.88
eigval :      235.60   239.88   241.52   277.37   311.30   323.89
eigval :      344.23   364.03   369.92   372.87   376.26   393.35
eigval :      413.22   435.48   446.49   464.84   471.14   475.76
eigval :      508.79   518.14   522.72   540.80   541.92   548.74
eigval :      558.66   591.03   598.12   605.07   610.72   619.61
eigval :      634.35   665.63   675.93   692.68   704.24   713.56
eigval :      735.83   773.51   795.72   805.73   807.24   818.38
eigval :      831.39   850.78   858.76   866.58   867.43   874.82
eigval :      899.75   899.88   912.75   913.67   921.23   922.54
eigval :      924.28   945.72   977.88   996.46  1013.80  1033.04
eigval :     1052.45  1053.36  1064.99  1069.43  1108.08  1116.31
eigval :     1130.75  1135.55  1142.26  1152.75  1167.22  1176.18
eigval :     1189.45  1191.44  1203.13  1219.87  1229.73  1251.69
eigval :     1265.51  1267.63  1274.25  1289.21  1297.79  1324.72
eigval :     1329.48  1343.95  1366.31  1377.29  1395.19  1403.97
eigval :     1405.43  1412.95  1444.81  1463.07  1470.30  1474.70
eigval :     1487.57  1498.58  1503.97  1554.72  1559.22  1573.06
eigval :     1589.93  1591.72  1593.98  1619.03  2941.59  2952.09
eigval :     3027.24  3075.85  3076.20  3079.40  3089.63  3091.27
eigval :     3096.35  3097.24  3099.95  3101.49  3109.15  3110.78
eigval :     3116.59  3142.80  3463.53

   temp. (K)  partition function   enthalpy   heat capacity  entropy
                                   cal/mol     cal/K/mol   cal/K/mol   J/K/mol
 298.15  VIB  0.974E+13            15576.303     94.198     97.932
         ROT  0.417E+08              888.752      2.981     37.850
         INT  0.406E+21            16465.055     97.179    135.782
         TR   0.925E+28             1481.254      4.968     44.184
         TOT                       17946.3091   102.1471   179.9667   752.9806

       T/K    H(0)-H(T)+PV         H(T)/Eh          T*S/Eh         G(T)/Eh
   ------------------------------------------------------------------------
    298.15    0.285993E-01    0.379158E+00    0.855080E-01    0.293650E+00
   ------------------------------------------------------------------------

         :::::::::::::::::::::::::::::::::::::::::::::::::::::
         ::                  THERMODYNAMIC                  ::
         :::::::::::::::::::::::::::::::::::::::::::::::::::::
         :: total free energy         -89.338127537630 Eh   ::
         ::.................................................::
         :: total energy              -89.631777772174 Eh   ::
         :: zero point energy           0.350558949299 Eh   ::
         :: G(RRHO) w/o ZPVE           -0.056908714754 Eh   ::
         :: G(RRHO) contrib.            0.293650234544 Eh   ::
         :::::::::::::::::::::::::::::::::::::::::::::::::::::

           -------------------------------------------------
          | TOTAL ENERGY              -89.631777772174 Eh   |
          | TOTAL ENTHALPY            -89.252619558860 Eh   |
          | TOTAL FREE ENERGY         -89.338127537630 Eh   |
          | GRADIENT NORM               0.000050668164 Eh/α |
          | HOMO-LUMO GAP               2.135983636389 eV   |
           -------------------------------------------------

 * finished run on 2025/08/25 at 16:09:56.406
