   * xtb version 6.7.1 (edcfbbe) compiled by 'albert@albert-system' on 2024-07-22

   ID    Z sym.   atoms
    1    6 C      1, 3-14, 18-21, 23-28, 31, 32
    2    8 O      2
    3    9 F      15-17
    4    7 N      22, 29
    5   16 S      30
    6    1 H      33-49

          program call               : xtb data2507/toluene/3ca/3ca_toluene_T1_crest.xyz --gfn 2 --uhf 2 --gbsa toluene --ohess vtight --parallel 40 --molden --ceasefiles --namespace data2507/toluene/3ca/3ca_toluene_T1_finalOpt
      * Solvation model:               GBSA
        Solvent                        toluene
        Solvent mass                       9.2140E+01 g/mol
          :  Hamiltonian                  GFN2-xTB          :
 * total energy  :   -89.5607790 Eh     change       -0.2288445E-08 Eh
 * total energy  :   -89.5608370 Eh     change       -0.5797506E-04 Eh
 * total energy  :   -89.5608587 Eh     change       -0.2170212E-04 Eh
 * total energy  :   -89.5608622 Eh     change       -0.3515552E-05 Eh
 * total energy  :   -89.5608641 Eh     change       -0.1907250E-05 Eh
 * total energy  :   -89.5608650 Eh     change       -0.9199745E-06 Eh
 * total energy  :   -89.5608657 Eh     change       -0.6534012E-06 Eh
 * total energy  :   -89.5608662 Eh     change       -0.4820837E-06 Eh
 * total energy  :   -89.5608666 Eh     change       -0.4756104E-06 Eh
 * total energy  :   -89.5608670 Eh     change       -0.3261921E-06 Eh
 * total energy  :   -89.5608672 Eh     change       -0.2778459E-06 Eh
 * total energy  :   -89.5608674 Eh     change       -0.1617014E-06 Eh
 * total energy  :   -89.5608675 Eh     change       -0.5950051E-07 Eh
   *** GEOMETRY OPTIMIZATION CONVERGED AFTER 13 ITERATIONS ***

 final structure:
================
49
 xtb: 6.7.1 (edcfbbe)
C            9.00303220052981       -0.51912577334081       -0.07322762504913
O            7.97435949082874       -1.47287619156125        0.09987082565625
C            6.68614820189816       -1.07087925896760        0.06111253407116
C            5.72235697713030       -2.07962807312844        0.24342055688623
C            4.38674222101934       -1.79074562866013        0.22460219434985
C            3.93044593858434       -0.46425152832191        0.01746090033750
C            2.55886078194432       -0.14496076339890       -0.00924314318396
C            1.44695986662178       -0.99184803903193        0.11323832738274
C            0.21725820611606       -0.38825347172372       -0.00463711047926
C           -1.04080930198807       -1.10584711423781       -0.01823122917834
C           -2.06298232129076       -0.76369871549875       -0.91169856623096
C           -3.24939719451965       -1.46400049625308       -0.92443087371624
C           -3.43778266358759       -2.52357572331606       -0.04133125846300
C           -4.71456928727271       -3.29888013014809       -0.06460703653475
F           -5.77371499978480       -2.58471326523124       -0.48809782047503
F           -5.06152872839220       -3.79746611905213        1.13821956408438
F           -4.65880568476557       -4.37627603620094       -0.89024054656379
C           -2.42254296772188       -2.89451840886257        0.83720317729607
C           -1.23748762373059       -2.19254724882223        0.84291245242346
C            0.32976679201731        1.04658559986016       -0.14835189291693
C           -0.66374927307817        2.00217638353317       -0.05721253919035
N           -1.97015797131329        1.76650648833237        0.17168473231647
C           -2.56883288775583        2.96849837897957        0.19528323635631
C           -3.91641815465922        3.29602143335129        0.39361950385414
C           -4.26174171355366        4.62862234141830        0.37523919361772
C           -3.31185702187799        5.63581248861716        0.16708127898360
C           -1.97130194552358        5.34372629155397       -0.03234319185648
C           -1.61021338473576        4.01072654668374       -0.01778721203148
N           -0.41755118099265        3.36916830608489       -0.17154119264433
S            2.01613357566126        1.52601832404311       -0.25844843771092
C            4.91372549018363        0.53552041787224       -0.16193258320736
C            6.25512110628478        0.24543113417593       -0.14225341286003
H            9.93394782955387       -1.07901710689242       -0.00261344920805
H            8.93929197506246       -0.04001388988426       -1.05412441174133
H            8.97478559897561        0.24193697847471        0.71153025108308
H            6.07078171555153       -3.08877971591550        0.39962539270249
H            3.67258208299500       -2.58485288371534        0.36816037158495
H            1.55805173013031       -2.05456090472142        0.22950627070831
H           -1.91314381152743        0.03975461866456       -1.61294589873464
H           -4.03508091728272       -1.19460592101119       -1.61385775800933
H           -2.57548764793489       -3.72010994558055        1.51590911778620
H           -0.46166931301111       -2.46539301290110        1.54147103153193
H           -4.64373043601024        2.51585853668793        0.55172585727594
H           -5.29329170133166        4.91160803065666        0.52453853808723
H           -3.63304734824701        6.66651354115984        0.16199406039364
H           -1.24279103622094        6.12433580290221       -0.19132671531925
H            0.48339613042837        3.78682276751057       -0.32860242382310
H            4.59065160421311        1.55397470781337       -0.31970930466543
H            6.96688598798000        1.04281523960346       -0.28429395317610

          :  Hamiltonian                  GFN2-xTB          :
         :: gradient norm              0.000066750741 Eh/a0 ::
         :: HOMO-LUMO gap              1.014427486042 eV    ::
         :: SCC energy               -90.814428463894 Eh    ::
         :: -> dispersion             -0.061124069155 Eh    ::
         :: -> Gsolv                  -0.037605688910 Eh    ::
         :: repulsion energy           1.253560988022 Eh    ::

    * Orbital Energies and Occupations

         #    Occupation            Energy/Eh            Energy/eV
      -------------------------------------------------------------
         1        2.0000           -0.8803843             -23.9565
       ...           ...                  ...                  ...
        69        2.0000           -0.4394200             -11.9572
        70        2.0000           -0.4376754             -11.9098
        71        2.0000           -0.4306139             -11.7176
        72        2.0000           -0.4285001             -11.6601
        73        2.0000           -0.4241316             -11.5412
        74        2.0000           -0.4235175             -11.5245
        75        2.0000           -0.4220311             -11.4841
        76        2.0000           -0.4005811             -10.9004
        77        2.0000           -0.3957549             -10.7690
        78        2.0000           -0.3919579             -10.6657
        79        2.0000           -0.3839397             -10.4475
        80        1.0000           -0.3621874              -9.8556
        81        1.0000           -0.2990432              -8.1374 (HOMO)
        82                         -0.2617638              -7.1230 (LUMO)
        83                         -0.2391460              -6.5075
        84                         -0.2369633              -6.4481
        85                         -0.2355730              -6.4103
        86                         -0.2186141              -5.9488
        87                         -0.2149425              -5.8489
        88                         -0.2101114              -5.7174
        89                         -0.1798277              -4.8934
        90                         -0.1519002              -4.1334
        91                         -0.1373768              -3.7382
        92                         -0.1089244              -2.9640
       ...                                ...                  ...
       150                          0.6920185              18.8308
      -------------------------------------------------------------
                  HL-Gap            0.0372795 Eh            1.0144 eV

     #   Z          covCN         q      C6AA      α(0)
     1   6 C        3.643     0.026    20.476     6.505
     2   8 O        1.705    -0.254    18.206     5.761
     3   6 C        2.864     0.150    24.738     8.153
     4   6 C        2.914    -0.048    29.201     8.861
     5   6 C        2.919    -0.032    28.796     8.800
     6   6 C        2.995     0.008    27.819     8.652
     7   6 C        2.978     0.032    27.289     8.569
     8   6 C        3.058    -0.046    29.081     8.844
     9   6 C        3.084     0.001    27.915     8.661
    10   6 C        2.972     0.026    27.418     8.589
    11   6 C        2.924    -0.018    28.456     8.748
    12   6 C        2.918    -0.022    28.544     8.761
    13   6 C        2.976    -0.036    28.892     8.817
    14   6 C        3.336     0.484    17.305     6.587
    15   9 F        0.791    -0.219    11.438     3.995
    16   9 F        0.791    -0.220    11.445     3.996
    17   9 F        0.790    -0.229    11.542     4.013
    18   6 C        2.917    -0.024    28.615     8.772
    19   6 C        2.925    -0.030    28.743     8.792
    20   6 C        2.979     0.002    27.971     8.675
    21   6 C        3.175     0.140    24.595     8.099
    22   7 N        1.877    -0.317    29.062     7.991
    23   6 C        3.170     0.084    25.784     8.296
    24   6 C        2.908    -0.050    29.235     8.866
    25   6 C        2.919    -0.038    28.935     8.821
    26   6 C        2.925    -0.031    28.785     8.798
    27   6 C        2.905    -0.061    29.515     8.908
    28   6 C        3.056     0.056    26.692     8.473
    29   7 N        2.767    -0.145    24.128     7.295
    30  16 S        2.256    -0.126   146.337    20.360
    31   6 C        2.924    -0.031    28.772     8.796
    32   6 C        2.910    -0.060    29.481     8.903
    33   1 H        0.925     0.076     2.024     2.225
    34   1 H        0.924     0.059     2.216     2.328
    35   1 H        0.924     0.059     2.216     2.328
    36   1 H        0.926     0.058     2.220     2.330
    37   1 H        0.926     0.052     2.291     2.367
    38   1 H        0.926     0.054     2.264     2.353
    39   1 H        0.926     0.055     2.258     2.350
    40   1 H        0.926     0.054     2.276     2.359
    41   1 H        0.926     0.055     2.258     2.350
    42   1 H        0.926     0.059     2.205     2.322
    43   1 H        0.926     0.042     2.426     2.436
    44   1 H        0.926     0.040     2.442     2.444
    45   1 H        0.926     0.044     2.400     2.423
    46   1 H        0.926     0.037     2.492     2.469
    47   1 H        0.860     0.173     1.254     1.754
    48   1 H        0.926     0.055     2.259     2.350
    49   1 H        0.926     0.055     2.255     2.348

molecular dipole:
                 x           y           z       tot (Debye)
 q only:        4.631       1.512      -0.087
   full:        4.661       1.741      -0.132      12.651

 projected vibrational frequencies (cm⁻¹)
eigval :       -0.00    -0.00    -0.00     0.00     0.00     0.00
eigval :        7.76    17.41    21.18    25.55    38.34    44.98
eigval :       54.44    59.95    87.48    99.50   103.09   119.06
eigval :      132.55   159.28   160.29   184.29   197.27   216.24
eigval :      231.59   238.63   240.92   261.50   298.30   321.42
eigval :      333.93   349.07   371.76   372.75   375.41   381.45
eigval :      406.99   415.65   433.15   448.74   461.14   464.72
eigval :      472.69   506.51   507.64   518.74   523.78   533.95
eigval :      549.41   583.28   589.03   594.95   601.52   609.75
eigval :      617.80   626.86   666.37   667.28   690.95   705.01
eigval :      722.73   755.96   780.12   799.04   802.28   812.03
eigval :      820.34   824.07   841.89   848.90   860.68   865.37
eigval :      883.16   892.21   892.80   907.10   910.71   911.47
eigval :      921.54   931.25   963.53   985.80   992.51  1023.19
eigval :     1028.26  1045.15  1049.14  1065.27  1078.85  1109.26
eigval :     1122.87  1129.71  1143.78  1148.85  1163.60  1171.59
eigval :     1175.48  1182.83  1194.18  1209.88  1232.83  1244.33
eigval :     1252.19  1258.47  1267.82  1270.85  1290.56  1305.44
eigval :     1319.65  1329.34  1332.52  1363.33  1374.04  1391.92
eigval :     1401.23  1408.04  1424.30  1429.54  1457.65  1460.31
eigval :     1466.40  1479.49  1493.74  1503.69  1528.09  1543.34
eigval :     1566.35  1575.59  1584.97  1592.51  2948.92  2958.72
eigval :     3030.42  3078.85  3081.49  3084.29  3089.34  3094.36
eigval :     3094.79  3098.12  3101.23  3104.58  3108.86  3112.67
eigval :     3119.79  3136.21  3482.63

   temp. (K)  partition function   enthalpy   heat capacity  entropy
                                   cal/mol     cal/K/mol   cal/K/mol   J/K/mol
 298.15  VIB  0.565E+13            15813.629     96.417     99.137
         ROT  0.414E+08              888.752      2.981     37.835
         INT  0.234E+21            16702.381     99.398    136.972
         TR   0.925E+28             1481.254      4.968     44.184
         TOT                       18183.6353   104.3664   181.1563   757.9581

       T/K    H(0)-H(T)+PV         H(T)/Eh          T*S/Eh         G(T)/Eh
   ------------------------------------------------------------------------
    298.15    0.289775E-01    0.376495E+00    0.860732E-01    0.290422E+00
   ------------------------------------------------------------------------

         :::::::::::::::::::::::::::::::::::::::::::::::::::::
         ::                  THERMODYNAMIC                  ::
         :::::::::::::::::::::::::::::::::::::::::::::::::::::
         :: total free energy         -89.270445942929 Eh   ::
         ::.................................................::
         :: total energy              -89.560867470382 Eh   ::
         :: zero point energy           0.347517275514 Eh   ::
         :: G(RRHO) w/o ZPVE           -0.057095748061 Eh   ::
         :: G(RRHO) contrib.            0.290421527453 Eh   ::
         :::::::::::::::::::::::::::::::::::::::::::::::::::::

           -------------------------------------------------
          | TOTAL ENERGY              -89.560867470382 Eh   |
          | TOTAL ENTHALPY            -89.184372727575 Eh   |
          | TOTAL FREE ENERGY         -89.270445942929 Eh   |
          | GRADIENT NORM               0.000067058224 Eh/α |
          | HOMO-LUMO GAP               1.014426003975 eV   |
           -------------------------------------------------

 * finished run on 2025/08/25 at 16:11:25.587
