   * xtb version 6.7.1 (edcfbbe) compiled by 'albert@albert-system' on 2024-07-22

   ID    Z sym.   atoms
    1    6 C      1, 3-14, 18-21, 23-28, 31, 32
    2    8 O      2
    3    9 F      15-17
    4    7 N      22, 29
    5   16 S      30
    6    1 H      33-49

          program call               : xtb data2507/toluene/3ca/3ca.xyz --gfn 2 --gbsa toluene --ohess vtight --parallel 40 --molden --ceasefiles --namespace data2507/toluene/3ca/3ca_toluene_S0_preOpt
      * Solvation model:               GBSA
        Solvent                        toluene
        Solvent mass                       9.2140E+01 g/mol
          :  Hamiltonian                  GFN2-xTB          :
 * total energy  :   -89.6199371 Eh     change       -0.7486562E-09 Eh
 * total energy  :   -89.6269431 Eh     change       -0.7006086E-02 Eh
 * total energy  :   -89.6283572 Eh     change       -0.1414055E-02 Eh
 * total energy  :   -89.6286029 Eh     change       -0.2456830E-03 Eh
 * total energy  :   -89.6287813 Eh     change       -0.1784007E-03 Eh
 * total energy  :   -89.6288898 Eh     change       -0.1085377E-03 Eh
 * total energy  :   -89.6290279 Eh     change       -0.1380478E-03 Eh
 * total energy  :   -89.6292268 Eh     change       -0.1989690E-03 Eh
 * total energy  :   -89.6294558 Eh     change       -0.2289264E-03 Eh
 * total energy  :   -89.6296866 Eh     change       -0.2308712E-03 Eh
 * total energy  :   -89.6316903 Eh     change       -0.3662310E-05 Eh
 * total energy  :   -89.6316924 Eh     change       -0.2104947E-05 Eh
 * total energy  :   -89.6316937 Eh     change       -0.1248101E-05 Eh
 * total energy  :   -89.6316943 Eh     change       -0.6334291E-06 Eh
 * total energy  :   -89.6316946 Eh     change       -0.2806825E-06 Eh
 * total energy  :   -89.6316948 Eh     change       -0.2291216E-06 Eh
 * total energy  :   -89.6316948 Eh     change       -0.5331785E-08 Eh
 * total energy  :   -89.6316950 Eh     change       -0.1129858E-06 Eh
 * total energy  :   -89.6316950 Eh     change       -0.3551861E-09 Eh
   *** GEOMETRY OPTIMIZATION CONVERGED AFTER 48 ITERATIONS ***

 final structure:
================
49
 xtb: 6.7.1 (edcfbbe)
C            8.42717443479154        0.74844293191781        0.17411459887255
O            7.60696091624303       -0.38239117553177       -0.03588225428745
C            6.25846412491063       -0.22305683813511       -0.03712520898692
C            5.50584492067483       -1.38192956919325       -0.25397043978057
C            4.13224393392511       -1.33685780167503       -0.27263120764019
C            3.45272557994973       -0.12811155785593       -0.07522850897557
C            2.00786578063343       -0.07139785243252       -0.08447408421127
C            1.10219218127849       -1.09886346479763       -0.04275337099734
C           -0.24794983387382       -0.69263622215559       -0.07571677317742
C           -1.35904208811663       -1.64904076153674       -0.04301455726630
C           -2.36482042163358       -1.61709231880832       -1.00553096495190
C           -3.39858585058865       -2.53013432120013       -0.96484750422186
C           -3.43105512622431       -3.48991966715509        0.04175477519809
C           -4.58123858777698       -4.44785080494895        0.08392093257903
F           -4.39217845151635       -5.48961496721302        0.91185311420440
F           -4.86429703217648       -4.98281108794122       -1.12257296327284
F           -5.73179215438349       -3.86302269820642        0.49157483137459
C           -2.42770194690085       -3.54197123806819        0.99977222914259
C           -1.39346025104133       -2.62668158103276        0.94803354958061
C           -0.38172342270088        0.68103727184454       -0.13279379844319
C           -1.57077620798094        1.47396183016865       -0.09284594824369
N           -2.79201103766103        1.00876947887453        0.01913487690647
C           -3.61077323964756        2.10251430659839        0.03549847406608
C           -4.99708209276506        2.18647127987689        0.13326300046775
C           -5.56312962146079        3.44362379566092        0.12120951687157
C           -4.78597013919500        4.60060860540336        0.01548783028608
C           -3.40955627752124        4.54231876763917       -0.08307783870510
C           -2.83320270923698        3.28303936924153       -0.07217374184298
N           -1.53705063001195        2.84841183056185       -0.15238760678602
S            1.17626818480167        1.45630417532895       -0.14733254837672
C            4.21305733466422        1.02255130414167        0.13300376504062
C            5.59298825551925        0.98503850178880        0.15529712150920
H            9.44994128358784        0.37788921345348        0.13048484030674
H            8.27874719577497        1.49903308287895       -0.60775298508508
H            8.24425160417750        1.19655960134286        1.15519416099842
H            6.03253448802952       -2.31082767573262       -0.40862321150117
H            3.57813854215027       -2.24398279527281       -0.45307179639504
H            1.38380901033305       -2.13473145583341        0.00321561985367
H           -2.33572598587778       -0.87581227082954       -1.78688802687172
H           -4.18091844033794       -2.50672836951212       -1.70822847868664
H           -2.45784993926935       -4.29129813885173        1.77599208313714
H           -0.61555773688093       -2.65840060144019        1.69565572702158
H           -5.59357800472724        1.29157965250557        0.21549639333876
H           -6.63615867765675        3.54264688254014        0.19493943516845
H           -5.27627366085258        5.56269263659392        0.01051995798142
H           -2.81014899062937        5.43663813366877       -0.16474546458528
H           -0.71165015402004        3.41890948883892       -0.23356285093561
H            3.70980879131134        1.96643393249193        0.28764131211156
H            6.13824214991245        1.89968716199410        0.32417098821332

          :  Hamiltonian                  GFN2-xTB          :
         :: gradient norm              0.000117377298 Eh/a0 ::
         :: HOMO-LUMO gap              2.153664293194 eV    ::
         :: SCC energy               -90.899790532266 Eh    ::
         :: -> dispersion             -0.060943684953 Eh    ::
         :: -> Gsolv                  -0.036521873105 Eh    ::
         :: repulsion energy           1.268095574928 Eh    ::

    * Orbital Energies and Occupations

         #    Occupation            Energy/Eh            Energy/eV
      -------------------------------------------------------------
         1        2.0000           -0.8828341             -24.0231
       ...           ...                  ...                  ...
        68        2.0000           -0.4440900             -12.0843
        69        2.0000           -0.4411348             -12.0039
        70        2.0000           -0.4362732             -11.8716
        71        2.0000           -0.4311944             -11.7334
        72        2.0000           -0.4280004             -11.6465
        73        2.0000           -0.4275498             -11.6342
        74        2.0000           -0.4217910             -11.4775
        75        2.0000           -0.4164091             -11.3311
        76        2.0000           -0.4050005             -11.0206
        77        2.0000           -0.3946042             -10.7377
        78        2.0000           -0.3920020             -10.6669
        79        2.0000           -0.3855140             -10.4904
        80        2.0000           -0.3696709             -10.0593 (HOMO)
        81                         -0.2905252              -7.9056 (LUMO)
        82                         -0.2593331              -7.0568
        83                         -0.2448755              -6.6634
        84                         -0.2381288              -6.4798
        85                         -0.2329855              -6.3399
        86                         -0.2195457              -5.9741
        87                         -0.2130281              -5.7968
        88                         -0.2074639              -5.6454
        89                         -0.1800933              -4.9006
        90                         -0.1518489              -4.1320
        91                         -0.1394414              -3.7944
       ...                                ...                  ...
       150                          0.6951859              18.9170
      -------------------------------------------------------------
                  HL-Gap            0.0791457 Eh            2.1537 eV

     #   Z          covCN         q      C6AA      α(0)
     1   6 C        3.642     0.032    20.387     6.491
     2   8 O        1.705    -0.277    18.596     5.822
     3   6 C        2.864     0.146    24.816     8.166
     4   6 C        2.918    -0.053    29.323     8.880
     5   6 C        2.924    -0.033    28.818     8.803
     6   6 C        2.998    -0.001    28.047     8.687
     7   6 C        2.984     0.031    27.298     8.570
     8   6 C        3.118    -0.056    29.216     8.853
     9   6 C        3.146     0.001    27.754     8.619
    10   6 C        2.974     0.032    27.274     8.566
    11   6 C        2.924    -0.016    28.406     8.740
    12   6 C        2.921    -0.019    28.475     8.751
    13   6 C        2.977    -0.029    28.718     8.790
    14   6 C        3.336     0.485    17.293     6.585
    15   9 F        0.791    -0.216    11.400     3.988
    16   9 F        0.791    -0.221    11.454     3.998
    17   9 F        0.791    -0.224    11.490     4.004
    18   6 C        2.918    -0.023    28.576     8.766
    19   6 C        2.927    -0.026    28.650     8.778
    20   6 C        2.990    -0.004    28.109     8.697
    21   6 C        3.203     0.148    24.273     8.026
    22   7 N        1.885    -0.316    29.036     7.988
    23   6 C        3.197     0.070    25.916     8.298
    24   6 C        2.910    -0.046    29.152     8.853
    25   6 C        2.922    -0.040    28.995     8.830
    26   6 C        2.926    -0.037    28.913     8.818
    27   6 C        2.907    -0.056    29.398     8.890
    28   6 C        3.076     0.044    26.937     8.509
    29   7 N        2.779    -0.135    23.928     7.265
    30  16 S        2.359    -0.055   143.339    20.150
    31   6 C        2.927    -0.033    28.820     8.804
    32   6 C        2.915    -0.065    29.614     8.924
    33   1 H        0.925     0.070     2.088     2.260
    34   1 H        0.924     0.051     2.308     2.376
    35   1 H        0.924     0.051     2.309     2.376
    36   1 H        0.926     0.052     2.294     2.369
    37   1 H        0.926     0.048     2.342     2.393
    38   1 H        0.926     0.053     2.278     2.360
    39   1 H        0.926     0.060     2.201     2.320
    40   1 H        0.926     0.057     2.231     2.336
    41   1 H        0.926     0.062     2.174     2.306
    42   1 H        0.926     0.064     2.158     2.297
    43   1 H        0.926     0.040     2.446     2.446
    44   1 H        0.926     0.038     2.481     2.463
    45   1 H        0.926     0.040     2.450     2.448
    46   1 H        0.926     0.035     2.511     2.478
    47   1 H        0.860     0.173     1.254     1.754
    48   1 H        0.926     0.049     2.332     2.388
    49   1 H        0.926     0.049     2.332     2.388

molecular dipole:
                 x           y           z       tot (Debye)
 q only:        3.364       2.024      -0.013
   full:        3.441       2.267      -0.012      10.473

 projected vibrational frequencies (cm⁻¹)
eigval :       -0.00    -0.00    -0.00    -0.00     0.00     0.00
eigval :        4.69    14.09    17.58    23.37    34.65    40.37
eigval :       47.76    63.18    73.76    88.08   104.71   126.08
eigval :      139.81   155.01   167.06   188.45   206.43   219.53
eigval :      236.55   240.98   242.99   278.25   309.01   322.79
eigval :      346.92   365.90   370.01   372.75   374.64   393.53
eigval :      413.64   436.72   444.51   464.38   472.15   476.90
eigval :      508.88   518.33   523.41   540.74   542.93   549.22
eigval :      558.70   591.37   597.70   604.90   610.28   620.04
eigval :      635.95   666.40   674.81   693.13   702.63   714.68
eigval :      736.69   771.65   795.02   805.54   808.58   818.07
eigval :      831.25   851.20   858.83   863.89   865.59   875.11
eigval :      898.07   898.20   910.45   912.66   920.10   921.82
eigval :      923.17   945.82   984.36   994.66  1013.63  1028.07
eigval :     1052.02  1053.32  1065.74  1069.89  1107.80  1114.65
eigval :     1129.29  1134.72  1141.27  1152.38  1165.99  1174.66
eigval :     1186.91  1190.80  1202.43  1219.58  1227.64  1251.16
eigval :     1264.94  1267.46  1271.35  1288.12  1297.68  1325.09
eigval :     1329.15  1344.00  1366.38  1377.51  1394.28  1403.49
eigval :     1405.49  1412.16  1444.90  1463.61  1469.77  1473.72
eigval :     1487.46  1498.96  1504.58  1554.82  1559.47  1573.09
eigval :     1590.01  1592.04  1593.65  1619.06  2940.68  2951.57
eigval :     3028.20  3076.05  3076.13  3079.75  3090.90  3091.69
eigval :     3093.77  3096.88  3101.28  3102.08  3107.60  3109.17
eigval :     3116.53  3141.46  3465.01

   temp. (K)  partition function   enthalpy   heat capacity  entropy
                                   cal/mol     cal/K/mol   cal/K/mol   J/K/mol
 298.15  VIB  0.158E+14            15576.705     94.389     98.653
         ROT  0.414E+08              888.752      2.981     37.835
         INT  0.655E+21            16465.458     97.370    136.488
         TR   0.925E+28             1481.254      4.968     44.184
         TOT                       17946.7114   102.3382   180.6725   755.9337

       T/K    H(0)-H(T)+PV         H(T)/Eh          T*S/Eh         G(T)/Eh
   ------------------------------------------------------------------------
    298.15    0.285999E-01    0.379085E+00    0.858433E-01    0.293241E+00
   ------------------------------------------------------------------------

         :::::::::::::::::::::::::::::::::::::::::::::::::::::
         ::                  THERMODYNAMIC                  ::
         :::::::::::::::::::::::::::::::::::::::::::::::::::::
         :: total free energy         -89.338453735786 Eh   ::
         ::.................................................::
         :: total energy              -89.631694959593 Eh   ::
         :: zero point energy           0.350484652259 Eh   ::
         :: G(RRHO) w/o ZPVE           -0.057243428451 Eh   ::
         :: G(RRHO) contrib.            0.293241223808 Eh   ::
         :::::::::::::::::::::::::::::::::::::::::::::::::::::

           -------------------------------------------------
          | TOTAL ENERGY              -89.631694959593 Eh   |
          | TOTAL ENTHALPY            -89.252610402193 Eh   |
          | TOTAL FREE ENERGY         -89.338453735786 Eh   |
          | GRADIENT NORM               0.000117388203 Eh/α |
          | HOMO-LUMO GAP               2.153664331648 eV   |
           -------------------------------------------------

 * finished run on 2025/08/25 at 16:08:32.876
