   * xtb version 6.7.1 (edcfbbe) compiled by 'albert@albert-system' on 2024-07-22

   ID    Z sym.   atoms
    1    6 C      1-7, 9-21, 24-28, 30-42, 44-49, 51-63
    2    7 N      8, 22, 23, 29, 43, 50
    3    1 H      64-101

          program call               : xtb data2507/gas/TCPZ/TCPZ_gas_S0_crest.xyz --gfn 2 --ohess vtight --parallel 40 --molden --ceasefiles --namespace data2507/gas/TCPZ/TCPZ_gas_S0_finalOpt
          :  Hamiltonian                  GFN2-xTB          :
 * total energy  :  -159.0394330 Eh     change       -0.1826152E-08 Eh
 * total energy  :  -159.0394346 Eh     change       -0.1580777E-05 Eh
 * total energy  :  -159.0394370 Eh     change       -0.2450278E-05 Eh
 * total energy  :  -159.0394386 Eh     change       -0.1555182E-05 Eh
 * total energy  :  -159.0394398 Eh     change       -0.1244337E-05 Eh
 * total energy  :  -159.0394419 Eh     change       -0.2036748E-05 Eh
 * total energy  :  -159.0394451 Eh     change       -0.3242726E-05 Eh
 * total energy  :  -159.0394486 Eh     change       -0.3521024E-05 Eh
 * total energy  :  -159.0394515 Eh     change       -0.2887961E-05 Eh
 * total energy  :  -159.0394539 Eh     change       -0.2362099E-05 Eh
 * total energy  :  -159.0394830 Eh     change       -0.1702701E-06 Eh
 * total energy  :  -159.0394832 Eh     change       -0.2302695E-06 Eh
 * total energy  :  -159.0394835 Eh     change       -0.3127986E-06 Eh
 * total energy  :  -159.0394838 Eh     change       -0.3086144E-06 Eh
 * total energy  :  -159.0394839 Eh     change       -0.1073774E-06 Eh
 * total energy  :  -159.0394841 Eh     change       -0.1822362E-06 Eh
 * total energy  :  -159.0394840 Eh     change        0.1229836E-06 Eh
 * total energy  :  -159.0394842 Eh     change       -0.1965380E-06 Eh
 * total energy  :  -159.0394842 Eh     change       -0.5835017E-07 Eh
   *** GEOMETRY OPTIMIZATION CONVERGED AFTER 48 ITERATIONS ***

 final structure:
================
101
 xtb: 6.7.1 (edcfbbe)
C           -0.42500755727292       -0.92978842076399        0.01701497426455
C            0.63407436337134       -0.19985715650963       -0.38856777651189
C            0.73880584521191        1.25097937563834       -0.34323328635846
C            1.98559753016606        1.87311754349599       -0.43761727483529
C            2.08777141846754        3.24869562576382       -0.36451260475565
C            0.95999514587053        4.03218047447075       -0.19455020681728
C           -0.29236354327490        3.42588027885037       -0.12123322723806
N           -1.45089718186857        4.19521371572430        0.04539784314839
C           -2.44716120135716        3.95196656246959        0.97116731766319
C           -2.50971103760534        2.99284660594842        1.97221941157929
C           -3.62074813266525        2.98840663916719        2.79416282719744
C           -4.64786516080245        3.91689467722020        2.63447349377875
C           -4.57893049081239        4.88920323035237        1.65707203425761
C           -3.47005804739837        4.91611146653847        0.82138407000838
C           -3.06384520877040        5.77810917059249       -0.25310408933736
C           -3.64560493501534        6.88135979386290       -0.86346397695229
C           -2.98051904698230        7.48431587023044       -1.91207150697495
C           -1.75871547732825        6.99044183957656       -2.36366861643726
C           -1.16021854392614        5.89408764033103       -1.77289362205968
C           -1.81143313340851        5.29960015856754       -0.70175857157349
C           -0.39911156310286        2.04497381324469       -0.20753238032359
N            1.77918644444930       -0.90637763092924       -0.87611878901310
N            1.92739777481927       -2.14380646815256       -0.19490674542409
C            3.18800396525710       -2.47742691182099        0.25443336310756
C            3.39389499174380       -3.64612797151501        0.99161750543422
C            4.66413806786137       -3.96219641948282        1.42755733031598
C            5.73779499934825       -3.12463892191380        1.17145206343458
C            5.53404168849723       -1.96133552525074        0.43509462658690
N            6.59178000382378       -1.07977830339855        0.17255840286860
C            7.82400861430072       -1.41056085836702       -0.35336273653917
C            8.31154132814826       -2.64583831633662       -0.75549825354606
C            9.58977583806479       -2.69603735521836       -1.27737341345941
C           10.36850068656509       -1.54811215181108       -1.40812794363023
C            9.88003628784042       -0.31282903856423       -1.03284538306380
C            8.59772418849980       -0.23648408849330       -0.50538060680488
C            7.78316438380060        0.85215591116617       -0.04318472907731
C            7.98877269975966        2.22135556838507        0.06597942335046
C            6.97695847739883        3.00354312231730        0.58582835958719
C            5.77949484434657        2.43399302589756        1.01353508326120
C            5.55186647257189        1.07483611918906        0.91598098582212
C            6.55307814753699        0.28706160836089        0.36504294204125
C            4.26885489564548       -1.65146203817663       -0.04278304672971
N            0.88685819823418       -2.90912092522901        0.09940982442941
C           -0.29450048977425       -2.36974942604320        0.10194732256139
C           -1.45808521204206       -3.20876544030026        0.36745272993522
C           -1.32337788709660       -4.45395252531855        0.98174796072054
C           -2.44338753845070       -5.20944803337918        1.26796183236867
C           -3.70978031738328       -4.74279849972545        0.95758144579790
C           -3.85383677126779       -3.51599888601177        0.31499093435160
N           -5.12132002286929       -3.02561369038419       -0.02241785123847
C           -6.12117740636659       -3.72591886765202       -0.66972491997115
C           -6.12368921777571       -5.02792435384873       -1.14934226227208
C           -7.26237158587469       -5.47837673531867       -1.78952482935742
C           -8.37396787899033       -4.65685371596443       -1.96228027730372
C           -8.36685716821322       -3.35146896742695       -1.51367752668405
C           -7.23359453645774       -2.87594077301656       -0.86748866016134
C           -6.87787145286445       -1.60007582338871       -0.31268475718093
C           -7.54547829939530       -0.38687584349365       -0.20616515682017
C           -6.90359074688931        0.67033329482251        0.40664235680742
C           -5.62248244654528        0.52211194592871        0.93302346245551
C           -4.94294265776794       -0.67778557238176        0.84546567039076
C           -5.56638358837766       -1.73500613653245        0.19697533356155
C           -2.72724581412892       -2.76194018699757        0.01181504077738
H           -1.29860574174965       -0.47233683673740        0.44703685482381
H            2.87065174693440        1.26909028468672       -0.55134384379898
H            3.05968047693425        3.71477617466709       -0.42948872481872
H            1.04153977162314        5.10465514534963       -0.10639161130063
H           -1.71054994623168        2.28134525128037        2.11824371460809
H           -3.69267817361901        2.25127723045825        3.58093792899045
H           -5.50269209992796        3.87544105604737        3.29311105660332
H           -5.36547142278212        5.61998228596967        1.54477382492072
H           -4.60028700043168        7.25359715449446       -0.52366300147081
H           -3.41364732438110        8.34552355036907       -2.39858551065941
H           -1.26939627520653        7.47324582906153       -3.19675593329826
H           -0.22230273490547        5.50837428602214       -2.14316965265527
H           -1.38096120882722        1.59805606802464       -0.19331056741765
H            1.71497497222530       -1.07010340172599       -1.88436572783202
H            2.55370719096322       -4.28490947611496        1.20658890006008
H            4.82033000797379       -4.86638522373582        1.99662561767606
H            6.72012791015962       -3.35569000001131        1.55228427391883
H            7.70934656271887       -3.53808502396142       -0.67468770685957
H            9.99343383840887       -3.64643540724482       -1.59441217935274
H           11.36430585413832       -1.63004058930727       -1.81780653898844
H           10.47728294897969        0.57913126348034       -1.14858342131613
H            8.92456548873774        2.65985403852088       -0.24640785491275
H            7.11608304708178        4.07078552295130        0.67607201680540
H            5.01332664485005        3.06634611635878        1.43815920536550
H            4.63010795522825        0.64153970324032        1.27377631439903
H            4.12266833428165       -0.76773575607460       -0.64104511911035
H           -0.33645380760995       -4.80327624608433        1.23818441306126
H           -2.33525498092898       -6.16667877489702        1.75621646077932
H           -4.58557844117801       -5.31555546838307        1.22134416739837
H           -5.26108851283992       -5.66787861703715       -1.04123419454504
H           -7.28913811164849       -6.48964457108403       -2.16801128173601
H           -9.24639039558834       -5.04786535067381       -2.46432583148069
H           -9.22035085236286       -2.70760383724193       -1.66376948541980
H           -8.54645199088107       -0.27915610364120       -0.59602502807828
H           -7.39908906581953        1.62584014729178        0.49213301110173
H           -5.15148993884385        1.36299742201607        1.42055349405529
H           -3.96291382464376       -0.78817798529741        1.28525989061708
H           -2.84790902041445       -1.83518548331378       -0.52865553614681

          :  Hamiltonian                  GFN2-xTB          :
         :: gradient norm              0.000043976391 Eh/a0 ::
         :: HOMO-LUMO gap              1.582983901981 eV    ::
         :: SCC energy              -161.978306105256 Eh    ::
         :: -> dispersion             -0.148282510598 Eh    ::
         :: repulsion energy           2.938821866208 Eh    ::

    * Orbital Energies and Occupations

         #    Occupation            Energy/Eh            Energy/eV
      -------------------------------------------------------------
         1        2.0000           -0.7024720             -19.1152
       ...           ...                  ...                  ...
       136        2.0000           -0.4104798             -11.1697
       137        2.0000           -0.4057686             -11.0415
       138        2.0000           -0.4036757             -10.9846
       139        2.0000           -0.4028898             -10.9632
       140        2.0000           -0.4020732             -10.9410
       141        2.0000           -0.3965200             -10.7899
       142        2.0000           -0.3789824             -10.3126
       143        2.0000           -0.3769963             -10.2586
       144        2.0000           -0.3763307             -10.2405
       145        2.0000           -0.3639183              -9.9027
       146        2.0000           -0.3616675              -9.8415
       147        2.0000           -0.3605270              -9.8104
       148        2.0000           -0.3489211              -9.4946 (HOMO)
       149                         -0.2907475              -7.9116 (LUMO)
       150                         -0.2523600              -6.8671
       151                         -0.2468406              -6.7169
       152                         -0.2445082              -6.6534
       153                         -0.2436175              -6.6292
       154                         -0.2371595              -6.4534
       155                         -0.2340487              -6.3688
       156                         -0.2316838              -6.3044
       157                         -0.2224603              -6.0535
       158                         -0.2204382              -5.9984
       159                         -0.2195868              -5.9753
       ...                                ...                  ...
       290                          0.7483368              20.3633
      -------------------------------------------------------------
                  HL-Gap            0.0581736 Eh            1.5830 eV

     #   Z          covCN         q      C6AA      α(0)
     1   6 C        2.910    -0.070    29.750     8.944
     2   6 C        2.908     0.061    26.624     8.461
     3   6 C        2.974     0.003    27.942     8.671
     4   6 C        2.924    -0.037    28.920     8.819
     5   6 C        2.918    -0.027    28.687     8.783
     6   6 C        2.921    -0.043    29.078     8.843
     7   6 C        2.911     0.066    26.520     8.444
     8   7 N        2.803    -0.045    22.104     6.983
     9   6 C        3.075     0.047    26.874     8.499
    10   6 C        2.910    -0.051    29.260     8.870
    11   6 C        2.924    -0.033    28.814     8.803
    12   6 C        2.920    -0.040    29.000     8.831
    13   6 C        2.912    -0.032    28.804     8.801
    14   6 C        3.067    -0.016    28.346     8.730
    15   6 C        3.068    -0.017    28.357     8.732
    16   6 C        2.913    -0.033    28.810     8.802
    17   6 C        2.920    -0.041    29.008     8.832
    18   6 C        2.924    -0.033    28.827     8.805
    19   6 C        2.910    -0.051    29.270     8.871
    20   6 C        3.074     0.047    26.873     8.499
    21   6 C        2.929    -0.050    29.230     8.866
    22   7 N        2.765    -0.199    25.323     7.474
    23   7 N        2.936     0.102    19.475     6.554
    24   6 C        2.922     0.051    26.850     8.497
    25   6 C        2.921    -0.053    29.310     8.878
    26   6 C        2.920    -0.028    28.690     8.784
    27   6 C        2.920    -0.054    29.347     8.884
    28   6 C        2.913     0.066    26.528     8.446
    29   7 N        2.804    -0.043    22.066     6.977
    30   6 C        3.075     0.047    26.872     8.499
    31   6 C        2.910    -0.051    29.271     8.872
    32   6 C        2.924    -0.034    28.836     8.806
    33   6 C        2.920    -0.041    29.024     8.835
    34   6 C        2.912    -0.033    28.823     8.804
    35   6 C        3.069    -0.018    28.375     8.734
    36   6 C        3.067    -0.017    28.368     8.733
    37   6 C        2.912    -0.033    28.826     8.804
    38   6 C        2.920    -0.042    29.037     8.837
    39   6 C        2.924    -0.034    28.855     8.809
    40   6 C        2.910    -0.052    29.285     8.874
    41   6 C        3.077     0.046    26.885     8.501
    42   6 C        2.928    -0.068    29.688     8.936
    43   7 N        1.923    -0.200    26.156     7.583
    44   6 C        2.938     0.075    26.326     8.415
    45   6 C        2.979     0.006    27.882     8.662
    46   6 C        2.923    -0.036    28.888     8.814
    47   6 C        2.918    -0.028    28.696     8.784
    48   6 C        2.922    -0.045    29.106     8.847
    49   6 C        2.911     0.065    26.552     8.449
    50   7 N        2.802    -0.044    22.097     6.982
    51   6 C        3.073     0.047    26.879     8.501
    52   6 C        2.910    -0.051    29.273     8.872
    53   6 C        2.924    -0.034    28.837     8.806
    54   6 C        2.920    -0.041    29.014     8.833
    55   6 C        2.913    -0.033    28.819     8.803
    56   6 C        3.068    -0.017    28.361     8.732
    57   6 C        3.067    -0.017    28.366     8.733
    58   6 C        2.912    -0.033    28.815     8.802
    59   6 C        2.920    -0.040    29.000     8.831
    60   6 C        2.923    -0.035    28.878     8.813
    61   6 C        2.910    -0.051    29.258     8.870
    62   6 C        3.074     0.046    26.891     8.502
    63   6 C        2.930    -0.050    29.242     8.868
    64   1 H        0.926     0.037     2.490     2.468
    65   1 H        0.926     0.050     2.316     2.380
    66   1 H        0.926     0.041     2.434     2.439
    67   1 H        0.926     0.043     2.406     2.426
    68   1 H        0.926     0.025     2.661     2.551
    69   1 H        0.926     0.029     2.605     2.524
    70   1 H        0.926     0.028     2.609     2.526
    71   1 H        0.926     0.031     2.568     2.506
    72   1 H        0.926     0.031     2.566     2.505
    73   1 H        0.926     0.028     2.609     2.526
    74   1 H        0.926     0.029     2.597     2.520
    75   1 H        0.926     0.027     2.628     2.535
    76   1 H        0.926     0.042     2.417     2.431
    77   1 H        0.859     0.142     1.457     1.891
    78   1 H        0.926     0.053     2.286     2.364
    79   1 H        0.926     0.039     2.459     2.452
    80   1 H        0.926     0.041     2.439     2.442
    81   1 H        0.926     0.028     2.610     2.527
    82   1 H        0.926     0.028     2.609     2.526
    83   1 H        0.926     0.027     2.626     2.534
    84   1 H        0.926     0.030     2.584     2.514
    85   1 H        0.926     0.030     2.585     2.514
    86   1 H        0.926     0.026     2.641     2.541
    87   1 H        0.926     0.027     2.629     2.536
    88   1 H        0.926     0.029     2.603     2.523
    89   1 H        0.926     0.052     2.295     2.369
    90   1 H        0.926     0.050     2.321     2.382
    91   1 H        0.926     0.038     2.474     2.459
    92   1 H        0.926     0.042     2.421     2.433
    93   1 H        0.926     0.028     2.619     2.531
    94   1 H        0.926     0.029     2.605     2.524
    95   1 H        0.926     0.028     2.619     2.531
    96   1 H        0.926     0.031     2.576     2.510
    97   1 H        0.926     0.031     2.575     2.509
    98   1 H        0.926     0.028     2.615     2.529
    99   1 H        0.926     0.032     2.559     2.501
   100   1 H        0.926     0.023     2.691     2.565
   101   1 H        0.926     0.042     2.427     2.436

molecular dipole:
                 x           y           z       tot (Debye)
 q only:        0.349      -0.384      -0.027
   full:        0.076      -0.307      -0.181       0.926

 projected vibrational frequencies (cm⁻¹)
eigval :       -0.00    -0.00    -0.00     0.00     0.00     0.00
eigval :        7.81    10.87    13.14    14.55    17.45    25.75
eigval :       30.82    33.50    40.75    41.57    49.89    57.60
eigval :       68.60    71.20    74.47    85.49   101.58   102.84
eigval :      105.65   118.03   128.97   131.54   142.49   144.93
eigval :      146.89   160.57   182.95   190.78   201.44   208.89
eigval :      226.63   230.75   234.38   236.78   241.54   259.25
eigval :      262.42   272.76   273.36   273.84   288.78   290.28
eigval :      311.43   330.96   334.32   350.29   360.41   372.18
eigval :      384.53   390.94   396.39   397.40   398.16   417.41
eigval :      422.86   423.52   425.00   427.09   437.23   437.57
eigval :      438.93   444.95   448.57   464.82   514.71   516.74
eigval :      518.07   520.08   523.02   530.15   533.66   541.17
eigval :      541.60   541.89   545.03   553.42   567.74   578.82
eigval :      585.37   587.04   591.13   598.68   604.20   610.17
eigval :      611.43   612.60   617.37   634.18   646.21   654.45
eigval :      660.84   666.49   669.42   674.42   674.67   675.55
eigval :      701.67   704.83   708.49   710.49   712.14   741.16
eigval :      756.03   756.25   759.74   769.89   770.41   771.22
eigval :      781.32   782.09   784.06   789.36   794.59   800.48
eigval :      812.76   835.32   840.32   858.25   864.70   867.97
eigval :      868.48   869.42   871.42   872.34   880.73   881.42
eigval :      888.55   893.57   895.27   898.12   898.28   899.33
eigval :      900.02   903.10   904.15   905.77   906.45   907.48
eigval :      909.28   920.76   921.93   922.09   925.23   925.59
eigval :      926.15   929.73   931.83   932.93   936.22   952.96
eigval :      971.65   986.09  1001.84  1002.80  1005.63  1012.03
eigval :     1012.66  1013.72  1058.13  1069.29  1070.03  1070.73
eigval :     1072.69  1073.50  1074.13  1076.60  1088.90  1112.25
eigval :     1116.71  1118.06  1120.77  1122.52  1123.85  1151.88
eigval :     1152.42  1153.34  1163.33  1174.11  1175.73  1176.55
eigval :     1176.82  1178.76  1181.30  1181.35  1182.15  1182.50
eigval :     1189.42  1191.89  1194.30  1223.15  1235.80  1236.40
eigval :     1236.64  1237.35  1239.58  1247.44  1252.95  1258.53
eigval :     1259.90  1281.23  1297.29  1299.45  1301.15  1303.14
eigval :     1304.01  1304.99  1310.54  1325.41  1326.10  1331.18
eigval :     1334.78  1339.92  1355.62  1357.18  1358.24  1360.45
eigval :     1361.47  1361.94  1363.84  1367.63  1373.92  1416.99
eigval :     1419.02  1422.40  1427.92  1428.02  1428.45  1438.76
eigval :     1445.24  1457.78  1471.82  1474.23  1476.49  1477.31
eigval :     1477.73  1482.08  1488.11  1488.62  1488.70  1520.92
eigval :     1566.13  1567.83  1570.12  1574.35  1575.12  1575.34
eigval :     1579.15  1584.50  1586.92  1588.72  1588.95  1589.37
eigval :     1598.85  1599.23  1599.38  1605.51  1614.89  1615.14
eigval :     1615.47  3073.59  3073.77  3075.92  3076.35  3076.77
eigval :     3077.45  3080.26  3080.36  3080.87  3081.88  3082.05
eigval :     3082.32  3082.82  3085.33  3086.49  3086.89  3088.42
eigval :     3088.54  3089.68  3090.05  3090.25  3093.15  3094.10
eigval :     3094.98  3095.89  3096.21  3097.07  3097.74  3099.61
eigval :     3099.81  3100.59  3104.84  3115.40  3119.67  3122.70
eigval :     3123.80  3124.20  3202.76

   temp. (K)  partition function   enthalpy   heat capacity  entropy
                                   cal/mol     cal/K/mol   cal/K/mol   J/K/mol
 298.15  VIB  0.452E+23            28802.006    184.208    178.505
         ROT  0.214E+09              888.752      2.981     41.095
         INT  0.964E+31            29690.758    187.189    219.601
         TR   0.222E+29             1481.254      4.968     45.921
         TOT                       31172.0120   192.1568   265.5219  1110.9437

       T/K    H(0)-H(T)+PV         H(T)/Eh          T*S/Eh         G(T)/Eh
   ------------------------------------------------------------------------
    298.15    0.496758E-01    0.823877E+00    0.126158E+00    0.697719E+00
   ------------------------------------------------------------------------

         :::::::::::::::::::::::::::::::::::::::::::::::::::::
         ::                  THERMODYNAMIC                  ::
         :::::::::::::::::::::::::::::::::::::::::::::::::::::
         :: total free energy        -158.341765597323 Eh   ::
         ::.................................................::
         :: total energy             -159.039484239044 Eh   ::
         :: zero point energy           0.774200905523 Eh   ::
         :: G(RRHO) w/o ZPVE           -0.076482263802 Eh   ::
         :: G(RRHO) contrib.            0.697718641721 Eh   ::
         :::::::::::::::::::::::::::::::::::::::::::::::::::::

           -------------------------------------------------
          | TOTAL ENERGY             -159.039484239044 Eh   |
          | TOTAL ENTHALPY           -158.215607570458 Eh   |
          | TOTAL FREE ENERGY        -158.341765597323 Eh   |
          | GRADIENT NORM               0.000044086835 Eh/α |
          | HOMO-LUMO GAP               1.582984830068 eV   |
           -------------------------------------------------

 * finished run on 2025/09/14 at 12:16:25.403
