   * xtb version 6.7.1 (edcfbbe) compiled by 'albert@albert-system' on 2024-07-22

   ID    Z sym.   atoms
    1    6 C      1-7, 9-21, 24-28, 30-42, 44-49, 51-63
    2    7 N      8, 22, 23, 29, 43, 50
    3    1 H      64-101

          program call               : xtb data2507/gas/TCPZ/TCPZ.xyz --gfn 2 --ohess vtight --parallel 40 --molden --ceasefiles --namespace data2507/gas/TCPZ/TCPZ_gas_S0_preOpt
          :  Hamiltonian                  GFN2-xTB          :
 * total energy  :  -158.9897392 Eh     change       -0.3411316E-08 Eh
 * total energy  :  -159.0147317 Eh     change       -0.2499249E-01 Eh
 * total energy  :  -159.0231995 Eh     change       -0.8467809E-02 Eh
 * total energy  :  -159.0260004 Eh     change       -0.2800974E-02 Eh
 * total energy  :  -159.0284848 Eh     change       -0.2484375E-02 Eh
 * total energy  :  -159.0298243 Eh     change       -0.1339488E-02 Eh
 * total energy  :  -159.0307179 Eh     change       -0.8935672E-03 Eh
 * total energy  :  -159.0311483 Eh     change       -0.4304483E-03 Eh
 * total energy  :  -159.0314105 Eh     change       -0.2621486E-03 Eh
 * total energy  :  -159.0315876 Eh     change       -0.1771046E-03 Eh
 * total energy  :  -159.0350545 Eh     change       -0.5015160E-06 Eh
 * total energy  :  -159.0350551 Eh     change       -0.6120283E-06 Eh
 * total energy  :  -159.0350558 Eh     change       -0.6830573E-06 Eh
 * total energy  :  -159.0350565 Eh     change       -0.7334633E-06 Eh
 * total energy  :  -159.0350573 Eh     change       -0.7711209E-06 Eh
 * total energy  :  -159.0350581 Eh     change       -0.7992264E-06 Eh
 * total energy  :  -159.0350589 Eh     change       -0.7745456E-06 Eh
 * total energy  :  -159.0350596 Eh     change       -0.7358045E-06 Eh
 * total energy  :  -159.0350596 Eh     change       -0.9290432E-08 Eh
   *** GEOMETRY OPTIMIZATION CONVERGED AFTER 185 ITERATIONS ***

 final structure:
================
101
 xtb: 6.7.1 (edcfbbe)
C            0.57539529004671       -1.44263300153415       -0.07418286120652
C            1.25553272235924       -0.32420318629215        0.24682395405093
C            2.69329744135551       -0.12653731505440        0.11034803054196
C            3.22434883999919        1.16525308988242        0.12956452667102
C            4.58589307984831        1.36434079693033        0.00993645983379
C            5.44646594445997        0.28859157015064       -0.11403542071067
C            4.93098548029760       -1.00571012138936       -0.13411514897668
N            5.78962447435413       -2.10605327929651       -0.25419512197078
C            6.78004953673155       -2.25971944199996       -1.20504984301482
C            7.12700871708970       -1.43085016821242       -2.26219953357168
C            8.15247106265808       -1.84037628192988       -3.09282392966062
C            8.81596252318704       -3.04831086775031       -2.88920810102984
C            8.45848739281194       -3.88858176054707       -1.85401104562468
C            7.43073653350478       -3.49867450104631       -1.00544866068238
C            6.79891875866774       -4.11422478677636        0.12791071043581
C            7.00614863025332       -5.30923048245332        0.80414911476848
C            6.21551132019521       -5.59580355186144        1.89888379797356
C            5.23917187811762       -4.70091701548020        2.33062671348499
C            5.01473061766062       -3.50561406108640        1.67465642309013
C            5.78935357816859       -3.22311658397518        0.55856855359963
C            3.56202033235692       -1.20813159885034       -0.02652200112461
N            0.53779883548604        0.79265010305982        0.77251983674142
N           -0.81509446742159        0.79624946339167        0.33580039974688
C           -1.41035927175502        2.01349463164657        0.08256950806819
C           -2.74774251423929        2.06787722333532       -0.32175173394709
C           -3.34490907960743        3.29116544920281       -0.54163298294962
C           -2.63818719056489        4.47072189454329       -0.37368504004162
C           -1.30113225719954        4.41803903568077        0.01019086501367
N           -0.56543188261380        5.60003253839382        0.17753934320229
C            0.20422545214846        5.92243792829238        1.27701526924761
C            0.40059198067650        5.21990416286789        2.45772261997284
C            1.21270633131093        5.78770087783818        3.42043776134317
C            1.81291633393253        7.02987659955961        3.22613664550241
C            1.60125992790719        7.74557651410886        2.06494080673394
C            0.78918945791763        7.19515577293901        1.08206047556134
C            0.34747135393370        7.65374919500033       -0.20481922390205
C            0.59161420780721        8.80367205643384       -0.94421486354327
C            0.01239974043577        8.92335131363877       -2.19133542453326
C           -0.78825593693036        7.90745197472167       -2.70929773979665
C           -1.04614575778893        6.75476380200985       -1.99276392534858
C           -0.48782158527923        6.63964439740765       -0.72753352755052
C           -0.68772425214371        3.19433101341061        0.23971831878512
N           -1.50276074865344       -0.31862254965609        0.17203476521305
C           -0.87106963883149       -1.44605915216696        0.04138596115508
C           -1.68689359549805       -2.64664770136714       -0.10347621822384
C           -1.14941261526709       -3.90096112687192       -0.39335118478293
C           -1.98120145466515       -4.99431150711915       -0.55303155625649
C           -3.35327914262199       -4.86648712031849       -0.44138476497547
C           -3.90220798647482       -3.62338646261993       -0.13011479069513
N           -5.28853274997689       -3.46307915903824       -0.01486965845846
C           -6.02790401236540       -2.45273042693525       -0.60049565663831
C           -5.61869740289151       -1.42858042572043       -1.44322471008128
C           -6.58056692421356       -0.55359296592124       -1.91029279119672
C           -7.92253945731783       -0.69316871991158       -1.56314930088790
C           -8.34001885143252       -1.72612977222504       -0.74837319765362
C           -7.39098173694960       -2.61668548907758       -0.26360539925425
C           -7.46813607410656       -3.78182197810611        0.57226995286164
C           -8.51584447005463       -4.42471350761327        1.21801594893627
C           -8.23658760499082       -5.53623424732251        1.98744251702001
C           -6.92976263897435       -5.99685140320770        2.13089497436099
C           -5.87101773527874       -5.37423876809858        1.49798147385819
C           -6.14838961871318       -4.27318363395090        0.70020099718060
C           -3.06849989254903       -2.53195085063998        0.05424953896018
H            1.06768652218631       -2.28208257625578       -0.52980721109306
H            2.55724959608441        2.00684013841194        0.22312020593784
H            4.98367659600409        2.36805916140290        0.02488491923597
H            6.51313357590866        0.43979300992403       -0.17699271737175
H            6.60690427109016       -0.50163933523373       -2.44015353436889
H            8.44342593875768       -1.21113004353238       -3.92101776159395
H            9.61420475716035       -3.33113603024493       -3.55912658476453
H            8.96122561570440       -4.83231667261950       -1.70548216669120
H            7.77430417397693       -5.99454694202996        0.47913638358205
H            6.35853295852838       -6.52069618587734        2.43750257039575
H            4.64663837239128       -4.94456125902992        3.20026314480139
H            4.26891779090576       -2.81051944837640        2.03047743247372
H            3.18166299843117       -2.21736656502963       -0.04677546330482
H            0.58080496572348        0.81687145043918        1.79542528619971
H           -3.29658715134252        1.14999401913170       -0.44962542788927
H           -4.38103232325307        3.32916729267417       -0.84259146138019
H           -3.11631081823229        5.42599796087302       -0.52296066366494
H           -0.07730582239226        4.26680331693837        2.62715309844355
H            1.38275865885382        5.25870164783813        4.34688906378632
H            2.44317597798919        7.43850829870980        4.00203430742982
H            2.05186683190761        8.71604054722874        1.92092244238163
H            1.22519730984875        9.58333263579938       -0.54876279409331
H            0.18659445909480        9.81073672288064       -2.78158555233803
H           -1.21442026316118        8.02231961030209       -3.69515228778832
H           -1.65331176277157        5.96580456642323       -2.41006410852643
H            0.35344620761605        3.15750179220528        0.51455249615950
H           -0.08491176510375       -4.03536989809350       -0.50214775496049
H           -1.55378598955618       -5.95889065680605       -0.78457646024254
H           -3.99954276939270       -5.71463956899394       -0.60691055392452
H           -4.58551739007143       -1.32183250722550       -1.73705147884140
H           -6.28482620485487        0.25470913527242       -2.56304456298672
H           -8.64361629607700        0.01310284005585       -1.94719742783734
H           -9.38208275846033       -1.84580382926138       -0.49274320025967
H           -9.52588353508596       -4.05594102917571        1.12094461891291
H           -9.03708542702557       -6.05292397135344        2.49575440990645
H           -6.73892222024011       -6.85808142720538        2.75430452985118
H           -4.86021350703776       -5.72812813243347        1.63397445382667
H           -3.48122680235248       -1.57457749879558        0.32802790488959

          :  Hamiltonian                  GFN2-xTB          :
         :: gradient norm              0.000068097744 Eh/a0 ::
         :: HOMO-LUMO gap              1.472511181001 eV    ::
         :: SCC energy              -161.974215277758 Eh    ::
         :: -> dispersion             -0.143005143942 Eh    ::
         :: repulsion energy           2.939155649015 Eh    ::

    * Orbital Energies and Occupations

         #    Occupation            Energy/Eh            Energy/eV
      -------------------------------------------------------------
         1        2.0000           -0.7032174             -19.1355
       ...           ...                  ...                  ...
       136        2.0000           -0.4098340             -11.1522
       137        2.0000           -0.4067331             -11.0678
       138        2.0000           -0.4031311             -10.9698
       139        2.0000           -0.4024939             -10.9524
       140        2.0000           -0.4023902             -10.9496
       141        2.0000           -0.3975046             -10.8167
       142        2.0000           -0.3801497             -10.3444
       143        2.0000           -0.3759870             -10.2311
       144        2.0000           -0.3757804             -10.2255
       145        2.0000           -0.3652315              -9.9385
       146        2.0000           -0.3602118              -9.8019
       147        2.0000           -0.3600798              -9.7983
       148        2.0000           -0.3456320              -9.4051 (HOMO)
       149                         -0.2915181              -7.9326 (LUMO)
       150                         -0.2534238              -6.8960
       151                         -0.2478527              -6.7444
       152                         -0.2433632              -6.6222
       153                         -0.2431220              -6.6157
       154                         -0.2389478              -6.5021
       155                         -0.2326132              -6.3297
       156                         -0.2309762              -6.2852
       157                         -0.2233995              -6.0790
       158                         -0.2192672              -5.9666
       159                         -0.2190546              -5.9608
       ...                                ...                  ...
       290                          0.7487570              20.3747
      -------------------------------------------------------------
                  HL-Gap            0.0541138 Eh            1.4725 eV

     #   Z          covCN         q      C6AA      α(0)
     1   6 C        2.907    -0.070    29.747     8.943
     2   6 C        2.905     0.064    26.570     8.452
     3   6 C        2.974     0.003    27.957     8.673
     4   6 C        2.925    -0.037    28.922     8.819
     5   6 C        2.917    -0.027    28.684     8.783
     6   6 C        2.922    -0.043    29.066     8.841
     7   6 C        2.911     0.066    26.512     8.443
     8   7 N        2.803    -0.045    22.112     6.984
     9   6 C        3.075     0.047    26.877     8.500
    10   6 C        2.910    -0.051    29.267     8.871
    11   6 C        2.924    -0.033    28.825     8.804
    12   6 C        2.920    -0.041    29.007     8.832
    13   6 C        2.913    -0.033    28.814     8.802
    14   6 C        3.068    -0.017    28.360     8.732
    15   6 C        3.068    -0.017    28.355     8.731
    16   6 C        2.913    -0.033    28.812     8.802
    17   6 C        2.920    -0.041    29.013     8.833
    18   6 C        2.924    -0.034    28.838     8.806
    19   6 C        2.910    -0.052    29.280     8.873
    20   6 C        3.075     0.046    26.886     8.502
    21   6 C        2.927    -0.049    29.218     8.865
    22   7 N        2.764    -0.195    25.228     7.460
    23   7 N        2.929     0.104    19.450     6.550
    24   6 C        2.923     0.050    26.881     8.502
    25   6 C        2.921    -0.053    29.313     8.879
    26   6 C        2.920    -0.027    28.683     8.783
    27   6 C        2.920    -0.054    29.352     8.884
    28   6 C        2.913     0.066    26.531     8.446
    29   7 N        2.803    -0.043    22.064     6.976
    30   6 C        3.076     0.046    26.882     8.501
    31   6 C        2.910    -0.052    29.287     8.874
    32   6 C        2.924    -0.034    28.856     8.809
    33   6 C        2.920    -0.042    29.034     8.836
    34   6 C        2.912    -0.033    28.823     8.804
    35   6 C        3.068    -0.017    28.368     8.733
    36   6 C        3.068    -0.018    28.376     8.735
    37   6 C        2.912    -0.033    28.825     8.804
    38   6 C        2.920    -0.041    29.024     8.835
    39   6 C        2.924    -0.034    28.836     8.806
    40   6 C        2.910    -0.051    29.265     8.871
    41   6 C        3.077     0.047    26.870     8.499
    42   6 C        2.926    -0.069    29.711     8.939
    43   7 N        1.930    -0.198    26.104     7.576
    44   6 C        2.933     0.074    26.354     8.419
    45   6 C        2.981     0.006    27.885     8.662
    46   6 C        2.922    -0.040    28.994     8.830
    47   6 C        2.918    -0.030    28.742     8.791
    48   6 C        2.921    -0.045    29.118     8.849
    49   6 C        2.911     0.066    26.522     8.445
    50   7 N        2.803    -0.043    22.069     6.977
    51   6 C        3.075     0.047    26.878     8.500
    52   6 C        2.910    -0.051    29.267     8.871
    53   6 C        2.924    -0.034    28.836     8.806
    54   6 C        2.920    -0.041    29.020     8.834
    55   6 C        2.913    -0.033    28.823     8.803
    56   6 C        3.068    -0.017    28.360     8.732
    57   6 C        3.068    -0.017    28.363     8.733
    58   6 C        2.913    -0.033    28.820     8.803
    59   6 C        2.920    -0.041    29.021     8.834
    60   6 C        2.924    -0.034    28.842     8.807
    61   6 C        2.910    -0.051    29.272     8.872
    62   6 C        3.074     0.047    26.879     8.500
    63   6 C        2.933    -0.048    29.203     8.863
    64   1 H        0.926     0.038     2.476     2.460
    65   1 H        0.926     0.049     2.332     2.388
    66   1 H        0.926     0.040     2.443     2.444
    67   1 H        0.926     0.044     2.396     2.421
    68   1 H        0.926     0.027     2.623     2.533
    69   1 H        0.926     0.030     2.591     2.517
    70   1 H        0.926     0.029     2.605     2.524
    71   1 H        0.926     0.031     2.566     2.505
    72   1 H        0.926     0.032     2.564     2.504
    73   1 H        0.926     0.028     2.608     2.526
    74   1 H        0.926     0.029     2.606     2.525
    75   1 H        0.926     0.025     2.659     2.550
    76   1 H        0.926     0.043     2.415     2.430
    77   1 H        0.859     0.142     1.455     1.890
    78   1 H        0.926     0.054     2.265     2.354
    79   1 H        0.926     0.040     2.448     2.447
    80   1 H        0.926     0.041     2.441     2.443
    81   1 H        0.926     0.025     2.655     2.548
    82   1 H        0.926     0.027     2.635     2.539
    83   1 H        0.926     0.027     2.633     2.538
    84   1 H        0.926     0.030     2.583     2.513
    85   1 H        0.926     0.030     2.586     2.515
    86   1 H        0.926     0.027     2.626     2.534
    87   1 H        0.926     0.029     2.608     2.525
    88   1 H        0.926     0.029     2.604     2.524
    89   1 H        0.926     0.050     2.321     2.382
    90   1 H        0.926     0.034     2.531     2.488
    91   1 H        0.926     0.036     2.506     2.475
    92   1 H        0.926     0.041     2.430     2.437
    93   1 H        0.926     0.031     2.578     2.511
    94   1 H        0.926     0.029     2.608     2.525
    95   1 H        0.926     0.027     2.626     2.534
    96   1 H        0.926     0.030     2.582     2.513
    97   1 H        0.926     0.030     2.580     2.512
    98   1 H        0.926     0.027     2.625     2.534
    99   1 H        0.926     0.028     2.613     2.528
   100   1 H        0.926     0.027     2.630     2.536
   101   1 H        0.926     0.059     2.212     2.326

molecular dipole:
                 x           y           z       tot (Debye)
 q only:        0.316      -0.093       0.049
   full:        0.583      -0.413       0.216       1.897

 projected vibrational frequencies (cm⁻¹)
eigval :       -0.00    -0.00    -0.00     0.00     0.00     0.00
eigval :        2.08     6.20     8.10    10.48    12.60    15.59
eigval :       23.27    26.56    28.64    43.16    54.09    56.54
eigval :       63.47    67.22    69.56    88.78    92.96   101.48
eigval :      103.73   116.15   121.59   140.40   142.68   145.43
eigval :      149.11   154.95   171.89   192.14   208.29   210.85
eigval :      216.93   225.19   229.41   233.14   236.74   237.78
eigval :      271.73   271.97   272.50   277.42   284.58   287.47
eigval :      322.55   327.41   333.33   338.90   363.81   369.31
eigval :      383.77   388.84   396.22   396.35   397.37   419.41
eigval :      422.30   423.20   424.77   427.19   434.52   437.61
eigval :      437.82   439.73   443.96   471.94   513.33   516.68
eigval :      518.29   519.73   522.56   529.38   538.52   540.94
eigval :      541.17   541.21   541.57   552.71   560.53   582.05
eigval :      582.99   587.21   590.66   597.11   603.80   609.63
eigval :      611.61   613.30   615.73   631.81   646.39   653.80
eigval :      661.03   664.58   666.91   674.24   674.65   675.14
eigval :      701.87   704.89   708.56   710.56   712.07   741.43
eigval :      756.36   756.55   760.05   768.94   769.41   769.81
eigval :      780.44   780.96   781.17   784.87   790.43   791.50
eigval :      800.46   834.52   839.14   852.81   859.89   866.62
eigval :      868.83   869.36   870.42   871.82   878.78   882.50
eigval :      885.05   885.98   894.47   896.14   898.10   899.03
eigval :      899.34   902.83   903.65   903.96   904.55   905.23
eigval :      909.04   921.11   921.19   922.08   922.38   923.20
eigval :      925.15   926.58   930.13   931.16   932.33   953.32
eigval :      974.70   981.75  1001.00  1002.47  1003.97  1012.03
eigval :     1012.68  1012.90  1054.18  1067.23  1070.24  1070.78
eigval :     1071.48  1073.73  1074.35  1074.50  1089.26  1113.16
eigval :     1117.67  1118.82  1122.08  1125.77  1131.88  1152.26
eigval :     1152.69  1153.42  1165.34  1173.68  1175.78  1176.81
eigval :     1179.07  1181.25  1181.45  1181.51  1183.44  1185.93
eigval :     1189.51  1192.65  1201.84  1219.99  1235.40  1236.24
eigval :     1237.00  1237.32  1239.14  1249.76  1252.56  1258.79
eigval :     1263.72  1280.67  1297.16  1299.86  1300.79  1302.65
eigval :     1304.37  1304.89  1309.94  1325.53  1326.31  1330.07
eigval :     1335.76  1342.35  1355.80  1357.06  1358.44  1360.71
eigval :     1361.32  1361.76  1364.00  1365.92  1373.01  1418.83
eigval :     1419.74  1423.18  1428.09  1428.17  1428.48  1441.00
eigval :     1446.30  1458.26  1471.11  1473.79  1476.46  1477.38
eigval :     1477.69  1481.82  1488.44  1488.47  1488.90  1519.13
eigval :     1567.18  1568.73  1569.88  1572.21  1574.88  1575.32
eigval :     1576.17  1583.85  1588.31  1588.84  1589.35  1589.40
eigval :     1599.11  1599.37  1599.54  1608.51  1615.23  1615.37
eigval :     1615.82  3074.18  3075.25  3075.54  3075.68  3075.90
eigval :     3077.01  3080.41  3080.48  3081.04  3081.09  3081.93
eigval :     3082.25  3082.42  3085.53  3087.49  3087.80  3087.91
eigval :     3088.50  3089.86  3089.92  3090.29  3094.36  3094.75
eigval :     3095.51  3096.27  3096.44  3097.24  3098.66  3100.60
eigval :     3101.94  3103.24  3104.84  3113.57  3118.20  3119.86
eigval :     3124.71  3136.70  3188.05

   temp. (K)  partition function   enthalpy   heat capacity  entropy
                                   cal/mol     cal/K/mol   cal/K/mol   J/K/mol
 298.15  VIB  0.427E+25            28984.042    183.975    183.088
         ROT  0.260E+09              888.752      2.981     41.483
         INT  0.111E+34            29872.795    186.956    224.571
         TR   0.222E+29             1481.254      4.968     45.921
         TOT                       31354.0486   191.9240   270.4920  1131.7386

       T/K    H(0)-H(T)+PV         H(T)/Eh          T*S/Eh         G(T)/Eh
   ------------------------------------------------------------------------
    298.15    0.499659E-01    0.823660E+00    0.128519E+00    0.695141E+00
   ------------------------------------------------------------------------

         :::::::::::::::::::::::::::::::::::::::::::::::::::::
         ::                  THERMODYNAMIC                  ::
         :::::::::::::::::::::::::::::::::::::::::::::::::::::
         :: total free energy        -158.339918665734 Eh   ::
         ::.................................................::
         :: total energy             -159.035059628741 Eh   ::
         :: zero point energy           0.773694589234 Eh   ::
         :: G(RRHO) w/o ZPVE           -0.078553626227 Eh   ::
         :: G(RRHO) contrib.            0.695140963007 Eh   ::
         :::::::::::::::::::::::::::::::::::::::::::::::::::::

           -------------------------------------------------
          | TOTAL ENERGY             -159.035059628741 Eh   |
          | TOTAL ENTHALPY           -158.211399182545 Eh   |
          | TOTAL FREE ENERGY        -158.339918665734 Eh   |
          | GRADIENT NORM               0.000068074213 Eh/α |
          | HOMO-LUMO GAP               1.472512122323 eV   |
           -------------------------------------------------

 * finished run on 2025/09/14 at 12:09:34.253
