   * xtb version 6.7.1 (edcfbbe) compiled by 'albert@albert-system' on 2024-07-22

   ID    Z sym.   atoms
    1    6 C      1-7, 9-21, 24-28, 30-42, 44-49, 51-63
    2    7 N      8, 22, 23, 29, 43, 50
    3    1 H      64-101

          program call               : xtb data2507/gas/TCPZ/TCPZ_gas_S0_finalOpt.xtbopt.xyz --gfn 2 --spinpol --tblite --uhf 2 --ohess vtight --parallel 40 --molden --ceasefiles --namespace data2507/gas/TCPZ/TCPZ_gas_T1_preOpt
 * total energy  :  -158.9794795 Eh     change        0.8601813E-07 Eh
 * total energy  :  -158.9868367 Eh     change       -0.7357235E-02 Eh
 * total energy  :  -158.9900957 Eh     change       -0.3258970E-02 Eh
 * total energy  :  -158.9910858 Eh     change       -0.9901768E-03 Eh
 * total energy  :  -158.9922679 Eh     change       -0.1182067E-02 Eh
 * total energy  :  -158.9932301 Eh     change       -0.9621934E-03 Eh
 * total energy  :  -158.9940712 Eh     change       -0.8411195E-03 Eh
 * total energy  :  -158.9946224 Eh     change       -0.5511504E-03 Eh
 * total energy  :  -158.9948873 Eh     change       -0.2649274E-03 Eh
 * total energy  :  -158.9952367 Eh     change       -0.3493779E-03 Eh
 * total energy  :  -158.9988489 Eh     change       -0.7923886E-06 Eh
 * total energy  :  -158.9988492 Eh     change       -0.2395259E-06 Eh
 * total energy  :  -158.9988493 Eh     change       -0.1330653E-06 Eh
 * total energy  :  -158.9988496 Eh     change       -0.2798973E-06 Eh
 * total energy  :  -158.9988498 Eh     change       -0.1933988E-06 Eh
 * total energy  :  -158.9988499 Eh     change       -0.1449136E-06 Eh
 * total energy  :  -158.9988500 Eh     change       -0.1307837E-06 Eh
 * total energy  :  -158.9988501 Eh     change       -0.1077468E-06 Eh
 * total energy  :  -158.9988502 Eh     change       -0.2371027E-07 Eh
   *** GEOMETRY OPTIMIZATION CONVERGED AFTER 134 ITERATIONS ***

 final structure:
================
101
 xtb: 6.7.1 (edcfbbe)
C           -0.42634306839146       -0.56704981496731        0.32413799792698
C            0.68754528617621        0.26803573941784        0.10336351080151
C            0.66015196058777        1.69124058395824        0.02325041577289
C            1.84069282305879        2.46521785425094        0.01398656425646
C            1.78590696855247        3.83963437183533       -0.04716119553317
C            0.57212759084528        4.50830509589066       -0.08630200934126
C           -0.60795629035359        3.76388230048150       -0.07758770995547
N           -1.85351274948308        4.41009617053558       -0.09368324392888
C           -2.88869877195005        4.17022197035624        0.78702926889888
C           -2.93849768160873        3.31863601407497        1.88183961925274
C           -4.09976779813644        3.29663450074928        2.63022577993746
C           -5.19085094062399        4.10117437696111        2.30500451911725
C           -5.14000507264183        4.96396944226965        1.22886697733810
C           -3.98078836208092        5.00894458676962        0.46523284704126
C           -3.57457253587782        5.78822251605196       -0.67022361168880
C           -4.20322208325276        6.76072914711860       -1.43660362171513
C           -3.51500773385849        7.31441191007864       -2.49734424390291
C           -2.22128705278893        6.89982958273313       -2.80685781608781
C           -1.57500009761392        5.93369976939636       -2.06024050435524
C           -2.25305019517526        5.38979636010862       -0.97864275691606
C           -0.56414637606359        2.38331088870928       -0.04091404023661
N            1.91593105769989       -0.37950008404766       -0.00201990358283
N            2.00721660487036       -1.74671840231777        0.12652399252005
C            3.25843836040622       -2.32868789744824        0.09258256362747
C            3.34869310766769       -3.72761069123362        0.04423302317462
C            4.58374097269378       -4.33597220842621        0.01248316117443
C            5.74928069692790       -3.58552713043637        0.03167943417645
C            5.66799540772458       -2.19500273599989        0.07735506124923
N            6.83223869263986       -1.41875779637364        0.10326394548369
C            7.90786911477507       -1.54753248092029       -0.75585632693681
C            8.07988372839490       -2.40113895021684       -1.83584136473330
C            9.25538886295716       -2.30170229416674       -2.55557291811107
C           10.23684750393086       -1.37127572519547       -2.22181175702775
C           10.05953180723985       -0.50139595423206       -1.16471761859312
C            8.88635787554514       -0.58252454856021       -0.42624886802949
C            8.37092780221409        0.15806379507127        0.69134840651207
C            8.87207501162455        1.20438674388373        1.45441914327240
C            8.10948976249167        1.68544074243040        2.49980359248770
C            6.87062465833823        1.12375181462067        2.79918405576880
C            6.35176907806713        0.08103616816147        2.05513399839165
C            7.10079936906233       -0.38819267450192        0.98540099383843
C            4.43036548847381       -1.56573608486690        0.10289663315925
N            0.96172642172411       -2.52316861612328        0.31521185638729
C           -0.26587381725754       -1.94311488828505        0.38520306179339
C           -1.38269097600915       -2.84821956693875        0.59489887340988
C           -1.18354549833668       -4.08957986345183        1.20672774077188
C           -2.25504504740343       -4.92324071500730        1.45413865999036
C           -3.54057010106036       -4.54856558245845        1.09947415498225
C           -3.74724800031726       -3.33227600836793        0.45155192409065
N           -5.03418393627040       -2.94459176976762        0.05443334202760
C           -5.94076045566135       -3.72460507945189       -0.63647900094631
C           -5.81404666542549       -5.02274735221501       -1.11045269582794
C           -6.88036437601964       -5.56585280209265       -1.80111996564214
C           -8.04670129220984       -4.83902523348612       -2.02914300750348
C           -8.16770869608632       -3.53712787321070       -1.58689059734411
C           -7.10887211707912       -2.96923960297613       -0.89089515564502
C           -6.88461252225360       -1.66751895750178       -0.32824217293452
C           -7.65173065182101       -0.51148716676608       -0.26379419232656
C           -7.12559009583952        0.59721122211540        0.36772834529406
C           -5.86233949415816        0.55520893647089        0.95338251149691
C           -5.08550812879760       -0.58640530359563        0.90928135216332
C           -5.59181805617528       -1.69417690630825        0.24322583761509
C           -2.67141151763268       -2.49502427735656        0.19450612311347
H           -1.39587444269490       -0.13236972368243        0.47730455316943
H            2.80764604358408        1.99049383374611        0.09190400161691
H            2.70465617477551        4.40799178643793       -0.04449749249415
H            0.53255332586832        5.58580095656504       -0.10000066358396
H           -2.09288880147183        2.70352736900979        2.15152715800370
H           -4.16193669417484        2.64428839372124        3.48954521348350
H           -6.08287488055304        4.04982790193791        2.91187651185575
H           -5.97897798539880        5.59865522133000        0.98629117894387
H           -5.21102452393426        7.07160244759495       -1.20554031104717
H           -3.98454063175483        8.07439081958531       -3.10417495052873
H           -1.71330491747081        7.34176736246687       -3.65155996617877
H           -0.57838464955195        5.60711361825788       -2.31692098486629
H           -1.49487640326404        1.84114830055374       -0.08130675113421
H            2.61874682163701        0.04150752695817       -0.59452814245210
H            2.43675121406685       -4.29936724637470        0.03127635199472
H            4.64565463261199       -5.41293044676014       -0.01972086725030
H            6.71488663276488       -4.06522420098577        0.03604177148732
H            7.31821647754140       -3.11344276638878       -2.11505404861186
H            9.41456461948106       -2.95816702044200       -3.39823811039953
H           11.14299714088099       -1.32724711287450       -2.80727205845079
H           10.81200137501756        0.23151673781634       -0.91591426429948
H            9.84083357969545        1.62608230807055        1.23333544073563
H            8.47890708812416        2.50070816191828        3.10366825082978
H            6.30356721754028        1.50819839737137        3.63406198940711
H            5.40155989259469       -0.36144772977303        2.31437137114490
H            4.41048853310719       -0.48849457292014        0.15344560568152
H           -0.18395735062185       -4.36920267180840        1.49814080998277
H           -2.09515262421995       -5.87240989923622        1.94445069515070
H           -4.38184602848812       -5.18433481800930        1.32852336083203
H           -4.90747270640060       -5.58901444931663       -0.95972683425830
H           -6.80590611773564       -6.57604961570493       -2.17636010160184
H           -8.85960085743087       -5.30102168585885       -2.56953208743138
H           -9.06322225086149       -2.96570923316158       -1.77986393943029
H           -8.63859437605831       -0.48665878613602       -0.70109809608667
H           -7.69879488144830        1.51077007763768        0.42054412440013
H           -5.48200393440963        1.43488725788368        1.45091532487771
H           -4.12019601596896       -0.61447388584960        1.39234519606402
H           -2.84043647024615       -1.58087796120359       -0.35346876502767

 projected vibrational frequencies (cm⁻¹)
eigval :       -0.00    -0.00    -0.00     0.00     0.00     0.00
eigval :        7.07     8.80    11.74    13.97    16.69    22.64
eigval :       26.79    31.85    43.30    50.66    52.32    57.28
eigval :       65.85    70.29    72.21    89.67   100.28   101.49
eigval :      105.48   111.19   125.84   130.76   142.43   143.35
eigval :      144.70   165.65   175.94   183.25   196.56   204.43
eigval :      215.03   222.41   228.53   233.16   236.65   259.47
eigval :      267.68   271.83   272.83   273.85   283.46   287.11
eigval :      307.89   324.59   333.50   347.06   351.44   372.54
eigval :      377.83   386.90   394.18   396.44   397.30   403.26
eigval :      409.54   421.59   423.45   424.35   425.55   437.05
eigval :      437.78   438.75   444.95   454.04   483.78   501.35
eigval :      516.51   518.16   518.92   522.18   527.94   533.90
eigval :      539.43   541.10   541.13   541.60   555.46   559.76
eigval :      575.25   585.99   587.26   589.74   592.06   599.40
eigval :      608.93   610.24   611.49   615.56   619.87   635.20
eigval :      653.06   653.56   657.98   666.11   673.94   674.03
eigval :      675.12   703.54   705.11   708.41   711.07   712.25
eigval :      741.74   756.17   756.36   758.47   761.18   765.98
eigval :      768.91   769.96   772.44   780.67   780.97   783.56
eigval :      785.88   797.73   838.10   845.05   847.96   848.77
eigval :      855.83   867.82   868.62   871.31   874.22   876.78
eigval :      876.92   882.88   890.37   893.01   897.46   897.83
eigval :      898.70   902.18   903.92   904.05   904.60   904.99
eigval :      907.22   917.53   921.16   921.54   922.60   923.50
eigval :      925.01   926.18   928.31   929.48   930.46   967.01
eigval :      968.73   982.86  1000.81  1002.78  1007.31  1011.94
eigval :     1013.05  1014.84  1056.59  1062.54  1069.84  1071.36
eigval :     1071.59  1073.25  1074.89  1075.17  1106.11  1113.80
eigval :     1118.45  1120.40  1123.50  1124.85  1132.56  1151.98
eigval :     1152.72  1153.12  1173.46  1174.64  1175.98  1176.56
eigval :     1177.58  1180.93  1181.00  1181.73  1186.79  1189.52
eigval :     1191.71  1197.85  1223.09  1228.41  1233.45  1236.05
eigval :     1236.28  1237.24  1242.87  1249.23  1256.16  1259.94
eigval :     1265.89  1275.85  1298.93  1299.76  1300.50  1301.82
eigval :     1303.45  1305.57  1313.99  1327.06  1331.09  1334.16
eigval :     1342.24  1351.20  1355.39  1355.87  1359.48  1360.40
eigval :     1360.58  1361.77  1364.22  1364.66  1379.20  1389.62
eigval :     1415.79  1420.06  1423.77  1427.40  1427.65  1428.19
eigval :     1439.27  1449.86  1455.14  1464.44  1466.96  1476.18
eigval :     1476.75  1477.60  1484.99  1488.16  1488.72  1489.29
eigval :     1490.61  1537.43  1553.33  1561.09  1565.42  1568.03
eigval :     1573.84  1574.61  1575.64  1582.24  1588.57  1588.99
eigval :     1589.24  1598.96  1599.16  1599.51  1614.79  1615.13
eigval :     1615.61  3070.55  3071.85  3074.44  3074.72  3077.03
eigval :     3077.72  3078.16  3078.77  3079.14  3079.69  3080.47
eigval :     3081.28  3081.98  3083.30  3083.71  3085.71  3088.00
eigval :     3088.01  3088.63  3089.98  3090.76  3092.40  3093.29
eigval :     3094.68  3095.65  3095.91  3096.13  3098.62  3098.82
eigval :     3098.91  3099.11  3106.08  3108.92  3110.28  3111.39
eigval :     3133.32  3150.23  3376.19

   temp. (K)  partition function   enthalpy   heat capacity  entropy
                                   cal/mol     cal/K/mol   cal/K/mol   J/K/mol
 298.15  VIB  0.126E+24            29117.665    185.902    181.109
         ROT  0.228E+09              888.752      2.981     41.227
         INT  0.288E+32            30006.417    188.883    222.336
         TR   0.222E+29             1481.254      4.968     45.921
         TOT                       31487.6712   193.8511   268.2571  1122.3875

       T/K    H(0)-H(T)+PV         H(T)/Eh          T*S/Eh         G(T)/Eh
   ------------------------------------------------------------------------
    298.15    0.501788E-01    0.822288E+00    0.127458E+00    0.694830E+00
   ------------------------------------------------------------------------

         :::::::::::::::::::::::::::::::::::::::::::::::::::::
         ::                  THERMODYNAMIC                  ::
         :::::::::::::::::::::::::::::::::::::::::::::::::::::
         :: total free energy        -158.304019820461 Eh   ::
         ::.................................................::
         :: total energy             -158.998850173565 Eh   ::
         :: zero point energy           0.772109140423 Eh   ::
         :: G(RRHO) w/o ZPVE           -0.077278787319 Eh   ::
         :: G(RRHO) contrib.            0.694830353104 Eh   ::
         :::::::::::::::::::::::::::::::::::::::::::::::::::::

           -------------------------------------------------
          | TOTAL ENERGY             -158.998850173565 Eh   |
          | TOTAL ENTHALPY           -158.176562235118 Eh   |
          | TOTAL FREE ENERGY        -158.304019820461 Eh   |
          | GRADIENT NORM               0.000111771289 Eh/α |
           -------------------------------------------------

 * finished run on 2025/09/14 at 12:16:51.502
