   * xtb version 6.7.1 (edcfbbe) compiled by 'albert@albert-system' on 2024-07-22

   ID    Z sym.   atoms
    1    6 C      1-7, 9-21, 24-28, 30-42, 44-49, 51-63
    2    7 N      8, 22, 23, 29, 43, 50
    3    1 H      64-101

          program call               : xtb data2507/gas/TCPZ/TCPZ_gas_T1_crest.xyz --gfn 2 --spinpol --tblite --uhf 2 --ohess vtight --parallel 40 --molden --ceasefiles --namespace data2507/gas/TCPZ/TCPZ_gas_T1_finalOpt
 * total energy  :  -158.9992528 Eh     change        0.4248810E-07 Eh
 * total energy  :  -158.9992662 Eh     change       -0.1341926E-04 Eh
 * total energy  :  -158.9992704 Eh     change       -0.4145383E-05 Eh
 * total energy  :  -158.9992704 Eh     change        0.8968755E-09 Eh
 * total energy  :  -158.9992712 Eh     change       -0.8279506E-06 Eh
 * total energy  :  -158.9992710 Eh     change        0.1804041E-06 Eh
 * total energy  :  -158.9992718 Eh     change       -0.7541427E-06 Eh
 * total energy  :  -158.9992723 Eh     change       -0.4752170E-06 Eh
 * total energy  :  -158.9992726 Eh     change       -0.3789740E-06 Eh
 * total energy  :  -158.9992731 Eh     change       -0.4695207E-06 Eh
 * total energy  :  -158.9992734 Eh     change       -0.3432932E-06 Eh
 * total energy  :  -158.9992743 Eh     change       -0.8971157E-06 Eh
 * total energy  :  -158.9992747 Eh     change       -0.3896860E-06 Eh
 * total energy  :  -158.9992752 Eh     change       -0.4525028E-06 Eh
 * total energy  :  -158.9992752 Eh     change       -0.5362338E-07 Eh
   *** GEOMETRY OPTIMIZATION CONVERGED AFTER 15 ITERATIONS ***

 final structure:
================
101
 xtb: 6.7.1 (edcfbbe)
C           -0.34084428995124       -0.63955610014123        0.16807532346149
C            0.69891376104684        0.31016903819183        0.12786547985916
C            0.53448585169486        1.72436847050503        0.03087718991249
C            1.62976677956872        2.60990587336249       -0.07018242919276
C            1.43791835802125        3.97280672480758       -0.11560169334311
C            0.16656732760599        4.52214721008786       -0.06012024161258
C           -0.93343313107102        3.66637622933600        0.01022263319621
N           -2.23547645807885        4.18678994422452        0.05562048696823
C           -3.21737899790522        3.82140767624963        0.95463985806122
C           -3.15128939942559        2.95136072321255        2.03429648514829
C           -4.28871971819034        2.78448819935487        2.80090560457116
C           -5.46825175734003        3.46896890147115        2.51243104547832
C           -5.53331386390479        4.35402554993820        1.45517890765927
C           -4.40206997454454        4.53989527732907        0.67128818962709
C           -4.11136365057731        5.37497750901589       -0.45976417008400
C           -4.86282032602652        6.28195054379621       -1.19531723561483
C           -4.26839169487487        6.91902669681845       -2.26579623092604
C           -2.94709857959768        6.64911739489142       -2.61583311978540
C           -2.17951683385070        5.75085734592111       -1.89991322397908
C           -2.76323403573005        5.12643421546480       -0.80674453359009
C           -0.75188463708694        2.29709232008043        0.04443171704588
N            1.98561995828050       -0.20948872385789        0.21997809545216
N            2.18589480779338       -1.54208103576490        0.51217850119322
C            3.48767604242777       -1.97797587896995        0.65440670840816
C            3.73011206034357       -3.23652261126155        1.22199388262534
C            5.02577353424960       -3.66250179235354        1.41534270827871
C            6.10196425187892       -2.86018564550924        1.06654840480320
C            5.86783081873601       -1.62269998430759        0.47003686028790
N            6.93116487940453       -0.79866882850781        0.08651942606030
C            8.03454454245018       -1.17938819982789       -0.65498851662047
C            8.34998257156706       -2.41471081946387       -1.20142614128391
C            9.51900734446739       -2.51720260874826       -1.93118456357309
C           10.35471617916467       -1.41986107717068       -2.12566542239755
C           10.03173329429376       -0.18172071677947       -1.60793400637507
C            8.86168136571485       -0.05398949473801       -0.87106493465409
C            8.21981734230575        1.05714094630423       -0.22550169531718
C            8.54775655835991        2.39905513442113       -0.08509858702315
C            7.69748308329703        3.21772234513746        0.63108377503935
C            6.54487767439315        2.70811627145355        1.22384842748006
C            6.20008910438520        1.37568572912963        1.09960642205365
C            7.03166039356912        0.55420958006558        0.35166281803139
C            4.56780341959627       -1.18795822994367        0.24955300211320
N            1.20729656296993       -2.40972497420686        0.63957725623710
C           -0.06721222958699       -1.97217559657578        0.44513323750380
C           -1.11252364017884       -2.96465666730697        0.61417372532813
C           -0.84961209537935       -4.15738975229394        1.29816260477030
C           -1.85824289336100       -5.06998466515864        1.52840674970274
C           -3.15177219083115       -4.82071536568311        1.09943194465760
C           -3.42205460199407       -3.65270354552613        0.38962117296517
N           -4.71909690093595       -3.37001326805522       -0.06090306908126
C           -5.55088581291137       -4.22753288697436       -0.75250125354743
C           -5.32241699055986       -5.52599642050244       -1.18540709554908
C           -6.32923246304381       -6.15895204590018       -1.88869072765368
C           -7.53527741527301       -5.51989936901257       -2.16785639380488
C           -7.75815177122599       -4.21887002470381       -1.76416307422393
C           -6.76090453646566       -3.56133375803512       -1.05620089646359
C           -6.64280541602468       -2.23452715820574       -0.52010169292008
C           -7.48984765786874       -1.13386908179540       -0.50006968764921
C           -7.05999459623170        0.02110351252691        0.12150525758403
C           -5.81298710582335        0.08035777675597        0.73987854257627
C           -4.95698455868281       -1.00406252970328        0.73851432738789
C           -5.36708682526905       -2.15791457553074        0.08420988954856
C           -2.40491937947763       -2.74573221175133        0.13377292427754
H           -1.35574132461648       -0.31351694749994        0.04939224627280
H            2.64149219429148        2.23630204212218       -0.13583793665432
H            2.29549356315132        4.62601245755453       -0.18686820244224
H            0.02359966600944        5.59083078136433       -0.06010763445525
H           -2.23838441799541        2.42893175445670        2.27853521953035
H           -4.26323749930608        2.10858085981302        3.64343648063438
H           -6.33759115703966        3.30532480069604        3.13202174827855
H           -6.44160646324758        4.89672547846429        1.24072562736442
H           -5.89167773665264        6.47837247437019       -0.93351304157776
H           -4.83390334491742        7.63041059817903       -2.84919346216738
H           -2.51392794069391        7.15092081656690       -3.46869353055905
H           -1.16251640112947        5.53503944091651       -2.19078498580911
H           -1.62753960846947        1.67043914093475        0.07935404621123
H            2.70511872157971        0.40455906251735        0.57895410534669
H            2.88781211147595       -3.84433667572810        1.50371002469301
H            5.20683639526858       -4.62773983169223        1.86290348556664
H            7.11344577902235       -3.17994215243322        1.25911107888996
H            7.69991318269855       -3.26698141843656       -1.07465034089530
H            9.78834424408791       -3.46933112907001       -2.36380177685367
H           11.26138930082503       -1.54216198652251       -2.69902328809832
H           10.66935105616651        0.67347307716429       -1.77324960680511
H            9.45261863523286        2.78882276251815       -0.52592539300195
H            7.93111551153267        4.26534784670891        0.74728656267006
H            5.90906202713242        3.36670599591684        1.79730213751453
H            5.32163520051520        0.98545424578572        1.59297075083354
H            4.42296190037890       -0.26351150971661       -0.28756888354987
H            0.15150492500864       -4.33981080662914        1.65289949948883
H           -1.64437409360712       -5.98159307013074        2.06712043117123
H           -3.94923903480350       -5.51350889168243        1.31956172447367
H           -4.38408816706129       -6.02387087473536       -0.99295496475428
H           -6.17594202955774       -7.17110703009071       -2.23348614080086
H           -8.29889595182998       -6.05038713358039       -2.71719342050668
H           -8.68537824482263       -3.71647598945988       -1.99567340399186
H           -8.46411418035313       -1.18689784885967       -0.96242399387478
H           -7.69760197221843        0.89232874400709        0.14120684333853
H           -5.51017064519781        0.99290803881118        1.23182557175781
H           -4.00466818031646       -0.95450404589530        1.24540705905770
H           -2.62939870574642       -1.87922369979183       -0.46805489668518

 projected vibrational frequencies (cm⁻¹)
eigval :       -0.00    -0.00    -0.00     0.00     0.00     0.00
eigval :        7.25     8.74    12.46    13.06    15.14    23.40
eigval :       26.33    31.06    40.71    52.10    53.18    55.95
eigval :       64.89    68.44    69.37    76.93    95.89   100.41
eigval :      105.05   112.37   123.24   132.47   141.02   144.20
eigval :      144.77   162.53   174.78   187.34   193.85   203.09
eigval :      212.45   223.49   229.77   232.25   234.50   260.97
eigval :      263.83   272.10   272.42   273.15   289.92   292.07
eigval :      310.42   324.64   337.22   348.55   357.82   371.45
eigval :      381.79   387.10   395.80   396.40   397.43   408.46
eigval :      418.67   423.28   423.72   424.53   427.76   437.36
eigval :      438.05   439.13   444.51   455.87   495.93   507.55
eigval :      516.49   518.66   518.74   522.10   530.70   534.20
eigval :      540.94   541.15   541.24   545.86   551.17   557.19
eigval :      576.28   586.68   587.13   587.91   592.06   600.67
eigval :      609.76   610.75   612.76   615.52   621.52   634.75
eigval :      652.15   654.46   657.18   663.17   674.13   674.23
eigval :      674.94   703.45   705.28   708.42   711.09   712.38
eigval :      741.90   747.74   756.31   756.41   760.31   764.04
eigval :      768.79   769.99   771.60   780.33   780.81   782.86
eigval :      785.98   793.73   840.79   845.15   848.82   851.64
eigval :      854.01   866.43   866.77   870.11   874.61   876.78
eigval :      877.87   880.76   886.88   889.95   897.55   897.85
eigval :      898.47   902.25   903.07   903.68   904.11   904.63
eigval :      906.77   917.26   920.48   920.94   922.75   923.07
eigval :      923.68   925.35   926.78   928.95   930.50   966.63
eigval :      970.58   982.35  1001.24  1003.71  1007.07  1011.97
eigval :     1013.12  1015.44  1057.55  1061.86  1070.30  1070.82
eigval :     1071.14  1073.75  1074.31  1074.91  1103.07  1110.01
eigval :     1118.55  1121.15  1123.16  1123.51  1133.13  1151.89
eigval :     1152.14  1152.79  1171.50  1175.24  1175.55  1176.04
eigval :     1177.21  1180.64  1180.81  1181.22  1187.25  1189.44
eigval :     1191.74  1199.48  1226.19  1230.90  1231.92  1235.52
eigval :     1236.21  1236.99  1242.86  1250.34  1255.21  1262.14
eigval :     1264.92  1281.59  1298.91  1299.66  1300.42  1301.71
eigval :     1303.83  1304.82  1315.71  1328.20  1332.12  1334.25
eigval :     1343.51  1351.61  1355.63  1355.98  1359.46  1360.19
eigval :     1360.48  1361.73  1364.24  1365.27  1380.46  1390.06
eigval :     1415.36  1419.74  1424.13  1427.28  1427.72  1427.94
eigval :     1439.08  1448.98  1455.97  1464.27  1467.32  1476.20
eigval :     1476.72  1477.41  1484.69  1487.65  1488.15  1488.67
eigval :     1489.19  1537.78  1553.17  1559.54  1565.61  1568.00
eigval :     1573.62  1574.67  1575.64  1581.99  1588.47  1588.66
eigval :     1589.35  1598.83  1599.03  1599.64  1614.88  1615.06
eigval :     1615.48  3064.06  3067.76  3073.51  3074.50  3074.91
eigval :     3077.04  3078.25  3078.59  3078.90  3079.70  3080.10
eigval :     3080.85  3080.99  3081.79  3083.90  3086.47  3087.20
eigval :     3087.46  3088.80  3089.46  3091.43  3092.99  3093.17
eigval :     3094.30  3096.01  3096.14  3096.34  3097.78  3098.81
eigval :     3099.03  3100.63  3107.00  3110.55  3114.70  3116.14
eigval :     3134.84  3160.76  3368.56

   temp. (K)  partition function   enthalpy   heat capacity  entropy
                                   cal/mol     cal/K/mol   cal/K/mol   J/K/mol
 298.15  VIB  0.177E+24            29123.913    185.653    181.449
         ROT  0.225E+09              888.752      2.981     41.198
         INT  0.397E+32            30012.665    188.634    222.648
         TR   0.222E+29             1481.254      4.968     45.921
         TOT                       31493.9190   193.6025   268.5690  1123.6925

       T/K    H(0)-H(T)+PV         H(T)/Eh          T*S/Eh         G(T)/Eh
   ------------------------------------------------------------------------
    298.15    0.501888E-01    0.822304E+00    0.127606E+00    0.694699E+00
   ------------------------------------------------------------------------

         :::::::::::::::::::::::::::::::::::::::::::::::::::::
         ::                  THERMODYNAMIC                  ::
         :::::::::::::::::::::::::::::::::::::::::::::::::::::
         :: total free energy        -158.304576642833 Eh   ::
         ::.................................................::
         :: total energy             -158.999275237469 Eh   ::
         :: zero point energy           0.772115617853 Eh   ::
         :: G(RRHO) w/o ZPVE           -0.077417023217 Eh   ::
         :: G(RRHO) contrib.            0.694698594636 Eh   ::
         :::::::::::::::::::::::::::::::::::::::::::::::::::::

           -------------------------------------------------
          | TOTAL ENERGY             -158.999275237469 Eh   |
          | TOTAL ENTHALPY           -158.176970864967 Eh   |
          | TOTAL FREE ENERGY        -158.304576642833 Eh   |
          | GRADIENT NORM               0.000174808429 Eh/α |
           -------------------------------------------------

 * finished run on 2025/09/14 at 12:24:11.497
