   * xtb version 6.7.1 (edcfbbe) compiled by 'albert@albert-system' on 2024-07-22

   ID    Z sym.   atoms
    1    6 C      1-20, 22-30, 33-39, 41-50
    2    7 N      21, 31, 32, 40
    3    1 H      51-92

          program call               : xtb data2507/gas/DTPCZTZ/DTPCZTZ_gas_S0_finalOpt.xtbopt.xyz --gfn 2 --spinpol --tblite --uhf 2 --ohess vtight --parallel 40 --molden --ceasefiles --namespace data2507/gas/DTPCZTZ/DTPCZTZ_gas_T1_preOpt
 * total energy  :  -131.5864665 Eh     change       -0.4169834E-08 Eh
 * total energy  :  -131.5918136 Eh     change       -0.5347093E-02 Eh
 * total energy  :  -131.5951770 Eh     change       -0.3363414E-02 Eh
 * total energy  :  -131.5959305 Eh     change       -0.7534992E-03 Eh
 * total energy  :  -131.5971364 Eh     change       -0.1205942E-02 Eh
 * total energy  :  -131.5976216 Eh     change       -0.4851198E-03 Eh
 * total energy  :  -131.5978995 Eh     change       -0.2779659E-03 Eh
 * total energy  :  -131.5980935 Eh     change       -0.1940103E-03 Eh
 * total energy  :  -131.5982474 Eh     change       -0.1538696E-03 Eh
 * total energy  :  -131.5983755 Eh     change       -0.1280801E-03 Eh
 * total energy  :  -131.5989742 Eh     change       -0.8307767E-06 Eh
 * total energy  :  -131.5989749 Eh     change       -0.7009635E-06 Eh
 * total energy  :  -131.5989757 Eh     change       -0.7809300E-06 Eh
 * total energy  :  -131.5989762 Eh     change       -0.5232961E-06 Eh
 * total energy  :  -131.5989764 Eh     change       -0.2489899E-06 Eh
 * total energy  :  -131.5989766 Eh     change       -0.2130310E-06 Eh
 * total energy  :  -131.5989768 Eh     change       -0.1212090E-06 Eh
 * total energy  :  -131.5989769 Eh     change       -0.1091177E-06 Eh
 * total energy  :  -131.5989769 Eh     change       -0.6443770E-07 Eh
   *** GEOMETRY OPTIMIZATION CONVERGED AFTER 58 ITERATIONS ***

 final structure:
================
92
 xtb: 6.7.1 (edcfbbe)
C           -7.60716124678396        4.92190311345217       -1.91558897062675
C           -7.71437160759869        4.29367321023194       -0.51868133452484
C           -9.16958942114406        3.87217912607439       -0.29685844175161
C           -7.35294176084429        5.33552789566305        0.54975391020425
C           -6.74576683109292        3.12522242705645       -0.42211988238593
C           -5.37548694495902        3.36555940943260       -0.59177604650422
C           -4.42339000117943        2.36964896871392       -0.51201497192354
C           -4.85167080509673        1.07839984377749       -0.23973699397964
C           -6.22996547600762        0.80405221637250       -0.10164655295723
C           -7.16563612421610        1.82349840923982       -0.18732203769475
C           -6.34377794481936       -0.61635631464477        0.09774258044718
C           -7.42615323677868       -1.45602904744781        0.31114753547207
C           -7.21591649848954       -2.81384491504285        0.50615196748040
C           -8.35519772998996       -3.79473705506761        0.73538231277544
C           -9.72924936063714       -3.11995304263013        0.70100797008709
C           -8.32335964764141       -4.86605992025538       -0.36409194884249
C           -8.18249590651182       -4.45501714954255        2.11079030823272
C           -5.89908221108076       -3.29360774323110        0.50518234592645
C           -4.80405310792423       -2.47999379025639        0.29643670079644
C           -5.02899634765318       -1.13048362397929        0.06599871750706
N           -4.13301639004392       -0.09779914727609       -0.13746878642325
C           -2.75228037818139       -0.21999201242947       -0.22124460792704
C           -1.90831361703375        0.67182596022402        0.46253247196618
C           -0.55044874377460        0.54991558718318        0.38286896456933
C            0.07310974715655       -0.46987979647941       -0.39111963786495
C            1.48359180357377       -0.59414714230004       -0.47144964517300
C            2.12217330450159       -1.78812692736903       -0.93689654103844
C            3.47011105130406       -1.91229151706189       -0.97918615094759
C            4.33365925882079       -0.85412081573501       -0.55664104647335
C            5.71858388483169       -1.07620071225218       -0.60856011831954
N            6.26732414871426       -2.10273207772820       -1.28191158297378
N            7.56216318538258       -1.99949392503237       -1.24459572681576
C            7.90712711297651       -0.93580484319028       -0.53591603531395
C            9.27695620628593       -0.58728787745547       -0.26212217424099
C            9.67930548901665        0.12104073551508        0.87508379959076
C           11.01578204607446        0.40034999510633        1.08038741223716
C           11.97272029672396       -0.02010865270068        0.17011404456236
C           11.58531667445691       -0.74700742174639       -0.94707253975752
C           10.25448036711462       -1.03280799334939       -1.16198153170195
N            6.75976186039755       -0.29536075130052       -0.10554211662116
C            6.68144234928056        0.85633757049688        0.68762369042998
C            6.01553361668372        0.81690195466339        1.91157542754191
C            5.95510583432083        1.95388377597734        2.69374743537101
C            6.55727337794089        3.12824942891619        2.26892131728612
C            7.22187845029756        3.16483774757162        1.05315863566795
C            7.28680062064559        2.03577697006877        0.25935772195850
C            3.71013300589492        0.36494609652900       -0.15929121561211
C            2.35876476124298        0.47798933019848       -0.11118681427527
C           -0.80626725361219       -1.35763943059722       -1.07350474135283
C           -2.16420306983110       -1.23898838031696       -0.99032991564663
H           -6.60783583250914        5.30377508140077       -2.10438305823258
H           -7.83893256448003        4.18209869577428       -2.67903156632149
H           -8.30999444539405        5.74701744477087       -2.00942642519437
H           -9.30365147109841        3.43192171210602        0.68857613726478
H           -9.81372322217134        4.74657418244625       -0.36411008632869
H           -9.49148192458195        3.16086940493859       -1.05392949605005
H           -8.04862431180665        6.17090169454503        0.50782992447527
H           -6.34857319338243        5.72303846845017        0.40442768742393
H           -7.40677051423823        4.89085597718695        1.54137446374124
H           -5.03657030381025        4.36844399798667       -0.80102715176720
H           -3.38055702945736        2.59430708901123       -0.67489677109367
H           -8.20853469684146        1.57873482064347       -0.07517412881122
H           -8.41539555978199       -1.03026727967535        0.32743796800418
H          -10.50354664201845       -3.86783410511356        0.85950178207448
H           -9.81924150425393       -2.37370593873889        1.48702589724554
H           -9.91020131871092       -2.64915095733466       -0.26255496390068
H           -9.14355360023054       -5.56745843435420       -0.22668768434638
H           -7.39226409453367       -5.42537358329028       -0.34795897130207
H           -8.42576132577877       -4.40258665133716       -1.34319271462768
H           -9.00289291825939       -5.14392564696222        2.30031742255508
H           -7.25136226856789       -5.01124180236093        2.17115998114861
H           -8.17883965927723       -3.69860958410938        2.89293215804739
H           -5.71856114543408       -4.34291180347751        0.68042645740077
H           -3.80513226847357       -2.88674719352728        0.32981143707057
H           -2.34921831414725        1.42767639944419        1.09604353520474
H            0.06114964958886        1.21869841181197        0.96716340670284
H            1.51460068382889       -2.63056697641882       -1.22777934003347
H            3.93803385273062       -2.82332334558649       -1.31741680330772
H            8.95414626225865        0.42916078747764        1.61252426785600
H           11.31409050871752        0.94690916643822        1.96335771263699
H           13.01510108496025        0.20801555430228        0.33563686902092
H           12.32880144859097       -1.08922987679845       -1.65187392797175
H            9.93730895940047       -1.59948741336339       -2.02331776096312
H            5.55013799545856       -0.10313644604659        2.23339321205014
H            5.43978605933328        1.92156783628395        3.64205038803103
H            6.50878433680552        4.01328802891070        2.88493685157797
H            7.68936599221865        4.07884701482462        0.71886517918838
H            7.80316772125443        2.05439819196039       -0.68899533041580
H            4.31988548450993        1.22443786239924        0.07214175469035
H            1.93377135417640        1.43197953047897        0.16125422729603
H           -0.39497905375472       -2.11870683933001       -1.71676702853252
H           -2.80238037855724       -1.90012269301373       -1.55818898002740

 projected vibrational frequencies (cm⁻¹)
eigval :       -0.00    -0.00    -0.00    -0.00     0.00     0.00
eigval :        6.45     9.49    13.79    21.81    27.90    30.59
eigval :       31.60    33.17    43.23    49.66    54.34    65.10
eigval :       72.45    77.34    80.29    94.19   101.82   111.57
eigval :      117.70   123.59   131.09   156.69   160.12   165.78
eigval :      178.76   187.65   201.80   216.38   220.56   224.46
eigval :      229.10   234.96   239.11   245.68   258.27   264.98
eigval :      273.53   294.29   314.38   318.02   319.23   322.67
eigval :      338.88   342.94   347.91   358.61   363.35   369.12
eigval :      372.66   378.62   381.65   386.42   387.51   399.30
eigval :      407.88   410.90   428.76   441.35   442.70   445.59
eigval :      459.31   465.98   467.10   473.10   478.07   495.32
eigval :      510.85   518.05   565.96   567.10   570.51   583.53
eigval :      585.44   588.15   593.16   598.36   603.93   626.15
eigval :      632.27   640.91   645.76   654.77   658.82   668.03
eigval :      674.36   685.36   689.91   703.25   707.34   718.68
eigval :      719.89   753.77   754.83   766.51   790.84   796.83
eigval :      804.11   819.32   824.61   829.13   832.07   867.58
eigval :      869.93   871.03   871.86   873.19   893.05   895.28
eigval :      902.87   905.27   907.72   909.54   911.33   921.60
eigval :      921.87   924.94   925.26   925.94   926.32   927.37
eigval :      927.95   937.55   938.28   946.65   960.27   960.34
eigval :      962.77   963.16   963.29   963.34   973.57   989.17
eigval :     1004.46  1017.14  1030.50  1034.95  1035.02  1035.61
eigval :     1040.92  1076.12  1079.80  1089.79  1110.25  1115.35
eigval :     1121.28  1129.14  1133.23  1133.79  1139.71  1151.01
eigval :     1159.67  1169.16  1179.75  1180.05  1188.97  1194.56
eigval :     1204.45  1210.36  1226.91  1226.98  1230.57  1230.84
eigval :     1233.22  1233.96  1238.45  1244.14  1257.27  1258.72
eigval :     1267.46  1273.12  1276.99  1281.36  1284.45  1294.71
eigval :     1300.55  1305.07  1316.38  1325.01  1327.08  1332.11
eigval :     1346.23  1349.89  1366.22  1369.23  1382.83  1401.99
eigval :     1404.79  1405.82  1405.93  1410.33  1410.55  1416.00
eigval :     1419.95  1428.38  1428.57  1432.58  1434.97  1436.06
eigval :     1455.85  1464.82  1465.76  1471.82  1475.95  1480.30
eigval :     1487.28  1491.20  1491.36  1493.86  1493.89  1500.21
eigval :     1500.34  1504.52  1504.72  1505.95  1514.48  1514.71
eigval :     1519.23  1520.05  1557.49  1562.54  1564.03  1567.41
eigval :     1571.45  1573.80  1582.12  1584.87  1592.04  1602.64
eigval :     3023.02  3023.18  3024.57  3024.94  3027.46  3027.50
eigval :     3031.04  3031.24  3031.55  3031.87  3035.90  3036.14
eigval :     3038.88  3039.16  3048.28  3048.51  3051.63  3051.89
eigval :     3073.94  3078.36  3079.28  3080.52  3080.94  3082.63
eigval :     3083.60  3086.98  3087.64  3089.88  3090.91  3091.16
eigval :     3094.02  3098.17  3099.16  3100.07  3100.62  3101.61
eigval :     3105.43  3106.44  3107.40  3110.06  3116.87  3120.73

   temp. (K)  partition function   enthalpy   heat capacity  entropy
                                   cal/mol     cal/K/mol   cal/K/mol   J/K/mol
 298.15  VIB  0.115E+22            26463.899    163.567    165.378
         ROT  0.163E+09              888.752      2.981     40.559
         INT  0.187E+30            27352.652    166.548    205.937
         TR   0.161E+29             1481.254      4.968     45.281
         TOT                       28833.9055   171.5165   251.2181  1051.0965

       T/K    H(0)-H(T)+PV         H(T)/Eh          T*S/Eh         G(T)/Eh
   ------------------------------------------------------------------------
    298.15    0.459498E-01    0.786755E+00    0.119362E+00    0.667393E+00
   ------------------------------------------------------------------------

         :::::::::::::::::::::::::::::::::::::::::::::::::::::
         ::                  THERMODYNAMIC                  ::
         :::::::::::::::::::::::::::::::::::::::::::::::::::::
         :: total free energy        -130.931583659337 Eh   ::
         ::.................................................::
         :: total energy             -131.598976990788 Eh   ::
         :: zero point energy           0.740805395168 Eh   ::
         :: G(RRHO) w/o ZPVE           -0.073412063717 Eh   ::
         :: G(RRHO) contrib.            0.667393331451 Eh   ::
         :::::::::::::::::::::::::::::::::::::::::::::::::::::

           -------------------------------------------------
          | TOTAL ENERGY             -131.598976990788 Eh   |
          | TOTAL ENTHALPY           -130.812221842353 Eh   |
          | TOTAL FREE ENERGY        -130.931583659337 Eh   |
          | GRADIENT NORM               0.000052771258 Eh/α |
           -------------------------------------------------

 * finished run on 2025/09/04 at 22:50:12.910
