   * xtb version 6.7.1 (edcfbbe) compiled by 'albert@albert-system' on 2024-07-22

   ID    Z sym.   atoms
    1    6 C      1-20, 22-30, 33-39, 41-50
    2    7 N      21, 31, 32, 40
    3    1 H      51-92

          program call               : xtb data2507/gas/DTPCZTZ/DTPCZTZ_gas_S0_crest.xyz --gfn 2 --ohess vtight --parallel 40 --molden --ceasefiles --namespace data2507/gas/DTPCZTZ/DTPCZTZ_gas_S0_finalOpt
          :  Hamiltonian                  GFN2-xTB          :
 * total energy  :  -131.6857665 Eh     change       -0.3329745E-08 Eh
 * total energy  :  -131.6857675 Eh     change       -0.1039563E-05 Eh
 * total energy  :  -131.6857686 Eh     change       -0.1088574E-05 Eh
 * total energy  :  -131.6857733 Eh     change       -0.4692860E-05 Eh
 * total energy  :  -131.6857751 Eh     change       -0.1763116E-05 Eh
 * total energy  :  -131.6857758 Eh     change       -0.7437251E-06 Eh
 * total energy  :  -131.6857767 Eh     change       -0.8544447E-06 Eh
 * total energy  :  -131.6857777 Eh     change       -0.1039958E-05 Eh
 * total energy  :  -131.6857784 Eh     change       -0.7355182E-06 Eh
 * total energy  :  -131.6857785 Eh     change       -0.9508861E-07 Eh
   *** GEOMETRY OPTIMIZATION CONVERGED AFTER 10 ITERATIONS ***

 final structure:
================
92
 xtb: 6.7.1 (edcfbbe)
C           -7.48199856673024        4.96372828573006       -1.87578559337547
C           -7.60143659950114        4.32837925333470       -0.48330021209431
C           -9.06278254192297        3.92398119943166       -0.26989007111791
C           -7.23234684075901        5.35969958322334        0.59244692688152
C           -6.64800674437316        3.14572340659905       -0.39042780064455
C           -5.27456970019647        3.37040641103200       -0.55546180382945
C           -4.33498994601644        2.36249504758463       -0.48193310708049
C           -4.77990645685759        1.07503043024080       -0.22492229823516
C           -6.15925196905846        0.81688493883214       -0.08273145330064
C           -7.08293174281983        1.85099863431478       -0.16118299714872
C           -6.29024878428183       -0.60019909116065        0.11583852161456
C           -7.38385090803913       -1.42839916790145        0.33243851502178
C           -7.19122997653175       -2.78709362184224        0.51898388912308
C           -8.34161659199652       -3.75511207732362        0.75522771486498
C           -9.70606455577864       -3.06026517895834        0.74682508090165
C           -8.34197203463183       -4.81660283572760       -0.35392870198989
C           -8.16060784638477       -4.43075672636679        2.12189507664908
C           -5.88165828353803       -3.28583698091756        0.49943446414991
C           -4.77722994296024       -2.48646247746748        0.28668814352043
C           -4.98471040968855       -1.13232384281567        0.07492490620755
N           -4.07656896395659       -0.11068506785077       -0.12938704395963
C           -2.68938170937142       -0.25257644978675       -0.22296995373792
C           -1.84506613316606        0.57356703775349        0.51536999892976
C           -0.47620064320623        0.43417144747928        0.41605541726724
C            0.08836062793538       -0.53934433058725       -0.40684868887782
C            1.54516749202586       -0.69078435730980       -0.50205410001167
C            2.12914185046174       -1.95541431355493       -0.57943496438324
C            3.49753433261477       -2.09775916235805       -0.66105954346137
C            4.32557276775842       -0.97534880571578       -0.66359233220962
C            5.75897874059347       -1.17522596028037       -0.76475781600447
N            6.32428715258164       -2.14038638840704       -1.44428941544580
N            7.64612211294362       -2.00658871907420       -1.35289466959536
C            7.91051645199080       -0.96065542100689       -0.61222931467267
C            9.25059315531697       -0.52289926901452       -0.26326599875367
C            9.55163593081931        0.04048378096646        0.97475995475980
C           10.84777141525883        0.42803718038414        1.26041652743239
C           11.85314161829829        0.25378915190121        0.32419045534989
C           11.56271981719996       -0.32743536303277       -0.90001689349947
C           10.27082872515839       -0.71723376610292       -1.19378709588883
N            6.73176730170757       -0.38000059689621       -0.20267042066433
C            6.55762414964042        0.75634165628502        0.60535512844952
C            5.78759368061397        0.67027395214494        1.76027084364236
C            5.61603600513555        1.79203364979476        2.54990202143309
C            6.21179458423145        2.99187448515175        2.19688666912908
C            6.98049664285583        3.07272767656439        1.04722547965575
C            7.15458114705586        1.95973659839226        0.24569220986033
C            3.74821897705369        0.29186984763312       -0.61080827555390
C            2.37758941225237        0.42707265016888       -0.52675991242837
C           -0.76465038333351       -1.36576757566502       -1.13702375300034
C           -2.13414598455024       -1.22230069296733       -1.05485680758908
H           -6.47673217766399        5.33288805281042       -2.05896997090595
H           -7.72072414554610        4.23121519565970       -2.64424944768584
H           -8.17332305258486        5.79898963558486       -1.96793835804198
H           -9.20657475670648        3.48201226772431        0.71343740256862
H           -9.69663062648114        4.80607552768017       -0.33785645059644
H           -9.38857382080005        3.21803778066896       -1.03035967829293
H           -7.91678428210008        6.20472208549601        0.55276099588580
H           -6.22216232100690        5.73463041821522        0.45368668516395
H           -7.29593309735372        4.90972553114919        1.58114769284932
H           -4.92241822147150        4.37133271240108       -0.75400850319525
H           -3.28760441269303        2.57595824977087       -0.63497150580182
H           -8.12821534017673        1.61758726777014       -0.04577475483867
H           -8.36664307626994       -0.98793934413343        0.35557421912050
H          -10.48935031225908       -3.79732107517787        0.91306768124219
H           -9.77152530215901       -2.31730332349084        1.53835711402814
H           -9.89457355243720       -2.58026489934159       -0.21070577218722
H           -9.17240972457878       -5.50566997964637       -0.21392833379929
H           -7.42013033394810       -5.39147247050758       -0.35377860800078
H           -8.44723170247625       -4.34201391247526       -1.32741799333418
H           -8.98828797063738       -5.10951218577189        2.31752381544998
H           -7.23682191139822       -5.00087080869504        2.16416555824348
H           -8.13438133867372       -3.68135799456892        2.91036461118907
H           -5.71471336907727       -4.34000454261934        0.66074684091890
H           -3.78342855162254       -2.90850054590700        0.29915233295145
H           -2.27109357754517        1.31049978763985        1.17971910157161
H            0.16638833219400        1.06835604844426        1.00915326034114
H            1.50206865347913       -2.83420543647073       -0.55371856750264
H            3.95157148829060       -3.07437817123796       -0.72263353111231
H            8.78198321048754        0.15933560910679        1.72334457321366
H           11.07353017430352        0.86417425035653        2.22252107450764
H           12.86280441941103        0.56172681060041        0.55230871617862
H           12.34727397473986       -0.47700251766775       -1.62685644758547
H           10.02727247307920       -1.17740392493015       -2.13855079218646
H            5.32996686813818       -0.27069011976314        2.02813276165082
H            5.01778881173873        1.72622176936964        3.44606546254308
H            6.07718485781907        3.86422136800646        2.81812292909480
H            7.44485903772894        4.00686209344988        0.76976126640639
H            7.74987468798156        2.01286598035680       -0.65393194500592
H            4.36651753249730        1.17642480652705       -0.65849060550204
H            1.94342650521748        1.41592679269018       -0.50699722099574
H           -0.34726263342225       -2.10764222570957       -1.80156092084571
H           -2.78386581697154       -1.84757894541521       -1.64867206949227

          :  Hamiltonian                  GFN2-xTB          :
         :: gradient norm              0.000174136225 Eh/a0 ::
         :: HOMO-LUMO gap              2.324160982901 eV    ::
         :: SCC energy              -134.033850383285 Eh    ::
         :: -> dispersion             -0.118398982668 Eh    ::
         :: repulsion energy           2.348071845724 Eh    ::

    * Orbital Energies and Occupations

         #    Occupation            Energy/Eh            Energy/eV
      -------------------------------------------------------------
         1        2.0000           -0.7005620             -19.0633
       ...           ...                  ...                  ...
       111        2.0000           -0.4123845             -11.2216
       112        2.0000           -0.4122738             -11.2185
       113        2.0000           -0.4121216             -11.2144
       114        2.0000           -0.4101173             -11.1599
       115        2.0000           -0.4057140             -11.0400
       116        2.0000           -0.4032961             -10.9742
       117        2.0000           -0.4011137             -10.9149
       118        2.0000           -0.3986818             -10.8487
       119        2.0000           -0.3927488             -10.6872
       120        2.0000           -0.3813436             -10.3769
       121        2.0000           -0.3693199             -10.0497
       122        2.0000           -0.3626784              -9.8690
       123        2.0000           -0.3530585              -9.6072 (HOMO)
       124                         -0.2676471              -7.2830 (LUMO)
       125                         -0.2522719              -6.8647
       126                         -0.2466523              -6.7118
       127                         -0.2433388              -6.6216
       128                         -0.2369077              -6.4466
       129                         -0.2306301              -6.2758
       130                         -0.2295506              -6.2464
       131                         -0.2289312              -6.2295
       132                         -0.2216064              -6.0302
       133                         -0.2135407              -5.8107
       134                         -0.1861172              -5.0645
       ...                                ...                  ...
       242                          0.7470587              20.3285
      -------------------------------------------------------------
                  HL-Gap            0.0854114 Eh            2.3242 eV

     #   Z          covCN         q      C6AA      α(0)
     1   6 C        3.762    -0.105    22.549     6.769
     2   6 C        3.903     0.026    20.087     6.371
     3   6 C        3.761    -0.107    22.583     6.774
     4   6 C        3.762    -0.105    22.548     6.769
     5   6 C        2.973    -0.002    28.082     8.692
     6   6 C        2.931    -0.040    28.986     8.830
     7   6 C        2.908    -0.054    29.334     8.881
     8   6 C        3.079     0.042    26.965     8.513
     9   6 C        3.067    -0.020    28.439     8.745
    10   6 C        2.918    -0.044    29.089     8.844
    11   6 C        3.068    -0.020    28.441     8.745
    12   6 C        2.918    -0.044    29.089     8.844
    13   6 C        2.973    -0.002    28.078     8.692
    14   6 C        3.903     0.026    20.088     6.371
    15   6 C        3.761    -0.107    22.583     6.774
    16   6 C        3.762    -0.105    22.551     6.769
    17   6 C        3.761    -0.105    22.550     6.769
    18   6 C        2.931    -0.039    28.982     8.829
    19   6 C        2.908    -0.054    29.332     8.881
    20   6 C        3.080     0.042    26.965     8.513
    21   7 N        2.802    -0.045    22.103     6.983
    22   6 C        2.913     0.064    26.561     8.451
    23   6 C        2.920    -0.044    29.101     8.846
    24   6 C        2.924    -0.034    28.840     8.807
    25   6 C        2.976     0.005    27.899     8.664
    26   6 C        2.976     0.012    27.739     8.639
    27   6 C        2.924    -0.032    28.801     8.801
    28   6 C        2.926    -0.029    28.716     8.788
    29   6 C        2.974    -0.001    28.058     8.689
    30   6 C        3.128     0.124    25.096     8.202
    31   7 N        2.067    -0.199    26.025     7.568
    32   7 N        2.068    -0.199    26.014     7.566
    33   6 C        3.127     0.124    25.104     8.204
    34   6 C        2.975     0.001    27.993     8.679
    35   6 C        2.922    -0.032    28.809     8.802
    36   6 C        2.919    -0.029    28.716     8.788
    37   6 C        2.920    -0.028    28.695     8.784
    38   6 C        2.919    -0.026    28.654     8.778
    39   6 C        2.928    -0.028    28.691     8.784
    40   7 N        2.831    -0.054    22.276     7.010
    41   6 C        2.912     0.067    26.503     8.442
    42   6 C        2.921    -0.038    28.940     8.822
    43   6 C        2.921    -0.026    28.649     8.777
    44   6 C        2.920    -0.030    28.744     8.792
    45   6 C        2.921    -0.026    28.647     8.777
    46   6 C        2.921    -0.038    28.938     8.822
    47   6 C        2.920    -0.033    28.830     8.805
    48   6 C        2.924    -0.034    28.857     8.809
    49   6 C        2.924    -0.033    28.829     8.805
    50   6 C        2.920    -0.044    29.088     8.844
    51   1 H        0.925     0.035     2.515     2.480
    52   1 H        0.925     0.033     2.543     2.494
    53   1 H        0.925     0.035     2.512     2.479
    54   1 H        0.925     0.035     2.513     2.479
    55   1 H        0.925     0.034     2.525     2.485
    56   1 H        0.925     0.035     2.512     2.479
    57   1 H        0.925     0.035     2.514     2.480
    58   1 H        0.925     0.035     2.516     2.481
    59   1 H        0.925     0.033     2.547     2.496
    60   1 H        0.926     0.028     2.621     2.532
    61   1 H        0.926     0.024     2.676     2.558
    62   1 H        0.926     0.037     2.495     2.470
    63   1 H        0.926     0.036     2.496     2.471
    64   1 H        0.925     0.034     2.525     2.485
    65   1 H        0.925     0.035     2.515     2.480
    66   1 H        0.925     0.035     2.512     2.479
    67   1 H        0.925     0.035     2.512     2.479
    68   1 H        0.925     0.035     2.511     2.478
    69   1 H        0.925     0.033     2.544     2.494
    70   1 H        0.925     0.035     2.511     2.478
    71   1 H        0.925     0.035     2.513     2.479
    72   1 H        0.925     0.033     2.547     2.496
    73   1 H        0.926     0.028     2.611     2.527
    74   1 H        0.926     0.024     2.666     2.553
    75   1 H        0.926     0.040     2.443     2.444
    76   1 H        0.926     0.035     2.518     2.482
    77   1 H        0.926     0.039     2.459     2.452
    78   1 H        0.926     0.054     2.268     2.355
    79   1 H        0.926     0.026     2.643     2.542
    80   1 H        0.926     0.033     2.551     2.498
    81   1 H        0.926     0.035     2.517     2.481
    82   1 H        0.926     0.038     2.474     2.460
    83   1 H        0.926     0.054     2.266     2.354
    84   1 H        0.926     0.040     2.446     2.446
    85   1 H        0.926     0.041     2.434     2.440
    86   1 H        0.926     0.040     2.442     2.444
    87   1 H        0.926     0.041     2.431     2.438
    88   1 H        0.926     0.040     2.446     2.446
    89   1 H        0.926     0.026     2.641     2.541
    90   1 H        0.926     0.034     2.532     2.488
    91   1 H        0.926     0.039     2.465     2.455
    92   1 H        0.926     0.042     2.425     2.435

molecular dipole:
                 x           y           z       tot (Debye)
 q only:       -0.214       1.185       0.846
   full:       -0.158       1.738       1.232       5.429

 projected vibrational frequencies (cm⁻¹)
eigval :       -0.00    -0.00    -0.00     0.00     0.00     0.00
eigval :        8.39    10.27    12.34    22.23    27.05    31.23
eigval :       32.17    33.77    43.74    51.32    56.20    65.19
eigval :       71.07    73.84    77.71    90.79    99.50   110.38
eigval :      117.09   121.11   126.81   144.07   160.66   174.13
eigval :      182.89   194.29   202.99   216.84   220.52   225.37
eigval :      231.17   236.72   238.77   256.53   258.43   259.04
eigval :      281.48   306.39   313.47   317.85   322.33   337.63
eigval :      339.68   341.95   355.04   360.08   371.55   374.09
eigval :      378.57   381.46   385.84   387.68   396.37   407.11
eigval :      411.65   428.85   441.16   442.84   445.60   459.07
eigval :      466.03   469.13   481.23   485.35   501.76   507.05
eigval :      518.93   540.17   572.19   577.15   584.04   585.74
eigval :      586.28   594.00   605.36   609.55   630.41   639.90
eigval :      647.03   658.37   664.11   675.81   685.29   687.58
eigval :      687.93   692.45   707.39   709.34   710.98   721.56
eigval :      728.15   763.20   765.70   783.32   808.18   821.31
eigval :      822.91   832.09   834.86   868.27   871.57   873.79
eigval :      873.90   874.38   877.35   879.72   898.74   904.18
eigval :      910.88   913.60   918.12   921.37   925.64   927.31
eigval :      928.15   928.45   929.41   931.92   932.61   934.17
eigval :      941.08   951.39   960.27   960.36   960.91   962.85
eigval :      962.94   962.98   963.46   977.62  1002.19  1017.91
eigval :     1031.21  1035.76  1035.84  1035.97  1040.38  1041.86
eigval :     1078.69  1079.83  1082.09  1110.41  1116.93  1117.14
eigval :     1120.70  1130.23  1135.56  1143.75  1144.66  1163.94
eigval :     1177.45  1180.37  1181.23  1189.24  1191.04  1198.42
eigval :     1199.47  1203.09  1214.94  1228.20  1228.35  1231.63
eigval :     1232.51  1238.27  1245.23  1260.40  1266.78  1273.02
eigval :     1276.17  1279.42  1285.74  1288.30  1304.15  1308.11
eigval :     1311.41  1315.49  1315.55  1318.53  1319.90  1321.78
eigval :     1347.96  1359.60  1382.50  1385.01  1398.46  1402.90
eigval :     1404.72  1405.99  1406.18  1411.57  1418.30  1429.51
eigval :     1429.63  1430.67  1435.83  1442.24  1451.93  1462.41
eigval :     1481.35  1483.32  1485.73  1492.62  1492.69  1495.34
eigval :     1495.49  1500.84  1502.17  1502.25  1506.01  1506.09
eigval :     1515.08  1515.28  1520.54  1521.36  1530.09  1533.29
eigval :     1554.89  1565.26  1571.81  1581.99  1582.63  1584.11
eigval :     1589.40  1594.77  1597.83  1603.12  1605.02  1618.06
eigval :     3020.23  3020.51  3021.62  3021.96  3026.33  3026.71
eigval :     3028.76  3029.36  3030.41  3030.76  3035.09  3035.52
eigval :     3037.44  3037.81  3046.25  3046.81  3049.64  3050.25
eigval :     3075.28  3076.36  3077.78  3078.51  3080.10  3080.60
eigval :     3082.74  3083.89  3085.04  3086.41  3087.74  3089.56
eigval :     3091.17  3091.26  3092.23  3093.89  3094.19  3096.08
eigval :     3096.57  3103.00  3107.28  3108.26  3114.79  3118.19

   temp. (K)  partition function   enthalpy   heat capacity  entropy
                                   cal/mol     cal/K/mol   cal/K/mol   J/K/mol
 298.15  VIB  0.702E+21            26151.894    161.425    163.710
         ROT  0.160E+09              888.752      2.981     40.518
         INT  0.112E+30            27040.646    164.406    204.228
         TR   0.161E+29             1481.254      4.968     45.281
         TOT                       28521.9004   169.3745   249.5088  1043.9448

       T/K    H(0)-H(T)+PV         H(T)/Eh          T*S/Eh         G(T)/Eh
   ------------------------------------------------------------------------
    298.15    0.454525E-01    0.790484E+00    0.118550E+00    0.671934E+00
   ------------------------------------------------------------------------

         :::::::::::::::::::::::::::::::::::::::::::::::::::::
         ::                  THERMODYNAMIC                  ::
         :::::::::::::::::::::::::::::::::::::::::::::::::::::
         :: total free energy        -131.013844140342 Eh   ::
         ::.................................................::
         :: total energy             -131.685778537570 Eh   ::
         :: zero point energy           0.745031535854 Eh   ::
         :: G(RRHO) w/o ZPVE           -0.073097138626 Eh   ::
         :: G(RRHO) contrib.            0.671934397228 Eh   ::
         :::::::::::::::::::::::::::::::::::::::::::::::::::::

           -------------------------------------------------
          | TOTAL ENERGY             -131.685778537570 Eh   |
          | TOTAL ENTHALPY           -130.895294460275 Eh   |
          | TOTAL FREE ENERGY        -131.013844140342 Eh   |
          | GRADIENT NORM               0.000174099651 Eh/α |
          | HOMO-LUMO GAP               2.324162213220 eV   |
           -------------------------------------------------

 * finished run on 2025/09/04 at 22:49:57.447
