   * xtb version 6.7.1 (edcfbbe) compiled by 'albert@albert-system' on 2024-07-22

   ID    Z sym.   atoms
    1    6 C      1-20, 22-30, 33-39, 41-50
    2    7 N      21, 31, 32, 40
    3    1 H      51-92

          program call               : xtb data2507/gas/DTPCZTZ/DTPCZTZ.xyz --gfn 2 --ohess vtight --parallel 40 --molden --ceasefiles --namespace data2507/gas/DTPCZTZ/DTPCZTZ_gas_S0_preOpt
          :  Hamiltonian                  GFN2-xTB          :
 * total energy  :  -131.6629748 Eh     change       -0.6440331E-08 Eh
 * total energy  :  -131.6763264 Eh     change       -0.1335162E-01 Eh
 * total energy  :  -131.6798339 Eh     change       -0.3507516E-02 Eh
 * total energy  :  -131.6810989 Eh     change       -0.1264968E-02 Eh
 * total energy  :  -131.6821710 Eh     change       -0.1072087E-02 Eh
 * total energy  :  -131.6827828 Eh     change       -0.6118622E-03 Eh
 * total energy  :  -131.6832507 Eh     change       -0.4678825E-03 Eh
 * total energy  :  -131.6836309 Eh     change       -0.3802031E-03 Eh
 * total energy  :  -131.6840226 Eh     change       -0.3916975E-03 Eh
 * total energy  :  -131.6844171 Eh     change       -0.3945041E-03 Eh
 * total energy  :  -131.6857809 Eh     change       -0.5674739E-06 Eh
 * total energy  :  -131.6857816 Eh     change       -0.7279036E-06 Eh
 * total energy  :  -131.6857824 Eh     change       -0.7592008E-06 Eh
 * total energy  :  -131.6857830 Eh     change       -0.6456091E-06 Eh
 * total energy  :  -131.6857836 Eh     change       -0.5704104E-06 Eh
 * total energy  :  -131.6857841 Eh     change       -0.4993225E-06 Eh
 * total energy  :  -131.6857846 Eh     change       -0.5297584E-06 Eh
 * total energy  :  -131.6857852 Eh     change       -0.5136691E-06 Eh
 * total energy  :  -131.6857852 Eh     change       -0.5696535E-08 Eh
   *** GEOMETRY OPTIMIZATION CONVERGED AFTER 68 ITERATIONS ***

 final structure:
================
92
 xtb: 6.7.1 (edcfbbe)
C           -6.42973902362783        5.06565572143355       -1.62752023111397
C           -6.55258189447261        4.34982062106240       -0.27495963279515
C           -8.02108500073777        3.96629471914531       -0.07250264741221
C           -6.15127740074223        5.30553078822681        0.85761116284436
C           -5.62599212573631        3.14250779968751       -0.26197397717930
C           -4.24906122836069        3.34535400715609       -0.42610724674701
C           -3.33251803912430        2.31381682006995       -0.42030325566214
C           -3.80504565134077        1.02387787814079       -0.23486023792096
C           -5.18890556837952        0.78913295740440       -0.09627800057433
C           -6.08899838703831        1.84666659491214       -0.10570664088464
C           -5.35121397310486       -0.63378248586057        0.02034848847547
C           -6.46227600151681       -1.44816532251095        0.19657210124699
C           -6.29991717453562       -2.81945048483248        0.30211231669771
C           -7.47095836284797       -3.77321340351075        0.48979495767804
C           -8.81957717621660       -3.04891904417829        0.52506130802095
C           -7.49881662710604       -4.77218626318058       -0.67566165316039
C           -7.30070644634739       -4.52652476464835        1.81664457230902
C           -5.00225156816213       -3.34560838288053        0.24449557035732
C           -3.88103742762840       -2.56047028372827        0.06984211534421
C           -4.05859356514052       -1.19200920035453       -0.06184497341216
N           -3.12862538453116       -0.18104700324079       -0.21450470267290
C           -1.74546101669455       -0.34789263089700       -0.32490156272868
C           -0.87950767663403        0.41600174675741        0.45425730514209
C            0.48541102601551        0.25391234952512        0.33743378539450
C            1.02430041773836       -0.68190894621129       -0.54432393390053
C            2.47722644033257       -0.85608649360311       -0.65815356311344
C            3.03686259140551       -2.12512035857147       -0.80844824490559
C            4.40210623842987       -2.28818021320387       -0.90354817167865
C            5.25127234243177       -1.18295915960411       -0.84786714683329
C            6.68047543087123       -1.40384252944633       -0.96199771186728
N            7.22772574450683       -2.34872155983223       -1.68373865741977
N            8.55179284829255       -2.24292136874919       -1.58914126496706
C            8.83582453271085       -1.23487284176153       -0.80442362422262
C           10.18336326238789       -0.83463378060310       -0.43959840308818
C           10.49437358184171       -0.32636413567539        0.81967179940526
C           11.79663091028766        0.02912819272755        1.11876991038123
C           12.79840733361710       -0.12331360745082        0.17495038864564
C           12.49787619047133       -0.65051463672891       -1.07108036662012
C           11.19972387057981       -1.00759738873193       -1.37852406310924
N            7.66827339750647       -0.65152126101412       -0.36795366242309
C            7.51801657910186        0.45320274924543        0.48751322832935
C            6.76090487137628        0.33033809894461        1.64758576072903
C            6.61449456960765        1.42129844268733        2.48406903432792
C            7.22200209724186        2.62661587043002        2.17203480240187
C            7.97749325445684        2.74410859446470        1.01678691194155
C            8.12696352666894        1.66219463009903        0.16910523857392
C            4.69779051049714        0.09007182672538       -0.72500211045626
C            3.33035290165367        0.24582842839394       -0.62683736670592
C            0.14978165646656       -1.44728387972658       -1.31439312343879
C           -1.21589109045669       -1.27987106222198       -1.21466976694783
H           -7.10261536606518        5.92011846237026       -1.66251263630887
H           -5.41784998088674        5.42280501404014       -1.79736878895406
H           -6.69107082954761        4.38650874999172       -2.43647196728527
H           -8.16678103747425        3.46830073008272        0.88332960502854
H           -8.63496537235384        4.86492224343983       -0.08027574185462
H           -8.36935357163273        3.31575172845812       -0.87137727737936
H           -6.81703355040637        6.16605198270217        0.87613337321830
H           -5.13420449146173        5.66607343070175        0.73175636053562
H           -6.21636378935772        4.79767955180060        1.81776129167246
H           -3.87543111775159        4.34801066130667       -0.56881753563279
H           -2.28165683778308        2.51215172337877       -0.56986027510951
H           -7.13847516740716        1.63047828634695        0.00492089409020
H           -7.43448543009654       -0.98765988806777        0.25267754186944
H           -9.61872112253697       -3.77661727409879        0.65252350637696
H           -8.86689280699796       -2.35014582309801        1.35707876389347
H           -8.99932715662499       -2.51201822691874       -0.40351020056593
H           -8.34296770839326       -5.45041603724286       -0.56858032355498
H           -6.58941030362427       -5.36535555301299       -0.71240181724298
H           -7.59868224443195       -4.24291062851343       -1.62112333052148
H           -8.14143453088825       -5.19840830895131        1.97730325753562
H           -6.38832951432956       -5.11624877757746        1.82437711416024
H           -7.25777233001381       -3.82232731339215        2.64505971510119
H           -4.85850476733985       -4.41079597343573        0.34390204545268
H           -2.89716561848333       -3.00490622346239        0.05045426623572
H           -1.28581883247005        1.12191659263038        1.16313611818059
H            1.14490151181832        0.83887628880763        0.96173682510383
H            2.39334303270884       -2.99210363908447       -0.82833562151109
H            4.83769379489557       -3.26820447048668       -1.01988543067577
H            9.72748324529555       -0.22562360487396        1.57367742834839
H           12.02989525624226        0.42298210185636        2.09717985475345
H           13.81290444071245        0.15966625421801        0.41368109510703
H           13.27940142288805       -0.78309927794559       -1.80444354050526
H           10.94813132183216       -1.42523250343143       -2.34077902413332
H            6.29370667742669       -0.61467653036322        1.88269958506053
H            6.02677378542436        1.32707122669815        3.38464708549426
H            7.10685012404458        3.47474866528878        2.82963501814324
H            8.45069031134139        3.68270623505952        0.77114889566124
H            8.71210031522283        1.74355856930470       -0.73506859408975
H            5.33190869622691        0.96455937923492       -0.72864708452735
H            2.91487647617380        1.24000243409892       -0.55121153682004
H            0.54749395753152       -2.15843608053339       -2.02312428443588
H           -1.88224920745256       -1.85612852160539       -1.83885644421807

          :  Hamiltonian                  GFN2-xTB          :
         :: gradient norm              0.000052248902 Eh/a0 ::
         :: HOMO-LUMO gap              2.324479182834 eV    ::
         :: SCC energy              -134.033938878630 Eh    ::
         :: -> dispersion             -0.118406968491 Eh    ::
         :: repulsion energy           2.348153713182 Eh    ::

    * Orbital Energies and Occupations

         #    Occupation            Energy/Eh            Energy/eV
      -------------------------------------------------------------
         1        2.0000           -0.7005329             -19.0625
       ...           ...                  ...                  ...
       111        2.0000           -0.4123830             -11.2215
       112        2.0000           -0.4122731             -11.2185
       113        2.0000           -0.4121196             -11.2143
       114        2.0000           -0.4101447             -11.1606
       115        2.0000           -0.4057225             -11.0403
       116        2.0000           -0.4032999             -10.9743
       117        2.0000           -0.4011021             -10.9145
       118        2.0000           -0.3987288             -10.8500
       119        2.0000           -0.3927550             -10.6874
       120        2.0000           -0.3812608             -10.3746
       121        2.0000           -0.3693266             -10.0499
       122        2.0000           -0.3626564              -9.8684
       123        2.0000           -0.3530636              -9.6073 (HOMO)
       124                         -0.2676405              -7.2829 (LUMO)
       125                         -0.2521824              -6.8622
       126                         -0.2467182              -6.7135
       127                         -0.2435170              -6.6264
       128                         -0.2369213              -6.4470
       129                         -0.2306301              -6.2758
       130                         -0.2295280              -6.2458
       131                         -0.2289191              -6.2292
       132                         -0.2217163              -6.0332
       133                         -0.2135496              -5.8110
       134                         -0.1861016              -5.0641
       ...                                ...                  ...
       242                          0.7470999              20.3296
      -------------------------------------------------------------
                  HL-Gap            0.0854230 Eh            2.3245 eV

     #   Z          covCN         q      C6AA      α(0)
     1   6 C        3.761    -0.105    22.549     6.769
     2   6 C        3.903     0.026    20.088     6.371
     3   6 C        3.761    -0.107    22.583     6.774
     4   6 C        3.762    -0.105    22.548     6.769
     5   6 C        2.973    -0.002    28.082     8.692
     6   6 C        2.931    -0.040    28.986     8.830
     7   6 C        2.908    -0.054    29.334     8.881
     8   6 C        3.079     0.042    26.965     8.513
     9   6 C        3.068    -0.020    28.439     8.744
    10   6 C        2.918    -0.044    29.089     8.844
    11   6 C        3.068    -0.020    28.441     8.745
    12   6 C        2.918    -0.044    29.089     8.844
    13   6 C        2.973    -0.002    28.078     8.692
    14   6 C        3.903     0.026    20.088     6.371
    15   6 C        3.761    -0.107    22.583     6.774
    16   6 C        3.762    -0.105    22.551     6.769
    17   6 C        3.761    -0.105    22.550     6.769
    18   6 C        2.931    -0.039    28.982     8.829
    19   6 C        2.908    -0.054    29.332     8.881
    20   6 C        3.079     0.042    26.965     8.513
    21   7 N        2.802    -0.045    22.103     6.983
    22   6 C        2.913     0.064    26.561     8.451
    23   6 C        2.920    -0.044    29.101     8.846
    24   6 C        2.925    -0.034    28.840     8.807
    25   6 C        2.976     0.005    27.899     8.664
    26   6 C        2.976     0.012    27.739     8.639
    27   6 C        2.924    -0.032    28.800     8.801
    28   6 C        2.926    -0.029    28.717     8.788
    29   6 C        2.974    -0.001    28.059     8.689
    30   6 C        3.127     0.124    25.099     8.203
    31   7 N        2.067    -0.199    26.024     7.568
    32   7 N        2.068    -0.199    26.014     7.566
    33   6 C        3.127     0.124    25.104     8.204
    34   6 C        2.975     0.001    27.994     8.679
    35   6 C        2.922    -0.033    28.810     8.802
    36   6 C        2.919    -0.029    28.716     8.788
    37   6 C        2.920    -0.028    28.695     8.784
    38   6 C        2.919    -0.026    28.654     8.778
    39   6 C        2.928    -0.028    28.691     8.784
    40   7 N        2.832    -0.054    22.278     7.010
    41   6 C        2.913     0.067    26.501     8.441
    42   6 C        2.921    -0.038    28.939     8.822
    43   6 C        2.921    -0.026    28.649     8.777
    44   6 C        2.920    -0.030    28.743     8.792
    45   6 C        2.921    -0.026    28.647     8.777
    46   6 C        2.921    -0.038    28.938     8.822
    47   6 C        2.920    -0.033    28.833     8.806
    48   6 C        2.924    -0.034    28.858     8.810
    49   6 C        2.924    -0.033    28.828     8.805
    50   6 C        2.920    -0.044    29.089     8.844
    51   1 H        0.925     0.035     2.512     2.479
    52   1 H        0.925     0.035     2.516     2.480
    53   1 H        0.925     0.033     2.543     2.494
    54   1 H        0.925     0.035     2.513     2.479
    55   1 H        0.925     0.034     2.525     2.485
    56   1 H        0.925     0.035     2.512     2.479
    57   1 H        0.925     0.035     2.514     2.480
    58   1 H        0.925     0.035     2.517     2.481
    59   1 H        0.925     0.033     2.547     2.496
    60   1 H        0.926     0.028     2.621     2.532
    61   1 H        0.926     0.024     2.676     2.558
    62   1 H        0.926     0.037     2.495     2.470
    63   1 H        0.926     0.036     2.496     2.471
    64   1 H        0.925     0.034     2.524     2.485
    65   1 H        0.925     0.035     2.516     2.480
    66   1 H        0.925     0.035     2.512     2.479
    67   1 H        0.925     0.035     2.513     2.479
    68   1 H        0.925     0.035     2.511     2.478
    69   1 H        0.925     0.033     2.544     2.494
    70   1 H        0.925     0.035     2.511     2.478
    71   1 H        0.925     0.035     2.513     2.479
    72   1 H        0.925     0.033     2.547     2.496
    73   1 H        0.926     0.028     2.612     2.527
    74   1 H        0.926     0.024     2.666     2.553
    75   1 H        0.926     0.040     2.443     2.444
    76   1 H        0.926     0.035     2.519     2.482
    77   1 H        0.926     0.039     2.459     2.452
    78   1 H        0.926     0.054     2.265     2.353
    79   1 H        0.926     0.026     2.643     2.542
    80   1 H        0.926     0.032     2.551     2.498
    81   1 H        0.926     0.035     2.517     2.481
    82   1 H        0.926     0.038     2.474     2.460
    83   1 H        0.926     0.054     2.266     2.354
    84   1 H        0.926     0.040     2.446     2.446
    85   1 H        0.926     0.041     2.434     2.439
    86   1 H        0.926     0.041     2.442     2.444
    87   1 H        0.926     0.041     2.431     2.438
    88   1 H        0.926     0.040     2.446     2.446
    89   1 H        0.926     0.026     2.640     2.541
    90   1 H        0.926     0.034     2.532     2.489
    91   1 H        0.926     0.039     2.466     2.456
    92   1 H        0.926     0.042     2.425     2.435

molecular dipole:
                 x           y           z       tot (Debye)
 q only:       -0.190       1.152       0.896
   full:       -0.124       1.686       1.307       5.432

 projected vibrational frequencies (cm⁻¹)
eigval :       -0.00    -0.00    -0.00     0.00     0.00     0.00
eigval :        8.34    10.16    12.26    22.20    27.04    31.05
eigval :       31.87    33.55    43.60    51.29    56.20    65.14
eigval :       71.16    73.64    77.71    90.67    99.46   110.35
eigval :      116.94   121.11   126.86   144.15   160.64   174.04
eigval :      182.91   194.19   202.91   216.85   220.53   225.40
eigval :      231.18   236.78   238.80   256.11   258.33   259.04
eigval :      281.54   306.27   313.57   317.67   322.17   337.54
eigval :      339.69   342.41   355.02   360.09   371.54   374.07
eigval :      378.42   381.67   385.90   387.61   396.30   407.14
eigval :      411.63   429.11   441.14   442.81   445.56   459.05
eigval :      466.02   469.13   480.86   485.42   501.70   507.08
eigval :      518.92   540.17   572.19   577.12   584.02   585.74
eigval :      586.29   593.99   605.41   609.53   630.42   639.88
eigval :      647.02   658.36   664.09   675.69   685.32   687.52
eigval :      687.92   692.41   707.38   709.32   710.97   721.56
eigval :      728.11   763.19   765.71   783.37   808.22   821.31
eigval :      822.90   832.13   834.84   868.25   871.55   873.79
eigval :      873.87   874.34   877.30   879.70   898.65   904.17
eigval :      910.87   913.60   918.19   921.37   925.65   927.26
eigval :      928.15   928.46   929.40   931.91   932.59   934.17
eigval :      941.07   951.40   960.24   960.32   960.94   962.86
eigval :      962.90   962.94   963.45   977.66  1002.23  1017.90
eigval :     1031.21  1035.75  1035.87  1035.95  1040.34  1041.85
eigval :     1078.65  1079.87  1082.11  1110.43  1116.89  1117.09
eigval :     1120.73  1130.23  1135.56  1143.74  1144.54  1164.02
eigval :     1177.44  1180.37  1181.22  1189.23  1190.92  1198.51
eigval :     1199.55  1203.10  1214.90  1228.19  1228.32  1231.62
eigval :     1232.51  1238.27  1245.28  1260.40  1266.77  1272.91
eigval :     1276.10  1279.42  1285.74  1288.24  1304.12  1308.09
eigval :     1311.39  1315.40  1315.46  1318.54  1319.96  1321.79
eigval :     1347.99  1359.64  1382.50  1385.01  1398.51  1402.88
eigval :     1404.70  1406.06  1406.11  1411.57  1418.29  1429.46
eigval :     1429.61  1430.68  1435.79  1442.26  1451.90  1462.37
eigval :     1481.36  1483.37  1485.76  1492.61  1492.65  1495.36
eigval :     1495.46  1500.80  1502.15  1502.23  1505.99  1506.05
eigval :     1515.05  1515.25  1520.55  1521.38  1530.06  1533.08
eigval :     1554.89  1565.28  1571.83  1582.01  1582.65  1584.05
eigval :     1589.41  1594.75  1597.84  1603.09  1605.05  1618.10
eigval :     3020.38  3020.51  3021.71  3021.86  3026.63  3026.72
eigval :     3028.82  3029.34  3030.69  3030.81  3035.34  3035.62
eigval :     3037.62  3037.91  3046.48  3046.79  3049.85  3050.23
eigval :     3075.39  3076.61  3077.83  3078.52  3080.29  3080.75
eigval :     3082.72  3083.94  3085.02  3086.36  3087.97  3090.01
eigval :     3091.14  3091.25  3092.20  3093.95  3094.28  3096.10
eigval :     3096.62  3103.08  3107.40  3108.28  3114.92  3118.32

   temp. (K)  partition function   enthalpy   heat capacity  entropy
                                   cal/mol     cal/K/mol   cal/K/mol   J/K/mol
 298.15  VIB  0.740E+21            26154.690    161.412    163.753
         ROT  0.160E+09              888.752      2.981     40.517
         INT  0.118E+30            27043.442    164.393    204.270
         TR   0.161E+29             1481.254      4.968     45.281
         TOT                       28524.6959   169.3608   249.5505  1044.1192

       T/K    H(0)-H(T)+PV         H(T)/Eh          T*S/Eh         G(T)/Eh
   ------------------------------------------------------------------------
    298.15    0.454570E-01    0.790489E+00    0.118569E+00    0.671919E+00
   ------------------------------------------------------------------------

         :::::::::::::::::::::::::::::::::::::::::::::::::::::
         ::                  THERMODYNAMIC                  ::
         :::::::::::::::::::::::::::::::::::::::::::::::::::::
         :: total free energy        -131.013865987585 Eh   ::
         ::.................................................::
         :: total energy             -131.685785165450 Eh   ::
         :: zero point energy           0.745031666934 Eh   ::
         :: G(RRHO) w/o ZPVE           -0.073112489069 Eh   ::
         :: G(RRHO) contrib.            0.671919177865 Eh   ::
         :::::::::::::::::::::::::::::::::::::::::::::::::::::

           -------------------------------------------------
          | TOTAL ENERGY             -131.685785165450 Eh   |
          | TOTAL ENTHALPY           -130.895296502122 Eh   |
          | TOTAL FREE ENERGY        -131.013865987585 Eh   |
          | GRADIENT NORM               0.000052240727 Eh/α |
          | HOMO-LUMO GAP               2.324479258667 eV   |
           -------------------------------------------------

 * finished run on 2025/09/04 at 22:42:49.947
