   * xtb version 6.7.1 (edcfbbe) compiled by 'albert@albert-system' on 2024-07-22

   ID    Z sym.   atoms
    1    6 C      1-20, 22-30, 33-39, 41-50
    2    7 N      21, 31, 32, 40
    3    1 H      51-92

          program call               : xtb data2507/gas/DTPCZTZ/DTPCZTZ_gas_T1_crest.xyz --gfn 2 --spinpol --tblite --uhf 2 --ohess vtight --parallel 40 --molden --ceasefiles --namespace data2507/gas/DTPCZTZ/DTPCZTZ_gas_T1_finalOpt
 * total energy  :  -131.5989384 Eh     change       -0.1619478E-07 Eh
 * total energy  :  -131.5989523 Eh     change       -0.1393699E-04 Eh
 * total energy  :  -131.5989578 Eh     change       -0.5407802E-05 Eh
 * total energy  :  -131.5989594 Eh     change       -0.1656694E-05 Eh
 * total energy  :  -131.5989611 Eh     change       -0.1735498E-05 Eh
 * total energy  :  -131.5989630 Eh     change       -0.1850479E-05 Eh
 * total energy  :  -131.5989646 Eh     change       -0.1609851E-05 Eh
 * total energy  :  -131.5989660 Eh     change       -0.1360101E-05 Eh
 * total energy  :  -131.5989675 Eh     change       -0.1525918E-05 Eh
 * total energy  :  -131.5989692 Eh     change       -0.1693120E-05 Eh
 * total energy  :  -131.5989728 Eh     change       -0.6381933E-06 Eh
 * total energy  :  -131.5989731 Eh     change       -0.3787369E-06 Eh
 * total energy  :  -131.5989733 Eh     change       -0.1374595E-06 Eh
 * total energy  :  -131.5989734 Eh     change       -0.1402754E-06 Eh
 * total energy  :  -131.5989733 Eh     change        0.1513742E-06 Eh
 * total energy  :  -131.5989735 Eh     change       -0.2002402E-06 Eh
 * total energy  :  -131.5989737 Eh     change       -0.2081488E-06 Eh
 * total energy  :  -131.5989738 Eh     change       -0.1039480E-06 Eh
 * total energy  :  -131.5989738 Eh     change       -0.6078020E-07 Eh
   *** GEOMETRY OPTIMIZATION CONVERGED AFTER 23 ITERATIONS ***

 final structure:
================
92
 xtb: 6.7.1 (edcfbbe)
C           -7.33043397615322        5.34330613921898        0.53005836284002
C           -7.69003560714338        4.30123077392917       -0.53880259658989
C           -7.56835073300069        4.92556472148430       -1.93625886707141
C           -9.14941315031398        3.88894518515323       -0.32731276881815
C           -6.72917302098515        3.12735209900365       -0.43150360083525
C           -5.35648546432390        3.35874942819579       -0.59377301958815
C           -4.41076122143054        2.35776995277866       -0.50261515629074
C           -4.84814738725416        1.07058634818416       -0.22557555228653
C           -6.22893113684240        0.80495450778796       -0.09569624791890
C           -7.15813000111371        1.82929128628505       -0.19303516284552
C           -6.35241702555595       -0.61363609779422        0.11050712340416
C           -7.44147514939245       -1.44594888770673        0.31872195477286
C           -7.24090704911817       -2.80400431722226        0.52193377702648
C           -8.38795459027542       -3.77730985535490        0.74473961122834
C           -8.23424280766749       -4.42916002702244        2.12638852896494
C           -9.75787511796993       -3.09548958564344        0.69008664076328
C           -8.34961303698425       -4.85622405618637       -0.34709378927451
C           -5.92684545439629       -3.29110130047306        0.53580400235406
C           -4.82535009706234       -2.48487993305875        0.33234122504911
C           -5.04039440915706       -1.13544608758971        0.09204399124587
N           -4.13693788971941       -0.10911780716077       -0.11092226450847
C           -2.75647526886951       -0.23941238242650       -0.18699381529339
C           -1.91096438582416        0.65503059715427        0.49138104029665
C           -0.55323784124828        0.52794047634403        0.41547746903870
C            0.06765635922031       -0.50164160138349       -0.34688431635550
C            1.47808112984424       -0.63057809204958       -0.42535104310571
C            2.11292041481027       -1.83668386586972       -0.86277796936751
C            3.46049527825128       -1.96318476003882       -0.90792388505338
C            4.32729148981857       -0.89399927540827       -0.52013909921846
C            5.71126969181952       -1.11807606793728       -0.58113491546176
N            6.24952744864457       -2.17212486162481       -1.22041516600417
N            7.54449860990253       -2.07049706413852       -1.20555131482747
C            7.90127223296321       -0.97942730311593       -0.54550766008036
C            9.27531899064503       -0.62323547852756       -0.30648154320763
C            9.69581536769511        0.13712123517205        0.79001376803011
C           11.03582727133350        0.42104282586870        0.96317697827808
C           11.97878581501122       -0.04578341323014        0.06091162134390
C           11.57359766041011       -0.82365406993195       -1.01494434929180
C           10.23913681693725       -1.11447504839219       -1.19759146362674
N            6.76099348606245       -0.32027510611605       -0.12400962081229
C            6.69878587798903        0.86761441975671        0.61560421014828
C            6.06290968763596        0.88625098501476        1.85590545452119
C            6.02075071566963        2.05901656032808        2.58472438173832
C            6.61133729246559        3.21181509528438        2.09024577635903
C            7.24590231335421        3.19078869774068        0.85817663688710
C            7.29246295612908        2.02537365182241        0.11744414194186
C            3.70632928211198        0.33401761411327       -0.14668796254046
C            2.35518088499135        0.44833416610822       -0.09240955307811
C           -0.81267898037235       -1.39373658997377       -1.02158117783882
C           -2.17044185114652       -1.26835730067868       -0.94423324789976
H           -7.39518397440448        4.90138983994637        1.52226367314126
H           -6.32232906128101        5.72370435657054        0.39191669551267
H           -8.02019378911559        6.18315617439512        0.48054778660143
H           -7.79729650270286        4.18503329574980       -2.69984475794976
H           -8.26651111119414        5.75372229052097       -2.03780993354184
H           -6.56578688817988        5.30242326754819       -2.11775975111918
H           -9.78787054463417        4.76684237802623       -0.40255699870100
H           -9.29399233688369        3.45272965106235        0.65842646796874
H           -9.46928981294314        3.17700537396723       -1.08465023009789
H           -5.01033806221273        4.35850037362192       -0.80614919427539
H           -3.36574972896220        2.57563727513187       -0.66053266650747
H           -8.20314937831155        1.59111924939968       -0.08658059066985
H           -8.42832083180367       -1.01439374364025        0.32417018610362
H           -9.06031055816075       -5.11253662263367        2.31124825849410
H           -7.30671523516870       -4.98969500463330        2.20088396445875
H           -8.23541081117347       -3.66752806742382        2.90344964716867
H          -10.53801451107385       -3.83837558683490        0.84333086505962
H           -9.92461664777708       -2.62912460337211       -0.27819000849605
H           -9.85342008537466       -2.34441051089153        1.47081558580296
H           -8.43736388846565       -4.39879655806146       -1.33044808878386
H           -7.42239368571759       -5.42129472358627       -0.31602503520183
H           -9.17580017427666       -5.55155352468048       -0.21486062574473
H           -5.75387783168313       -4.34039747371225        0.71857199658196
H           -3.82918753492493       -2.89724988045382        0.37710082415135
H           -2.35056890311685        1.41785805776171        1.11735829581169
H            0.06022052305358        1.19980623185693        0.99440454293591
H            1.50259111492044       -2.68581171399887       -1.12754831632837
H            3.92610119514454       -2.88335431676935       -1.22377973432221
H            8.98215482630920        0.48284802769110        1.52192138116780
H           11.34805751816962        1.00804616107504        1.81481871831576
H           13.02403467510410        0.18621636129190        0.20095271843085
H           12.30613992089982       -1.20171667808515       -1.71286146329477
H            9.90822332569705       -1.72033246971145       -2.02647009571259
H            5.60637882398059       -0.01745365539079        2.23214567802331
H            5.52893311256391        2.07178084697119        3.54589086637349
H            6.57731313895193        4.12494054808408        2.66484355269434
H            7.70427060030388        4.08783051731334        0.46970088888226
H            7.78576254072016        1.99872946158127       -0.84292511299330
H            4.31729146750008        1.19833562150457        0.06210099565987
H            1.93134425685059        1.40801269039500        0.16155929307438
H           -0.40183543365531       -2.16262772478829       -1.65586060163728
H           -2.80953231566442       -1.93200928256970       -1.50806894477877

 projected vibrational frequencies (cm⁻¹)
eigval :       -0.00    -0.00    -0.00     0.00     0.00     0.00
eigval :        7.03     9.30    13.94    21.85    28.35    30.63
eigval :       31.48    33.18    42.49    49.57    54.49    65.04
eigval :       72.27    77.17    80.33    94.11   102.66   111.77
eigval :      117.63   123.87   131.13   156.85   160.35   165.81
eigval :      178.83   187.68   201.74   217.04   220.60   224.72
eigval :      228.90   234.51   238.59   245.52   258.26   264.75
eigval :      273.86   294.20   314.39   318.01   318.84   322.72
eigval :      338.99   343.16   348.10   358.66   363.53   369.08
eigval :      372.62   378.54   381.76   386.64   388.13   399.38
eigval :      407.90   410.97   429.45   441.32   442.73   445.77
eigval :      459.18   466.32   467.05   473.04   477.94   495.74
eigval :      510.54   518.11   564.38   567.09   570.58   583.62
eigval :      585.43   588.15   592.88   598.25   603.85   626.18
eigval :      632.40   640.92   645.79   654.64   658.67   668.17
eigval :      674.45   685.12   689.91   703.54   707.52   718.67
eigval :      719.92   753.56   754.74   766.70   790.82   797.40
eigval :      805.02   819.57   824.71   829.53   832.28   867.33
eigval :      869.96   871.07   871.90   873.20   893.07   895.20
eigval :      902.72   905.45   907.89   909.74   911.40   921.39
eigval :      922.03   925.06   925.25   926.06   926.30   927.32
eigval :      928.02   937.64   938.12   946.32   960.36   960.42
eigval :      962.91   963.30   963.41   963.45   973.30   989.27
eigval :     1004.00  1017.80  1030.54  1035.10  1035.17  1035.85
eigval :     1041.05  1076.09  1079.69  1089.70  1110.53  1115.16
eigval :     1121.46  1129.25  1132.59  1133.65  1139.25  1151.02
eigval :     1159.85  1169.30  1179.84  1180.09  1189.00  1194.60
eigval :     1203.98  1210.65  1227.00  1227.06  1230.61  1230.92
eigval :     1233.24  1233.33  1238.81  1244.27  1256.61  1258.21
eigval :     1267.21  1272.93  1276.97  1281.45  1284.25  1294.81
eigval :     1300.49  1305.15  1316.20  1325.16  1326.92  1331.91
eigval :     1346.29  1350.05  1366.32  1368.79  1382.68  1402.03
eigval :     1405.00  1406.07  1406.13  1409.84  1410.62  1415.97
eigval :     1420.67  1428.93  1429.06  1432.51  1435.18  1436.05
eigval :     1455.70  1464.79  1465.77  1471.81  1475.79  1480.39
eigval :     1486.92  1491.71  1491.77  1494.06  1494.13  1500.57
eigval :     1500.65  1505.08  1505.16  1505.78  1514.77  1514.97
eigval :     1519.66  1520.45  1557.01  1562.53  1564.16  1567.26
eigval :     1571.14  1573.85  1581.98  1584.89  1592.00  1602.53
eigval :     3023.15  3023.32  3024.97  3025.05  3027.71  3027.75
eigval :     3031.17  3031.34  3032.10  3032.24  3036.11  3036.34
eigval :     3039.29  3039.52  3048.58  3048.81  3051.83  3052.10
eigval :     3074.08  3078.53  3079.42  3080.83  3081.15  3082.74
eigval :     3083.38  3087.27  3087.91  3090.02  3090.55  3091.18
eigval :     3094.23  3098.43  3099.34  3100.51  3101.05  3102.08
eigval :     3105.32  3106.29  3107.69  3109.84  3116.99  3120.82

   temp. (K)  partition function   enthalpy   heat capacity  entropy
                                   cal/mol     cal/K/mol   cal/K/mol   J/K/mol
 298.15  VIB  0.106E+22            26461.043    163.549    165.272
         ROT  0.163E+09              888.752      2.981     40.561
         INT  0.172E+30            27349.796    166.530    205.832
         TR   0.161E+29             1481.254      4.968     45.281
         TOT                       28831.0495   171.4977   251.1130  1050.6569

       T/K    H(0)-H(T)+PV         H(T)/Eh          T*S/Eh         G(T)/Eh
   ------------------------------------------------------------------------
    298.15    0.459452E-01    0.786786E+00    0.119312E+00    0.667474E+00
   ------------------------------------------------------------------------

         :::::::::::::::::::::::::::::::::::::::::::::::::::::
         ::                  THERMODYNAMIC                  ::
         :::::::::::::::::::::::::::::::::::::::::::::::::::::
         :: total free energy        -130.931499491335 Eh   ::
         ::.................................................::
         :: total energy             -131.598973855674 Eh   ::
         :: zero point energy           0.740841062164 Eh   ::
         :: G(RRHO) w/o ZPVE           -0.073366697825 Eh   ::
         :: G(RRHO) contrib.            0.667474364339 Eh   ::
         :::::::::::::::::::::::::::::::::::::::::::::::::::::

           -------------------------------------------------
          | TOTAL ENERGY             -131.598973855674 Eh   |
          | TOTAL ENTHALPY           -130.812187591616 Eh   |
          | TOTAL FREE ENERGY        -130.931499491335 Eh   |
          | GRADIENT NORM               0.000070318450 Eh/α |
           -------------------------------------------------

 * finished run on 2025/09/04 at 23:01:28.236
