   * xtb version 6.7.1 (edcfbbe) compiled by 'albert@albert-system' on 2024-07-22

   ID    Z sym.   atoms
    1    6 C      1-30
    2    1 H      31-52

          program call               : xtb data2507/toluene/FAPbCl3/FAPbCl3_toluene_T1_crest.xyz --gfn 2 --uhf 2 --gbsa toluene --ohess vtight --parallel 40 --molden --ceasefiles --namespace data2507/toluene/FAPbCl3/FAPbCl3_toluene_T1_finalOpt
      * Solvation model:               GBSA
        Solvent                        toluene
        Solvent mass                       9.2140E+01 g/mol
          :  Hamiltonian                  GFN2-xTB          :
 * total energy  :   -75.3526692 Eh     change       -0.3820787E-08 Eh
 * total energy  :   -75.3527059 Eh     change       -0.3672379E-04 Eh
 * total energy  :   -75.3527206 Eh     change       -0.1465431E-04 Eh
 * total energy  :   -75.3527350 Eh     change       -0.1442875E-04 Eh
 * total energy  :   -75.3527491 Eh     change       -0.1402798E-04 Eh
 * total energy  :   -75.3527578 Eh     change       -0.8713146E-05 Eh
 * total energy  :   -75.3527622 Eh     change       -0.4436557E-05 Eh
 * total energy  :   -75.3527660 Eh     change       -0.3841052E-05 Eh
 * total energy  :   -75.3527695 Eh     change       -0.3440302E-05 Eh
 * total energy  :   -75.3527723 Eh     change       -0.2857866E-05 Eh
 * total energy  :   -75.3527810 Eh     change       -0.1433403E-05 Eh
 * total energy  :   -75.3527821 Eh     change       -0.1036923E-05 Eh
 * total energy  :   -75.3527831 Eh     change       -0.9954952E-06 Eh
 * total energy  :   -75.3527842 Eh     change       -0.1111477E-05 Eh
 * total energy  :   -75.3527852 Eh     change       -0.1069638E-05 Eh
 * total energy  :   -75.3527859 Eh     change       -0.7056143E-06 Eh
 * total energy  :   -75.3527863 Eh     change       -0.3829440E-06 Eh
 * total energy  :   -75.3527866 Eh     change       -0.2788137E-06 Eh
 * total energy  :   -75.3527866 Eh     change       -0.4575782E-08 Eh
   *** GEOMETRY OPTIMIZATION CONVERGED AFTER 22 ITERATIONS ***

 final structure:
================
52
 xtb: 6.7.1 (edcfbbe)
C           -5.66233275754203        1.66052054473309       -0.31778693125896
C           -4.94859574989620        2.63160974959722        0.38420312040415
C           -3.58125214640686        2.57273138186822        0.46998265994075
C           -2.84644637457190        1.50662727756448       -0.11934462274809
C           -1.43310587935406        1.43753632514052        0.02802803314502
C           -0.66983835569658        2.65525494770186        0.06535879591171
C            0.67553789715066        2.65332625051830       -0.03701388599219
C            1.43494533093414        1.43273009803988       -0.02185513844568
C            2.85121987844519        1.49901125230803        0.10980366835948
C            3.60971738425168        0.54010170832257        0.83267366760241
C            4.97772712803015        0.62096350482830        0.90880750250598
C            5.66796313109498        1.65424737117196        0.27911465646037
C            4.94694045292594        2.62522923711419       -0.41484652468568
C            3.57852641752048        2.56522308932676       -0.48665673638224
C            0.68799482561005        0.19757618009109       -0.01953949743557
C            1.42403235136122       -1.07582755160356       -0.10891225165601
C            1.25483472075088       -2.08686419553085        0.83735323706703
C            1.95070902087956       -3.27498763525207        0.72656978529473
C            2.82010542673669       -3.47970238994684       -0.33408628148779
C            2.99628808507131       -2.48231975723005       -1.27923587326613
C            2.30974395938850       -1.28816719890318       -1.16596165436300
C           -0.68841276868948        0.19920557371829        0.02048565992203
C           -1.42806870827884       -1.07129785963138        0.11029893423439
C           -1.25720499959644       -2.08772383364563       -0.83025926739127
C           -1.95631817144054       -3.27354504698773       -0.71661329538675
C           -2.83050250055052       -3.47136115146425        0.34153609119469
C           -3.00893449561358       -2.46865061667376        1.28066997660258
C           -2.31980774811826       -1.27644930533951        1.16409969376641
C           -3.59796786910411        0.54816661983209       -0.85186314922884
C           -4.96487052701078        0.62823156104946       -0.94168896211489
H           -6.73774774134538        1.71712643327549       -0.38960365400564
H           -5.48093670858323        3.43643413989677        0.87187533159886
H           -3.05784302983224        3.31150119832917        1.05789117343711
H           -1.19955165356692        3.59521860433707        0.08470232163350
H            1.20956988733799        3.59112868540991       -0.04005753463132
H            3.09499608244307       -0.23082852126959        1.38285483401434
H            5.52378305374290       -0.11771082380702        1.47865044530149
H            6.74405165993343        1.71129719596040        0.34000957729462
H            5.47359011006230        3.43081987418255       -0.90739070312618
H            3.04800023264143        3.30411102646528       -1.06812358499659
H            0.58876893072866       -1.92691119019546        1.67299610466437
H            1.81583212286040       -4.04581359935227        1.47190339617432
H            3.35919158009548       -4.41175222918439       -0.42114864427679
H            3.67373296414134       -2.63490956866840       -2.10723231681364
H            2.44328877103242       -0.51416534340373       -1.90855478252841
H           -0.58787135074316       -1.93322348886851       -1.66426756440383
H           -1.82022673404099       -4.04827753051359       -1.45765185927547
H           -3.37143381675146       -4.40206566572275        0.43127480867002
H           -3.68997668278860       -2.61572169909096        2.10671268395159
H           -2.45488071491697       -0.49854227525173        1.90229596268106
H           -3.07712090088344       -0.22097552589272       -1.39874179079510
H           -5.50464883514666       -0.10975728375369       -1.51838248183556

          :  Hamiltonian                  GFN2-xTB          :
         :: gradient norm              0.000048547909 Eh/a0 ::
         :: HOMO-LUMO gap              0.775296015526 eV    ::
         :: SCC energy               -76.822313893605 Eh    ::
         :: -> dispersion             -0.073226407464 Eh    ::
         :: -> Gsolv                  -0.029410208669 Eh    ::
         :: repulsion energy           1.469527288330 Eh    ::

    * Orbital Energies and Occupations

         #    Occupation            Energy/Eh            Energy/eV
      -------------------------------------------------------------
         1        2.0000           -0.6502562             -17.6944
       ...           ...                  ...                  ...
        60        2.0000           -0.4222192             -11.4892
        61        2.0000           -0.4174564             -11.3596
        62        2.0000           -0.4158712             -11.3164
        63        2.0000           -0.4073411             -11.0843
        64        2.0000           -0.4051337             -11.0242
        65        2.0000           -0.4035029             -10.9799
        66        2.0000           -0.4031399             -10.9700
        67        2.0000           -0.4008431             -10.9075
        68        2.0000           -0.3951899             -10.7537
        69        2.0000           -0.3930463             -10.6953
        70        1.9999           -0.3787670             -10.3068
        71        1.0001           -0.3612310              -9.8296
        72        1.0000           -0.2705730              -7.3627 (HOMO)
        73        0.0000           -0.2420814              -6.5874 (LUMO)
        74                         -0.2263011              -6.1580
        75                         -0.2239386              -6.0937
        76                         -0.2232302              -6.0744
        77                         -0.2195905              -5.9754
        78                         -0.2161387              -5.8814
        79                         -0.2147124              -5.8426
        80                         -0.1980998              -5.3906
        81                         -0.1855787              -5.0499
        82                         -0.1189407              -3.2365
        83                         -0.0933704              -2.5407
       ...                                ...                  ...
       142                          0.7096610              19.3109
      -------------------------------------------------------------
                  HL-Gap            0.0284916 Eh            0.7753 eV

     #   Z          covCN         q      C6AA      α(0)
     1   6 C        2.917    -0.035    28.869     8.811
     2   6 C        2.912    -0.031    28.766     8.795
     3   6 C        2.921    -0.037    28.927     8.820
     4   6 C        2.969     0.012    27.742     8.640
     5   6 C        2.970    -0.002    28.082     8.692
     6   6 C        2.910    -0.039    28.962     8.825
     7   6 C        2.910    -0.039    28.961     8.824
     8   6 C        2.970    -0.002    28.084     8.693
     9   6 C        2.969     0.012    27.742     8.640
    10   6 C        2.919    -0.035    28.869     8.811
    11   6 C        2.913    -0.030    28.758     8.794
    12   6 C        2.917    -0.035    28.867     8.811
    13   6 C        2.912    -0.031    28.767     8.795
    14   6 C        2.921    -0.037    28.926     8.820
    15   6 C        2.971    -0.001    28.038     8.686
    16   6 C        2.977     0.018    27.607     8.619
    17   6 C        2.923    -0.032    28.805     8.801
    18   6 C        2.918    -0.030    28.746     8.792
    19   6 C        2.920    -0.032    28.790     8.799
    20   6 C        2.918    -0.030    28.753     8.793
    21   6 C        2.925    -0.030    28.759     8.794
    22   6 C        2.971    -0.001    28.042     8.686
    23   6 C        2.977     0.018    27.605     8.618
    24   6 C        2.923    -0.032    28.805     8.801
    25   6 C        2.918    -0.030    28.746     8.792
    26   6 C        2.920    -0.032    28.789     8.799
    27   6 C        2.918    -0.030    28.753     8.793
    28   6 C        2.925    -0.030    28.758     8.794
    29   6 C        2.919    -0.035    28.869     8.811
    30   6 C        2.912    -0.030    28.758     8.794
    31   1 H        0.926     0.029     2.603     2.523
    32   1 H        0.926     0.030     2.588     2.516
    33   1 H        0.926     0.033     2.537     2.491
    34   1 H        0.926     0.036     2.497     2.471
    35   1 H        0.926     0.036     2.498     2.472
    36   1 H        0.926     0.031     2.572     2.508
    37   1 H        0.926     0.027     2.625     2.534
    38   1 H        0.926     0.029     2.603     2.523
    39   1 H        0.926     0.030     2.588     2.516
    40   1 H        0.926     0.033     2.537     2.491
    41   1 H        0.926     0.027     2.635     2.539
    42   1 H        0.926     0.031     2.579     2.511
    43   1 H        0.926     0.031     2.566     2.505
    44   1 H        0.926     0.031     2.574     2.509
    45   1 H        0.926     0.028     2.617     2.530
    46   1 H        0.926     0.027     2.633     2.538
    47   1 H        0.926     0.031     2.578     2.511
    48   1 H        0.926     0.031     2.565     2.505
    49   1 H        0.926     0.031     2.573     2.508
    50   1 H        0.926     0.028     2.616     2.529
    51   1 H        0.926     0.031     2.571     2.507
    52   1 H        0.926     0.027     2.626     2.534

molecular dipole:
                 x           y           z       tot (Debye)
 q only:       -0.002      -0.062       0.001
   full:       -0.002      -0.100       0.001       0.255

 projected vibrational frequencies (cm⁻¹)
eigval :       -0.00     0.00     0.00     0.00     0.00     0.00
eigval :       19.97    28.27    51.25    52.12    61.30    64.68
eigval :       77.03    82.76    91.15    92.99   125.42   135.47
eigval :      197.25   203.98   215.43   227.39   237.11   257.07
eigval :      262.93   300.63   314.77   371.20   374.70   377.01
eigval :      380.06   402.77   406.46   444.69   457.27   460.79
eigval :      486.29   539.71   553.31   563.82   565.92   580.21
eigval :      583.15   586.34   587.81   593.82   638.53   642.53
eigval :      664.22   665.33   666.87   684.72   688.50   725.54
eigval :      730.85   741.29   757.81   779.24   795.65   826.42
eigval :      834.15   838.55   861.36   861.94   872.68   875.83
eigval :      897.49   898.45   898.96   912.41   912.68   916.97
eigval :      917.48   927.56   928.75   930.63   932.48   939.10
eigval :      947.59   953.89   972.29  1003.11  1016.51  1060.32
eigval :     1067.46  1069.87  1083.18  1083.70  1119.07  1120.92
eigval :     1121.74  1126.55  1154.36  1161.35  1172.80  1173.59
eigval :     1179.66  1179.99  1192.23  1196.07  1198.87  1206.12
eigval :     1240.13  1244.79  1273.41  1273.96  1282.27  1282.97
eigval :     1301.40  1310.23  1312.60  1317.62  1332.21  1333.61
eigval :     1364.10  1368.39  1402.54  1403.81  1414.04  1424.26
eigval :     1426.64  1456.79  1459.28  1468.52  1488.23  1491.18
eigval :     1492.60  1537.89  1560.46  1565.71  1567.87  1582.34
eigval :     1583.49  1604.59  3063.94  3064.17  3065.55  3066.41
eigval :     3066.89  3067.24  3067.96  3068.70  3075.87  3076.59
eigval :     3078.85  3079.97  3081.53  3084.05  3085.62  3088.36
eigval :     3088.90  3090.31  3090.41  3095.33  3109.48  3109.90

   temp. (K)  partition function   enthalpy   heat capacity  entropy
                                   cal/mol     cal/K/mol   cal/K/mol   J/K/mol
 298.15  VIB  0.488E+10            13696.641     90.369     84.379
         ROT  0.797E+07              888.752      2.981     34.562
         INT  0.389E+17            14585.394     93.350    118.941
         TR   0.724E+28             1481.254      4.968     43.697
         TOT                       16066.6477    98.3177   162.6380   680.4773

       T/K    H(0)-H(T)+PV         H(T)/Eh          T*S/Eh         G(T)/Eh
   ------------------------------------------------------------------------
    298.15    0.256038E-01    0.431287E+00    0.772746E-01    0.354013E+00
   ------------------------------------------------------------------------

         :::::::::::::::::::::::::::::::::::::::::::::::::::::
         ::                  THERMODYNAMIC                  ::
         :::::::::::::::::::::::::::::::::::::::::::::::::::::
         :: total free energy         -74.998773828658 Eh   ::
         ::.................................................::
         :: total energy              -75.352786606556 Eh   ::
         :: zero point energy           0.405683497814 Eh   ::
         :: G(RRHO) w/o ZPVE           -0.051670719916 Eh   ::
         :: G(RRHO) contrib.            0.354012777898 Eh   ::
         :::::::::::::::::::::::::::::::::::::::::::::::::::::

           -------------------------------------------------
          | TOTAL ENERGY              -75.352786606556 Eh   |
          | TOTAL ENTHALPY            -74.921499275821 Eh   |
          | TOTAL FREE ENERGY         -74.998773828658 Eh   |
          | GRADIENT NORM               0.000048542555 Eh/α |
          | HOMO-LUMO GAP               0.775295851698 eV   |
           -------------------------------------------------

 * finished run on 2025/09/10 at 02:55:14.953
