   * xtb version 6.7.1 (edcfbbe) compiled by 'albert@albert-system' on 2024-07-22

   ID    Z sym.   atoms
    1    6 C      1-30
    2    1 H      31-52

          program call               : xtb data2507/toluene/FAPbCl3/FAPbCl3_toluene_S0_crest.xyz --gfn 2 --gbsa toluene --ohess vtight --parallel 40 --molden --ceasefiles --namespace data2507/toluene/FAPbCl3/FAPbCl3_toluene_S0_finalOpt
      * Solvation model:               GBSA
        Solvent                        toluene
        Solvent mass                       9.2140E+01 g/mol
          :  Hamiltonian                  GFN2-xTB          :
 * total energy  :   -75.4610724 Eh     change       -0.2671484E-08 Eh
 * total energy  :   -75.4611049 Eh     change       -0.3250162E-04 Eh
 * total energy  :   -75.4611210 Eh     change       -0.1608607E-04 Eh
 * total energy  :   -75.4611349 Eh     change       -0.1388351E-04 Eh
 * total energy  :   -75.4611481 Eh     change       -0.1322962E-04 Eh
 * total energy  :   -75.4611562 Eh     change       -0.8109475E-05 Eh
 * total energy  :   -75.4611588 Eh     change       -0.2641831E-05 Eh
 * total energy  :   -75.4611599 Eh     change       -0.1038145E-05 Eh
 * total energy  :   -75.4611606 Eh     change       -0.7573289E-06 Eh
 * total energy  :   -75.4611611 Eh     change       -0.4080189E-06 Eh
 * total energy  :   -75.4611613 Eh     change       -0.2086390E-06 Eh
 * total energy  :   -75.4611615 Eh     change       -0.2549505E-06 Eh
 * total energy  :   -75.4611619 Eh     change       -0.3541583E-06 Eh
 * total energy  :   -75.4611621 Eh     change       -0.2344589E-06 Eh
 * total energy  :   -75.4611622 Eh     change       -0.5956510E-07 Eh
   *** GEOMETRY OPTIMIZATION CONVERGED AFTER 15 ITERATIONS ***

 final structure:
================
52
 xtb: 6.7.1 (edcfbbe)
C           -5.65756964530704        1.61536136735240        0.13618510827149
C           -4.95798157074264        2.31154736335660       -0.83533256205319
C           -3.57661683939866        2.25269391963062       -0.87241124352746
C           -2.87503636525045        1.48693412828320        0.05484026270496
C           -1.40103146317483        1.44515466389209        0.01366680540012
C           -0.69161473533438        2.64197192213190        0.00658506379812
C            0.68804618497858        2.64291531059773        0.00402010918661
C            1.39890622618811        1.44704083716282       -0.00759211227735
C            2.87277913739577        1.49047168527771       -0.05218641250459
C            3.58163408043735        0.80664472409902       -1.03584246225480
C            4.96193165371825        0.87340675985227       -1.07990048375709
C            5.65480150249050        1.62177392180171       -0.14241370449415
C            4.95796879900842        2.31177773247996        0.83547018837508
C            3.57675697924802        2.25168099458931        0.87691221781190
C            0.69924293978329        0.23499122316252       -0.00558918836690
C            1.43919930771087       -1.04474717656345       -0.00912340870439
C            2.34658389855003       -1.33364573126823        1.00538543270314
C            3.04006288804140       -2.52985072858785        1.00657148705569
C            2.84148296192239       -3.45007948458014       -0.00915606315673
C            1.94347896028172       -3.16873237622596       -1.02530324704072
C            1.24445512601230       -1.97570759341444       -1.02458785371934
C           -0.69975187462751        0.23401890472967        0.00888157498720
C           -1.43752283330333       -1.04698308423643        0.00922298556307
C           -2.34338542024379       -1.33577354204090       -1.00666391092173
C           -3.03443846240566       -2.53337836526373       -1.01071372948780
C           -2.83493624304193       -3.45509728143802        0.00348871453250
C           -1.93845855265146       -3.17384650489290        1.02101502622762
C           -1.24183707755785       -1.97941472639418        1.02315999585250
C           -3.58669353547491        0.79698953662584        1.03218021406797
C           -4.96722256497799        0.86223376820630        1.07171025627478
H           -6.73657090420862        1.66166027560939        0.16588309357635
H           -5.49051435049905        2.90290434821846       -1.56668505663238
H           -3.03298072729356        2.79032037872357       -1.63685605365758
H           -1.23357223501349        3.57671142292404        0.02148438913503
H            1.22884509561986        3.57837476457737       -0.00781980615890
H            3.04577526256156        0.22959437347530       -1.77508831824069
H            5.49938544664156        0.33922377505067       -1.85034271405022
H            6.73364939671463        1.66923745783279       -0.17556580156961
H            5.49255993843493        2.89942009059057        1.56830667700228
H            3.03526469453669        2.78467905836777        1.64610968315084
H            2.49943299212011       -0.61841948112788        1.80132498390317
H            3.73865013971716       -2.74421813070521        1.80278830136043
H            3.38551717651510       -4.38351506543997       -0.00923430316467
H            1.78652658726145       -3.88151710868255       -1.82229662994521
H            0.54984052932606       -1.75516216956063       -1.82269105524168
H           -2.49693307144601       -0.61931460833317       -1.80136421217797
H           -3.73190398110216       -2.74765145666761       -1.80793020738388
H           -3.37708785269812       -4.38962452582007        0.00131951482891
H           -1.78080784684395       -3.88780222254683        1.81682532143136
H           -0.54835857755183       -1.75893395397691        1.82227311726791
H           -3.05308208032349        0.21614125369838        1.77005489304901
H           -5.50686240294357        0.32310953066739        1.83716343377105

          :  Hamiltonian                  GFN2-xTB          :
         :: gradient norm              0.000025033137 Eh/a0 ::
         :: HOMO-LUMO gap              3.494462496712 eV    ::
         :: SCC energy               -76.956504525202 Eh    ::
         :: -> dispersion             -0.072885126655 Eh    ::
         :: -> Gsolv                  -0.029653309386 Eh    ::
         :: repulsion energy           1.495342361053 Eh    ::

    * Orbital Energies and Occupations

         #    Occupation            Energy/Eh            Energy/eV
      -------------------------------------------------------------
         1        2.0000           -0.6530351             -17.7700
       ...           ...                  ...                  ...
        59        2.0000           -0.4221478             -11.4872
        60        2.0000           -0.4185837             -11.3902
        61        2.0000           -0.4185429             -11.3891
        62        2.0000           -0.4098776             -11.1533
        63        2.0000           -0.4073223             -11.0838
        64        2.0000           -0.4040213             -10.9940
        65        2.0000           -0.4025039             -10.9527
        66        2.0000           -0.4021187             -10.9422
        67        2.0000           -0.4014284             -10.9234
        68        2.0000           -0.3958079             -10.7705
        69        2.0000           -0.3949534             -10.7472
        70        2.0000           -0.3814212             -10.3790
        71        2.0000           -0.3775084             -10.2725 (HOMO)
        72                         -0.2490893              -6.7781 (LUMO)
        73                         -0.2412831              -6.5656
        74                         -0.2242767              -6.1029
        75                         -0.2235724              -6.0837
        76                         -0.2210440              -6.0149
        77                         -0.2188294              -5.9547
        78                         -0.2187051              -5.9513
        79                         -0.2183741              -5.9423
        80                         -0.2019795              -5.4961
        81                         -0.1928164              -5.2468
        82                         -0.1088126              -2.9609
       ...                                ...                  ...
       142                          0.7039397              19.1552
      -------------------------------------------------------------
                  HL-Gap            0.1284191 Eh            3.4945 eV

     #   Z          covCN         q      C6AA      α(0)
     1   6 C        2.920    -0.032    28.809     8.802
     2   6 C        2.918    -0.031    28.774     8.796
     3   6 C        2.925    -0.035    28.868     8.811
     4   6 C        2.977     0.012    27.735     8.639
     5   6 C        2.979     0.003    27.961     8.674
     6   6 C        2.922    -0.038    28.944     8.822
     7   6 C        2.922    -0.038    28.943     8.822
     8   6 C        2.979     0.003    27.961     8.674
     9   6 C        2.977     0.012    27.734     8.639
    10   6 C        2.924    -0.032    28.805     8.801
    11   6 C        2.919    -0.031    28.762     8.795
    12   6 C        2.920    -0.032    28.809     8.802
    13   6 C        2.918    -0.031    28.774     8.796
    14   6 C        2.925    -0.035    28.868     8.811
    15   6 C        2.982     0.000    28.016     8.682
    16   6 C        2.977     0.016    27.658     8.627
    17   6 C        2.925    -0.032    28.800     8.801
    18   6 C        2.919    -0.031    28.767     8.795
    19   6 C        2.920    -0.032    28.807     8.802
    20   6 C        2.919    -0.031    28.767     8.795
    21   6 C        2.924    -0.032    28.805     8.801
    22   6 C        2.982     0.000    28.016     8.682
    23   6 C        2.977     0.016    27.657     8.627
    24   6 C        2.925    -0.032    28.800     8.801
    25   6 C        2.919    -0.031    28.766     8.795
    26   6 C        2.920    -0.032    28.807     8.802
    27   6 C        2.919    -0.031    28.767     8.795
    28   6 C        2.924    -0.032    28.805     8.802
    29   6 C        2.924    -0.032    28.805     8.801
    30   6 C        2.919    -0.031    28.762     8.795
    31   1 H        0.926     0.030     2.581     2.512
    32   1 H        0.926     0.031     2.571     2.508
    33   1 H        0.926     0.031     2.572     2.508
    34   1 H        0.926     0.034     2.533     2.489
    35   1 H        0.926     0.034     2.533     2.489
    36   1 H        0.926     0.027     2.623     2.533
    37   1 H        0.926     0.029     2.594     2.518
    38   1 H        0.926     0.030     2.581     2.512
    39   1 H        0.926     0.031     2.571     2.507
    40   1 H        0.926     0.031     2.572     2.508
    41   1 H        0.926     0.027     2.634     2.538
    42   1 H        0.926     0.030     2.585     2.514
    43   1 H        0.926     0.030     2.580     2.512
    44   1 H        0.926     0.030     2.589     2.516
    45   1 H        0.926     0.026     2.638     2.540
    46   1 H        0.926     0.027     2.634     2.538
    47   1 H        0.926     0.030     2.585     2.514
    48   1 H        0.926     0.030     2.580     2.512
    49   1 H        0.926     0.030     2.589     2.516
    50   1 H        0.926     0.026     2.638     2.540
    51   1 H        0.926     0.027     2.623     2.533
    52   1 H        0.926     0.029     2.594     2.519

molecular dipole:
                 x           y           z       tot (Debye)
 q only:        0.000       0.050       0.000
   full:        0.000       0.020      -0.000       0.051

 projected vibrational frequencies (cm⁻¹)
eigval :       -0.00    -0.00     0.00     0.00     0.00     0.00
eigval :       25.53    30.01    40.61    43.00    50.29    62.34
eigval :       63.59    70.12    73.02   107.10   116.13   124.10
eigval :      203.81   210.40   216.32   217.72   232.30   248.67
eigval :      254.59   333.11   349.16   373.39   373.65   373.77
eigval :      374.65   401.21   415.36   461.23   489.31   491.56
eigval :      504.12   565.58   576.99   582.92   582.99   587.46
eigval :      590.71   597.12   597.76   627.90   665.51   668.40
eigval :      672.29   678.34   681.26   695.37   718.71   756.62
eigval :      757.15   759.17   764.87   806.90   843.00   845.79
eigval :      875.31   875.81   878.28   880.07   899.39   900.66
eigval :      901.66   902.95   920.30   927.13   927.80   929.51
eigval :      929.82   930.39   931.06   931.74   932.32   951.19
eigval :      967.20   980.98   989.00  1035.43  1071.32  1083.13
eigval :     1083.47  1084.43  1089.75  1118.22  1118.93  1119.92
eigval :     1120.35  1137.62  1155.82  1180.88  1181.26  1182.05
eigval :     1182.51  1196.43  1196.90  1198.85  1200.79  1239.42
eigval :     1260.29  1278.29  1281.02  1281.75  1283.80  1295.12
eigval :     1296.42  1313.06  1313.50  1316.55  1317.59  1325.46
eigval :     1406.21  1425.73  1427.99  1430.59  1434.97  1444.69
eigval :     1477.74  1479.24  1489.62  1495.37  1549.50  1569.93
eigval :     1581.04  1581.26  1582.59  1583.55  1599.57  1599.97
eigval :     1600.48  1600.72  3063.95  3064.09  3065.47  3065.55
eigval :     3066.54  3067.04  3067.89  3068.00  3070.24  3073.55
eigval :     3073.68  3074.10  3074.73  3077.79  3078.76  3081.43
eigval :     3081.54  3082.18  3087.34  3087.49  3089.02  3089.26

   temp. (K)  partition function   enthalpy   heat capacity  entropy
                                   cal/mol     cal/K/mol   cal/K/mol   J/K/mol
 298.15  VIB  0.846E+10            13510.971     87.441     83.778
         ROT  0.784E+07              888.752      2.981     34.529
         INT  0.663E+17            14399.724     90.421    118.307
         TR   0.724E+28             1481.254      4.968     43.697
         TOT                       15880.9776    95.3896   162.0038   677.8237

       T/K    H(0)-H(T)+PV         H(T)/Eh          T*S/Eh         G(T)/Eh
   ------------------------------------------------------------------------
    298.15    0.253079E-01    0.435074E+00    0.769732E-01    0.358100E+00
   ------------------------------------------------------------------------

         :::::::::::::::::::::::::::::::::::::::::::::::::::::
         ::                  THERMODYNAMIC                  ::
         :::::::::::::::::::::::::::::::::::::::::::::::::::::
         :: total free energy         -75.103061861137 Eh   ::
         ::.................................................::
         :: total energy              -75.461162163746 Eh   ::
         :: zero point energy           0.409765565394 Eh   ::
         :: G(RRHO) w/o ZPVE           -0.051665262785 Eh   ::
         :: G(RRHO) contrib.            0.358100302609 Eh   ::
         :::::::::::::::::::::::::::::::::::::::::::::::::::::

           -------------------------------------------------
          | TOTAL ENERGY              -75.461162163746 Eh   |
          | TOTAL ENTHALPY            -75.026088649663 Eh   |
          | TOTAL FREE ENERGY         -75.103061861137 Eh   |
          | GRADIENT NORM               0.000025038982 Eh/α |
          | HOMO-LUMO GAP               3.494462487317 eV   |
           -------------------------------------------------

 * finished run on 2025/09/10 at 02:53:58.284
