   * xtb version 6.7.1 (edcfbbe) compiled by 'albert@albert-system' on 2024-07-22

   ID    Z sym.   atoms
    1    6 C      1-30
    2    1 H      31-52

          program call               : xtb data2507/toluene/FAPbCl3/FAPbCl3_toluene_S0_finalOpt.xtbopt.xyz --gfn 2 --uhf 2 --gbsa toluene --ohess vtight --parallel 40 --molden --ceasefiles --namespace data2507/toluene/FAPbCl3/FAPbCl3_toluene_T1_preOpt
      * Solvation model:               GBSA
        Solvent                        toluene
        Solvent mass                       9.2140E+01 g/mol
          :  Hamiltonian                  GFN2-xTB          :
 * total energy  :   -75.3327198 Eh     change       -0.7243273E-10 Eh
 * total energy  :   -75.3424079 Eh     change       -0.9688140E-02 Eh
 * total energy  :   -75.3462451 Eh     change       -0.3837241E-02 Eh
 * total energy  :   -75.3473534 Eh     change       -0.1108230E-02 Eh
 * total energy  :   -75.3485507 Eh     change       -0.1197335E-02 Eh
 * total energy  :   -75.3494684 Eh     change       -0.9177030E-03 Eh
 * total energy  :   -75.3501644 Eh     change       -0.6960076E-03 Eh
 * total energy  :   -75.3507444 Eh     change       -0.5799259E-03 Eh
 * total energy  :   -75.3512448 Eh     change       -0.5004290E-03 Eh
 * total energy  :   -75.3516825 Eh     change       -0.4377525E-03 Eh
 * total energy  :   -75.3527726 Eh     change       -0.7834934E-06 Eh
 * total energy  :   -75.3527734 Eh     change       -0.7439480E-06 Eh
 * total energy  :   -75.3527741 Eh     change       -0.6967479E-06 Eh
 * total energy  :   -75.3527747 Eh     change       -0.6622688E-06 Eh
 * total energy  :   -75.3527753 Eh     change       -0.6146557E-06 Eh
 * total energy  :   -75.3527759 Eh     change       -0.5961065E-06 Eh
 * total energy  :   -75.3527765 Eh     change       -0.5439419E-06 Eh
 * total energy  :   -75.3527770 Eh     change       -0.5409250E-06 Eh
 * total energy  :   -75.3527770 Eh     change       -0.1121639E-07 Eh
   *** GEOMETRY OPTIMIZATION CONVERGED AFTER 68 ITERATIONS ***

 final structure:
================
52
 xtb: 6.7.1 (edcfbbe)
C           -5.66700791568390        1.65280276557264        0.29350144851887
C           -4.94794352610351        2.62097073026163       -0.40684219584590
C           -3.57984696213211        2.56159368130981       -0.48127706537897
C           -2.85025623718019        1.49816182306956        0.11833956475582
C           -1.43519084419321        1.43045733535092       -0.01892114625208
C           -0.67454276356091        2.65007491870334       -0.04716780219175
C            0.67112956221229        2.65094026965251        0.05118673487822
C            1.43350807548426        1.43246541240622        0.02029887894026
C            2.84837494331274        1.50230924398292       -0.11732135491589
C            3.60610539753176        0.54871929349836       -0.84898245609351
C            4.97373165655256        0.63114916237490       -0.92790265124184
C            5.66494705457385        1.66071779316847       -0.29291719020884
C            4.94481094380195        2.62701065643680        0.40894777320050
C            3.57682334298117        2.56583241779116        0.48361918897469
C            0.68831625286310        0.19541976106096        0.01451797646228
C            1.42658365327291       -1.07729321840923        0.08880901333633
C            2.32618638344275       -1.29579002871984        1.13295672353188
C            3.01553832830097       -2.48979360965493        1.22911996030671
C            2.82885141348816       -3.48075520660314        0.27920800969538
C            1.94555518153522       -3.26996718182826       -0.76874933698488
C            1.24653482984741       -2.08228507549108       -0.86208840994979
C           -0.68833981969582        0.19450295631882       -0.01520504108127
C           -1.42484117572871       -1.07916391235697       -0.09132272876386
C           -2.32378962619819       -1.29766710658034       -1.13600387359122
C           -3.01141658812187       -2.49253944434934       -1.23379740658281
C           -2.82358426979541       -3.48437388091473       -0.28502616141422
C           -1.94090415469340       -3.27359537838426        0.76344499640944
C           -1.24363396675049       -2.08500942736778        0.85842787652431
C           -3.60690444859620        0.54256590080375        0.84841022508025
C           -4.97466110678088        0.62318907586672        0.92715880372627
H           -6.74298335929837        1.70954457075864        0.35636733053845
H           -5.47625053133787        3.42367563699937       -0.90232950977744
H           -3.05114749904094        3.29764464065840       -1.06793953405296
H           -1.20723247023677        3.58857505205176       -0.05604451969434
H            1.20244109333585        3.59019777263461        0.06204369110620
H            3.09035246758533       -0.21824479445654       -1.40375982734935
H            5.51899313428521       -0.10311558024846       -1.50417803743548
H            6.74084005163605        1.71888714657280       -0.35592899238040
H            5.47223396780113        3.42967251989448        0.90545212639774
H            3.04737468883851        3.30037396236065        1.07149581567389
H            2.46788020951501       -0.52685091493858        1.87930721244443
H            3.70334071160376       -2.64737975934252        2.04759607071619
H            3.37050144121133       -4.41248753559234        0.35260363918803
H            1.80245024050805       -4.03562628997196       -1.51787332611910
H            0.56952492505624       -1.91755723572177       -1.68792466724832
H           -2.46638172630050       -0.52803375185573       -1.88146539676803
H           -3.69876963289530       -2.65011723151719       -2.05265114776998
H           -3.36386419689013       -4.41679824018210       -0.35971900338853
H           -1.79690868202657       -4.03996308871519        1.51167253415986
H           -0.56708043464687       -1.92027406832216        1.68463948266559
H           -3.09032575448043       -0.22461316728322        1.40211654605401
H           -5.51913407213717       -0.11258930001213        1.50224156890294

          :  Hamiltonian                  GFN2-xTB          :
         :: gradient norm              0.000058325957 Eh/a0 ::
         :: HOMO-LUMO gap              0.772211788943 eV    ::
         :: SCC energy               -76.822281502683 Eh    ::
         :: -> dispersion             -0.073246506933 Eh    ::
         :: -> Gsolv                  -0.029389301757 Eh    ::
         :: repulsion energy           1.469504479869 Eh    ::

    * Orbital Energies and Occupations

         #    Occupation            Energy/Eh            Energy/eV
      -------------------------------------------------------------
         1        2.0000           -0.6502367             -17.6938
       ...           ...                  ...                  ...
        60        2.0000           -0.4222004             -11.4887
        61        2.0000           -0.4173837             -11.3576
        62        2.0000           -0.4157706             -11.3137
        63        2.0000           -0.4073441             -11.0844
        64        2.0000           -0.4052103             -11.0263
        65        2.0000           -0.4034524             -10.9785
        66        2.0000           -0.4032683             -10.9735
        67        2.0000           -0.4008297             -10.9071
        68        2.0000           -0.3951672             -10.7530
        69        2.0000           -0.3930470             -10.6954
        70        1.9999           -0.3787658             -10.3067
        71        1.0001           -0.3613226              -9.8321
        72        1.0000           -0.2704691              -7.3598 (HOMO)
        73        0.0000           -0.2420908              -6.5876 (LUMO)
        74                         -0.2262260              -6.1559
        75                         -0.2239712              -6.0946
        76                         -0.2233496              -6.0777
        77                         -0.2196325              -5.9765
        78                         -0.2160475              -5.8790
        79                         -0.2146803              -5.8417
        80                         -0.1979990              -5.3878
        81                         -0.1856411              -5.0516
        82                         -0.1188268              -3.2334
        83                         -0.0933990              -2.5415
       ...                                ...                  ...
       142                          0.7097613              19.3136
      -------------------------------------------------------------
                  HL-Gap            0.0283783 Eh            0.7722 eV

     #   Z          covCN         q      C6AA      α(0)
     1   6 C        2.917    -0.035    28.868     8.811
     2   6 C        2.912    -0.031    28.766     8.795
     3   6 C        2.921    -0.037    28.926     8.820
     4   6 C        2.969     0.012    27.742     8.640
     5   6 C        2.970    -0.002    28.083     8.692
     6   6 C        2.910    -0.039    28.962     8.825
     7   6 C        2.910    -0.039    28.962     8.825
     8   6 C        2.970    -0.002    28.083     8.692
     9   6 C        2.969     0.012    27.742     8.640
    10   6 C        2.919    -0.035    28.867     8.811
    11   6 C        2.913    -0.030    28.758     8.794
    12   6 C        2.917    -0.035    28.868     8.811
    13   6 C        2.912    -0.031    28.766     8.795
    14   6 C        2.921    -0.037    28.926     8.820
    15   6 C        2.971    -0.001    28.041     8.686
    16   6 C        2.977     0.018    27.607     8.619
    17   6 C        2.925    -0.030    28.756     8.794
    18   6 C        2.918    -0.030    28.753     8.793
    19   6 C        2.920    -0.032    28.790     8.799
    20   6 C        2.918    -0.030    28.746     8.792
    21   6 C        2.923    -0.032    28.807     8.802
    22   6 C        2.971    -0.001    28.041     8.686
    23   6 C        2.977     0.018    27.607     8.619
    24   6 C        2.925    -0.030    28.756     8.794
    25   6 C        2.918    -0.030    28.753     8.793
    26   6 C        2.920    -0.032    28.790     8.799
    27   6 C        2.918    -0.030    28.746     8.792
    28   6 C        2.923    -0.032    28.807     8.802
    29   6 C        2.919    -0.035    28.867     8.811
    30   6 C        2.913    -0.030    28.758     8.794
    31   1 H        0.926     0.029     2.603     2.523
    32   1 H        0.926     0.030     2.588     2.516
    33   1 H        0.926     0.033     2.537     2.491
    34   1 H        0.926     0.036     2.498     2.472
    35   1 H        0.926     0.036     2.498     2.472
    36   1 H        0.926     0.031     2.572     2.508
    37   1 H        0.926     0.027     2.625     2.534
    38   1 H        0.926     0.029     2.603     2.523
    39   1 H        0.926     0.030     2.588     2.516
    40   1 H        0.926     0.033     2.537     2.491
    41   1 H        0.926     0.028     2.616     2.529
    42   1 H        0.926     0.031     2.573     2.509
    43   1 H        0.926     0.031     2.565     2.505
    44   1 H        0.926     0.031     2.578     2.511
    45   1 H        0.926     0.027     2.634     2.538
    46   1 H        0.926     0.028     2.616     2.529
    47   1 H        0.926     0.031     2.573     2.509
    48   1 H        0.926     0.031     2.566     2.505
    49   1 H        0.926     0.031     2.578     2.511
    50   1 H        0.926     0.027     2.634     2.538
    51   1 H        0.926     0.031     2.572     2.508
    52   1 H        0.926     0.027     2.625     2.534

molecular dipole:
                 x           y           z       tot (Debye)
 q only:        0.000      -0.063      -0.000
   full:        0.000      -0.101      -0.000       0.257

 projected vibrational frequencies (cm⁻¹)
eigval :       -0.00    -0.00    -0.00     0.00     0.00     0.00
eigval :       22.12    28.03    50.84    51.54    60.70    65.39
eigval :       76.78    81.81    88.98    94.22   125.04   135.34
eigval :      197.77   204.10   215.59   227.33   236.57   257.31
eigval :      262.99   300.67   314.20   371.54   374.83   376.76
eigval :      380.03   402.67   406.49   445.26   457.19   460.96
eigval :      487.10   539.85   554.09   563.75   565.81   580.13
eigval :      583.09   586.31   587.77   593.79   638.56   642.67
eigval :      664.42   665.70   667.10   684.98   688.81   725.47
eigval :      730.64   742.68   759.45   779.69   795.48   826.70
eigval :      834.27   838.69   861.04   861.47   875.17   877.94
eigval :      898.36   901.50   902.55   912.63   912.75   917.21
eigval :      917.67   931.28   931.63   932.93   933.55   939.08
eigval :      947.56   953.87   972.31  1003.08  1016.46  1060.28
eigval :     1067.53  1069.76  1083.45  1084.00  1119.07  1121.18
eigval :     1121.96  1126.85  1154.46  1160.78  1172.52  1172.98
eigval :     1180.03  1180.16  1192.29  1196.55  1199.60  1206.41
eigval :     1240.38  1244.69  1273.57  1273.96  1283.43  1284.12
eigval :     1301.96  1310.20  1312.63  1317.77  1332.23  1333.64
eigval :     1364.24  1368.76  1402.78  1403.07  1413.92  1424.54
eigval :     1426.84  1457.12  1459.50  1469.03  1488.50  1491.29
eigval :     1492.07  1537.65  1560.25  1565.98  1567.88  1582.98
eigval :     1583.22  1604.78  3063.95  3064.18  3065.51  3065.78
eigval :     3066.85  3066.85  3067.87  3068.41  3075.92  3076.42
eigval :     3078.88  3080.62  3082.03  3084.05  3085.57  3088.48
eigval :     3088.90  3090.37  3090.41  3095.29  3109.22  3109.65

   temp. (K)  partition function   enthalpy   heat capacity  entropy
                                   cal/mol     cal/K/mol   cal/K/mol   J/K/mol
 298.15  VIB  0.462E+10            13693.137     90.304     84.327
         ROT  0.797E+07              888.752      2.981     34.562
         INT  0.369E+17            14581.889     93.285    118.889
         TR   0.724E+28             1481.254      4.968     43.697
         TOT                       16063.1434    98.2528   162.5862   680.2606

       T/K    H(0)-H(T)+PV         H(T)/Eh          T*S/Eh         G(T)/Eh
   ------------------------------------------------------------------------
    298.15    0.255982E-01    0.431358E+00    0.772499E-01    0.354108E+00
   ------------------------------------------------------------------------

         :::::::::::::::::::::::::::::::::::::::::::::::::::::
         ::                  THERMODYNAMIC                  ::
         :::::::::::::::::::::::::::::::::::::::::::::::::::::
         :: total free energy         -74.998668533249 Eh   ::
         ::.................................................::
         :: total energy              -75.352777021628 Eh   ::
         :: zero point energy           0.405760182953 Eh   ::
         :: G(RRHO) w/o ZPVE           -0.051651694575 Eh   ::
         :: G(RRHO) contrib.            0.354108488379 Eh   ::
         :::::::::::::::::::::::::::::::::::::::::::::::::::::

           -------------------------------------------------
          | TOTAL ENERGY              -75.352777021628 Eh   |
          | TOTAL ENTHALPY            -74.921418590326 Eh   |
          | TOTAL FREE ENERGY         -74.998668533249 Eh   |
          | GRADIENT NORM               0.000058311993 Eh/α |
          | HOMO-LUMO GAP               0.772212042905 eV   |
           -------------------------------------------------

 * finished run on 2025/09/10 at 02:54:02.240
