   * xtb version 6.7.1 (edcfbbe) compiled by 'albert@albert-system' on 2024-07-22

   ID    Z sym.   atoms
    1    6 C      1-30
    2    1 H      31-52

          program call               : xtb data2507/toluene/FAPbCl3/FAPbCl3.xyz --gfn 2 --gbsa toluene --ohess vtight --parallel 40 --molden --ceasefiles --namespace data2507/toluene/FAPbCl3/FAPbCl3_toluene_S0_preOpt
      * Solvation model:               GBSA
        Solvent                        toluene
        Solvent mass                       9.2140E+01 g/mol
          :  Hamiltonian                  GFN2-xTB          :
 * total energy  :   -75.4480654 Eh     change       -0.2128502E-08 Eh
 * total energy  :   -75.4549206 Eh     change       -0.6855247E-02 Eh
 * total energy  :   -75.4563164 Eh     change       -0.1395794E-02 Eh
 * total energy  :   -75.4567013 Eh     change       -0.3848943E-03 Eh
 * total energy  :   -75.4570298 Eh     change       -0.3285408E-03 Eh
 * total energy  :   -75.4572581 Eh     change       -0.2283155E-03 Eh
 * total energy  :   -75.4575541 Eh     change       -0.2959352E-03 Eh
 * total energy  :   -75.4579569 Eh     change       -0.4028456E-03 Eh
 * total energy  :   -75.4583596 Eh     change       -0.4027013E-03 Eh
 * total energy  :   -75.4586800 Eh     change       -0.3203373E-03 Eh
 * total energy  :   -75.4611539 Eh     change       -0.4161901E-05 Eh
 * total energy  :   -75.4611584 Eh     change       -0.4496975E-05 Eh
 * total energy  :   -75.4611603 Eh     change       -0.1984925E-05 Eh
 * total energy  :   -75.4611613 Eh     change       -0.1007914E-05 Eh
 * total energy  :   -75.4611623 Eh     change       -0.9629842E-06 Eh
 * total energy  :   -75.4611632 Eh     change       -0.9148390E-06 Eh
 * total energy  :   -75.4611637 Eh     change       -0.5186446E-06 Eh
 * total energy  :   -75.4611639 Eh     change       -0.1555450E-06 Eh
 * total energy  :   -75.4611640 Eh     change       -0.7981834E-07 Eh
   *** GEOMETRY OPTIMIZATION CONVERGED AFTER 40 ITERATIONS ***

 final structure:
================
52
 xtb: 6.7.1 (edcfbbe)
C           -5.65772166778913        1.68731973432642       -0.04684246615209
C           -4.98205348405584        0.93741545262895       -0.99558410117549
C           -3.60117055796638        0.87045243054393       -0.97663598333079
C           -2.87443758592034        1.55575483116945       -0.00716659373797
C           -1.39995891986057        1.51253674298784        0.01182284303167
C           -0.68974648245177        2.70887368982288        0.01027833530280
C            0.68975290944377        2.70887599063982       -0.01003808253975
C            1.39996803299200        1.51254017384097       -0.01169433444575
C            2.87444667795378        1.55576578702533        0.00728526681238
C            3.60119944382733        0.87035817098488        0.97666567796619
C            4.98208114562452        0.93732615610564        0.99559901486449
C            5.65773007892161        1.68734347509052        0.04693369485958
C            4.94311905564750        2.37904781602030       -0.91680668806259
C            3.56140481145900        2.31876876524033       -0.93308893234079
C            0.69955396064162        0.30090814160406       -0.00348407350954
C            1.43868516377788       -0.97927106008716       -0.01012893484912
C            1.25667589159288       -1.90960540411470        1.00831287930892
C            1.95580629994876       -3.10254571476066        1.00120263911456
C            2.84141270574221       -3.38431191491191       -0.02566335920810
C            3.02687520173895       -2.46494699167629       -1.04467643692529
C            2.33316856198883       -1.26890511707032       -1.03583437488424
C           -0.69954359740912        0.30090693838192        0.00351377277342
C           -1.43868142151938       -0.97926925677933        0.01006233984468
C           -1.25668382678535       -1.90952950604312       -1.00844896706484
C           -1.95582852552299       -3.10246198099048       -1.00142749502969
C           -2.84143769400729       -3.38429489805584        0.02541777123582
C           -3.02688665854455       -2.46500535104984        1.04450137223807
C           -2.33316559008446       -1.26897133697904        1.03574822633811
C           -3.56141394340631        2.31864504695628        0.93328517726246
C           -4.94312940694817        2.37891605932103        0.91698969601251
H           -6.73700782342954        1.73475487216093       -0.06045644585426
H           -5.53352419975758        0.40209246199663       -1.75524045286656
H           -3.07926584927052        0.29183580587626       -1.72456826893154
H           -1.23122080632364        3.64399650915185        0.00613773972505
H            1.23122517737385        3.64399986264258       -0.00581989594673
H            3.07931292544346        0.29164813473219        1.72453822310845
H            5.53356648656468        0.40193187694639        1.75519485791214
H            6.73701766539282        1.73480630685418        0.06055265416508
H            5.46411766747849        2.96803606460451       -1.65830897927361
H            3.00592973657946        2.85309320494070       -1.69130934328099
H            0.57200034278416       -1.68851671326406        1.81480078946060
H            1.80893159989969       -3.81475718040913        1.80063346283367
H            3.38596775941083       -4.31742855879535       -0.03142753465317
H            3.71567169485160       -2.67978188658695       -1.84924603288906
H            2.47586450375256       -0.55431684502841       -1.83422606718513
H           -0.57200688778795       -1.68838899303777       -1.81492140927096
H           -1.80896598335265       -3.81461340410663       -1.80091387382812
H           -3.38600686165646       -4.31740372446949        0.03111001557054
H           -3.71568192117389       -2.67989387362088        1.84905763019237
H           -2.47584988441300       -0.55444319538122        1.83419571368291
H           -3.00595308788322        2.85289949948912        1.69156517274830
H           -5.46414383351383        2.96781290513215        1.65855316086980

          :  Hamiltonian                  GFN2-xTB          :
         :: gradient norm              0.000033212595 Eh/a0 ::
         :: HOMO-LUMO gap              3.494373163035 eV    ::
         :: SCC energy               -76.956452712949 Eh    ::
         :: -> dispersion             -0.072887324436 Eh    ::
         :: -> Gsolv                  -0.029652603286 Eh    ::
         :: repulsion energy           1.495288734196 Eh    ::

    * Orbital Energies and Occupations

         #    Occupation            Energy/Eh            Energy/eV
      -------------------------------------------------------------
         1        2.0000           -0.6530316             -17.7699
       ...           ...                  ...                  ...
        59        2.0000           -0.4221568             -11.4875
        60        2.0000           -0.4185973             -11.3906
        61        2.0000           -0.4185523             -11.3894
        62        2.0000           -0.4098709             -11.1532
        63        2.0000           -0.4073609             -11.0849
        64        2.0000           -0.4040333             -10.9943
        65        2.0000           -0.4025419             -10.9537
        66        2.0000           -0.4020950             -10.9416
        67        2.0000           -0.4014171             -10.9231
        68        2.0000           -0.3958200             -10.7708
        69        2.0000           -0.3949438             -10.7470
        70        2.0000           -0.3813850             -10.3780
        71        2.0000           -0.3774976             -10.2722 (HOMO)
        72                         -0.2490818              -6.7779 (LUMO)
        73                         -0.2413705              -6.5680
        74                         -0.2242865              -6.1031
        75                         -0.2235737              -6.0837
        76                         -0.2210423              -6.0149
        77                         -0.2188066              -5.9540
        78                         -0.2187114              -5.9514
        79                         -0.2183654              -5.9420
        80                         -0.2019011              -5.4940
        81                         -0.1928315              -5.2472
        82                         -0.1088235              -2.9612
       ...                                ...                  ...
       142                          0.7039128              19.1544
      -------------------------------------------------------------
                  HL-Gap            0.1284159 Eh            3.4944 eV

     #   Z          covCN         q      C6AA      α(0)
     1   6 C        2.920    -0.032    28.809     8.802
     2   6 C        2.919    -0.031    28.762     8.795
     3   6 C        2.924    -0.032    28.805     8.801
     4   6 C        2.977     0.012    27.734     8.639
     5   6 C        2.979     0.003    27.961     8.674
     6   6 C        2.922    -0.038    28.943     8.822
     7   6 C        2.922    -0.038    28.943     8.822
     8   6 C        2.979     0.003    27.961     8.674
     9   6 C        2.977     0.012    27.734     8.639
    10   6 C        2.924    -0.032    28.805     8.801
    11   6 C        2.919    -0.031    28.762     8.795
    12   6 C        2.920    -0.032    28.809     8.802
    13   6 C        2.918    -0.031    28.774     8.796
    14   6 C        2.925    -0.035    28.868     8.811
    15   6 C        2.982     0.000    28.016     8.682
    16   6 C        2.977     0.016    27.658     8.627
    17   6 C        2.924    -0.032    28.806     8.802
    18   6 C        2.919    -0.031    28.767     8.795
    19   6 C        2.920    -0.032    28.807     8.802
    20   6 C        2.919    -0.031    28.767     8.795
    21   6 C        2.925    -0.032    28.800     8.801
    22   6 C        2.982     0.000    28.016     8.682
    23   6 C        2.977     0.016    27.658     8.627
    24   6 C        2.924    -0.032    28.806     8.802
    25   6 C        2.919    -0.031    28.767     8.795
    26   6 C        2.920    -0.032    28.807     8.802
    27   6 C        2.919    -0.031    28.767     8.795
    28   6 C        2.925    -0.032    28.800     8.801
    29   6 C        2.925    -0.035    28.868     8.811
    30   6 C        2.918    -0.031    28.774     8.796
    31   1 H        0.926     0.030     2.581     2.512
    32   1 H        0.926     0.029     2.594     2.518
    33   1 H        0.926     0.027     2.624     2.533
    34   1 H        0.926     0.034     2.533     2.489
    35   1 H        0.926     0.034     2.533     2.489
    36   1 H        0.926     0.027     2.624     2.533
    37   1 H        0.926     0.029     2.594     2.518
    38   1 H        0.926     0.030     2.581     2.512
    39   1 H        0.926     0.031     2.571     2.508
    40   1 H        0.926     0.031     2.572     2.508
    41   1 H        0.926     0.026     2.638     2.540
    42   1 H        0.926     0.030     2.589     2.516
    43   1 H        0.926     0.030     2.580     2.512
    44   1 H        0.926     0.030     2.585     2.514
    45   1 H        0.926     0.027     2.634     2.538
    46   1 H        0.926     0.026     2.638     2.540
    47   1 H        0.926     0.030     2.589     2.516
    48   1 H        0.926     0.030     2.580     2.512
    49   1 H        0.926     0.030     2.585     2.514
    50   1 H        0.926     0.027     2.634     2.538
    51   1 H        0.926     0.031     2.572     2.508
    52   1 H        0.926     0.031     2.571     2.508

molecular dipole:
                 x           y           z       tot (Debye)
 q only:       -0.000       0.050       0.000
   full:       -0.000       0.021       0.000       0.053

 projected vibrational frequencies (cm⁻¹)
eigval :       -0.00    -0.00    -0.00     0.00     0.00     0.00
eigval :       25.87    26.52    39.14    42.78    50.88    62.03
eigval :       63.73    71.57    75.03   106.70   116.13   124.23
eigval :      203.48   210.61   216.67   217.95   232.23   248.94
eigval :      255.13   333.05   349.05   372.77   372.83   375.28
eigval :      375.42   400.95   415.12   461.68   489.56   491.55
eigval :      504.34   565.87   577.21   582.66   582.91   587.36
eigval :      590.68   597.28   597.68   627.97   665.38   668.67
eigval :      672.42   678.23   681.32   695.56   718.90   756.66
eigval :      757.25   759.43   765.25   807.04   844.44   845.70
eigval :      874.96   875.56   879.57   881.22   898.93   900.31
eigval :      903.16   904.18   921.47   927.05   927.82   930.18
eigval :      930.78   932.03   932.41   932.85   932.87   951.15
eigval :      967.23   981.03   989.01  1035.46  1071.30  1082.79
eigval :     1083.35  1084.74  1089.83  1118.83  1118.93  1119.49
eigval :     1120.37  1137.38  1155.76  1180.64  1180.66  1181.18
eigval :     1181.23  1196.33  1197.02  1199.48  1201.92  1239.42
eigval :     1260.24  1277.76  1280.29  1282.58  1284.72  1295.16
eigval :     1296.42  1313.00  1313.46  1316.52  1317.56  1325.49
eigval :     1406.16  1425.81  1427.87  1430.64  1434.98  1444.68
eigval :     1477.52  1479.50  1489.90  1495.13  1549.44  1569.93
eigval :     1581.00  1581.20  1582.55  1583.58  1599.52  1599.92
eigval :     1600.54  1600.75  3063.97  3064.11  3065.55  3065.57
eigval :     3066.77  3067.19  3067.50  3067.61  3070.27  3073.58
eigval :     3073.66  3074.23  3074.93  3078.02  3079.04  3081.43
eigval :     3081.52  3082.22  3087.46  3087.56  3089.00  3089.22

   temp. (K)  partition function   enthalpy   heat capacity  entropy
                                   cal/mol     cal/K/mol   cal/K/mol   J/K/mol
 298.15  VIB  0.926E+10            13509.350     87.380     83.754
         ROT  0.784E+07              888.752      2.981     34.529
         INT  0.727E+17            14398.102     90.361    118.284
         TR   0.724E+28             1481.254      4.968     43.697
         TOT                       15879.3562    95.3291   161.9808   677.7275

       T/K    H(0)-H(T)+PV         H(T)/Eh          T*S/Eh         G(T)/Eh
   ------------------------------------------------------------------------
    298.15    0.253054E-01    0.435105E+00    0.769623E-01    0.358143E+00
   ------------------------------------------------------------------------

         :::::::::::::::::::::::::::::::::::::::::::::::::::::
         ::                  THERMODYNAMIC                  ::
         :::::::::::::::::::::::::::::::::::::::::::::::::::::
         :: total free energy         -75.103021292436 Eh   ::
         ::.................................................::
         :: total energy              -75.461163979533 Eh   ::
         :: zero point energy           0.409799611440 Eh   ::
         :: G(RRHO) w/o ZPVE           -0.051656924342 Eh   ::
         :: G(RRHO) contrib.            0.358142687098 Eh   ::
         :::::::::::::::::::::::::::::::::::::::::::::::::::::

           -------------------------------------------------
          | TOTAL ENERGY              -75.461163979533 Eh   |
          | TOTAL ENTHALPY            -75.026059003186 Eh   |
          | TOTAL FREE ENERGY         -75.103021292436 Eh   |
          | GRADIENT NORM               0.000033212453 Eh/α |
          | HOMO-LUMO GAP               3.494373147332 eV   |
           -------------------------------------------------

 * finished run on 2025/09/10 at 02:52:55.450
