   * xtb version 6.7.1 (edcfbbe) compiled by 'albert@albert-system' on 2024-07-22

   ID    Z sym.   atoms
    1    8 O      1, 21, 54
    2    6 C      2-6, 8-20, 22-39, 41-53, 55-68
    3    7 N      7, 40
    4    1 H      69-108

          program call               : xtb data2507/toluene/SXAC-BP-SXAC/SXAC-BP-SXAC_toluene_S0_crest.xyz --gfn 2 --gbsa toluene --ohess vtight --parallel 40 --molden --ceasefiles --namespace data2507/toluene/SXAC-BP-SXAC/SXAC-BP-SXAC_toluene_S0_finalOpt
      * Solvation model:               GBSA
        Solvent                        toluene
        Solvent mass                       9.2140E+01 g/mol
          :  Hamiltonian                  GFN2-xTB          :
 * total energy  :  -173.5004049 Eh     change       -0.1535113E-08 Eh
 * total energy  :  -173.5005036 Eh     change       -0.9876758E-04 Eh
 * total energy  :  -173.5005344 Eh     change       -0.3074313E-04 Eh
 * total energy  :  -173.5005451 Eh     change       -0.1068912E-04 Eh
 * total energy  :  -173.5005558 Eh     change       -0.1072471E-04 Eh
 * total energy  :  -173.5005615 Eh     change       -0.5674078E-05 Eh
 * total energy  :  -173.5005651 Eh     change       -0.3662176E-05 Eh
 * total energy  :  -173.5005684 Eh     change       -0.3252626E-05 Eh
 * total energy  :  -173.5005714 Eh     change       -0.2999842E-05 Eh
 * total energy  :  -173.5005737 Eh     change       -0.2321748E-05 Eh
 * total energy  :  -173.5006541 Eh     change       -0.5102118E-06 Eh
 * total energy  :  -173.5006549 Eh     change       -0.7671991E-06 Eh
 * total energy  :  -173.5006559 Eh     change       -0.1048136E-05 Eh
 * total energy  :  -173.5006572 Eh     change       -0.1283525E-05 Eh
 * total energy  :  -173.5006583 Eh     change       -0.1132635E-05 Eh
 * total energy  :  -173.5006593 Eh     change       -0.9862401E-06 Eh
 * total energy  :  -173.5006601 Eh     change       -0.8273691E-06 Eh
 * total energy  :  -173.5006609 Eh     change       -0.7798604E-06 Eh
 * total energy  :  -173.5006609 Eh     change       -0.4529511E-08 Eh
   *** GEOMETRY OPTIMIZATION CONVERGED AFTER 68 ITERATIONS ***

 final structure:
================
108
 xtb: 6.7.1 (edcfbbe)
O            0.01461216909296        4.87941637430626       -0.15009568462679
C            0.00926559290131        3.65836411321031       -0.11480838543891
C            1.27033513885125        2.88013832960471       -0.08860752096332
C            1.37541335682875        1.67191529552731        0.60097865391618
C            2.57706363164312        0.99267681941308        0.63385770238957
C            3.68983528481174        1.50245702412245       -0.03047215222471
N            4.91757815966924        0.79500770167523       -0.00687769896475
C            5.02437501057549       -0.39969694209028       -0.71002290998715
C            3.94875910648861       -0.87799846972017       -1.46441953789163
C            4.04098450467369       -2.06723633854550       -2.15855725567122
C            5.21186138114719       -2.80535423374586       -2.12815623515934
C            6.28997720672414       -2.32270230498191       -1.41068469943641
C            6.21551700614663       -1.12979069609386       -0.70659655034095
C            7.45250198103243       -0.65387315376109        0.02618071154409
C            8.57274292318998       -0.47873857723873       -0.98161728326823
C            8.41256671829185        0.40665663899201       -2.03983788479160
C            9.41524239046270        0.59829189700145       -2.97066138489322
C           10.60588584254046       -0.10211577299986       -2.85292477149289
C           10.78401207305888       -0.98803432022368       -1.80998390072027
C            9.76987137849551       -1.17797990843329       -0.87420485307245
O           10.03234528953902       -2.07507418024740        0.12494311383889
C            9.06677981072695       -2.32021383081120        1.06272173006284
C            9.38595848670148       -3.25930550512606        2.04078880523421
C            8.47122326281071       -3.56995345637250        3.02618258542084
C            7.23264251321655       -2.94738560882804        3.04219608692321
C            6.92123957211667       -2.01604908854718        2.07054226675262
C            7.82810457958042       -1.68842082564364        1.07070191137852
C            7.22407428341325        0.66846581544685        0.73028810588917
C            8.27788476617142        1.22344539464256        1.44139195750056
C            8.13227805602598        2.40625466325457        2.14114887722484
C            6.89879461741688        3.03499187284707        2.14795568070690
C            5.83901954809613        2.49813630824095        1.44565794435253
C            5.98898572284149        1.32104848179985        0.70612516993350
C            3.59239804277601        2.71343432683304       -0.71195900984054
C            2.39598835046709        3.40017578230232       -0.72798968510112
C           -1.25872652455194        2.89102056425553       -0.09493652005506
C           -2.37648237606747        3.45308094585759        0.52214381724093
C           -3.57799348430007        2.77550601883848        0.54969906776210
C           -3.68838536003878        1.53083458804830       -0.06563555275544
N           -4.91991644294051        0.82981881955831       -0.04199654215046
C           -5.99441588892114        1.31971036889239       -0.77568562413351
C           -5.84852065794832        2.45875689494616       -1.57327380406122
C           -6.91152945961735        2.95886984565741       -2.29753589892602
C           -8.14454337448390        2.33059231256333       -2.25422416914108
C           -8.28682602710001        1.18519570783854       -1.49415198976443
C           -7.22951433015904        0.66671856208540       -0.76107605700703
C           -7.45449721825198       -0.61893879131246        0.00811308254169
C           -7.82079238922909       -1.70971089820846       -0.98119072807640
C           -6.92491462723811       -2.05693755906148       -1.98432213609851
C           -7.22494295920787       -3.04576116973668       -2.90119383901593
C           -8.44013308990769       -3.70859266764677       -2.82473759341957
C           -9.34401583913792       -3.37866480664715       -1.83560618725652
C           -9.03678136986144       -2.38076601816080       -0.91354857263659
O           -9.99099390476954       -2.11954254633553        0.03147366926568
C           -9.75054885735425       -1.14477959231921        0.96093679696095
C          -10.76266484883709       -0.92143368689303        1.89151925800520
C          -10.60536133964303        0.04224658740918        2.86663956160713
C           -9.43897478320929        0.78978275590658        2.91964570428860
C           -8.43820173445619        0.56461544581718        1.99428324290344
C           -8.57676726910773       -0.40059069930436        1.00504183661825
C           -6.21742624901384       -1.05171943747296        0.76787879459866
C           -6.29130877061131       -2.20162104324350        1.54023814228135
C           -5.21340744307831       -2.64074015170605        2.28540996317860
C           -4.04271475879602       -1.90178809318879        2.27264018408865
C           -3.95066640181102       -0.75572031907292        1.50939937940075
C           -5.02651533064725       -0.32240628889983        0.72865479009989
C           -2.58387873090937        0.97841074691893       -0.70928559220104
C           -1.37709569211110        1.64919821139885       -0.71953984632402
H            0.52423276537358        1.28048659953724        1.13677994717792
H            2.66267266167365        0.06131488018638        1.17357694917176
H            3.03396644528177       -0.30853821013394       -1.51351253581015
H            3.19275211591165       -2.41523315049260       -2.72936756217869
H            5.28938624814225       -3.73797163824611       -2.66557746775786
H            7.21705692456933       -2.87874277041825       -1.39410316834150
H            7.48197001456733        0.94860486314704       -2.12595428082507
H            9.27066784275928        1.29185238570783       -3.78502400180664
H           11.39639340635316        0.04080073754536       -3.57411009561600
H           11.69996482702508       -1.54705320229175       -1.69460387726718
H           10.35700312531687       -3.72886585130754        2.00387837048892
H            8.72529866150312       -4.29794107235436        3.78171035286519
H            6.51365306871865       -3.18709157937945        3.81069965070379
H            5.95900173530679       -1.52530426557273        2.07896067890469
H            9.22992799877901        0.71121846481126        1.44590392555889
H            8.96620173544406        2.82376786035464        2.68415913336456
H            6.75586241732811        3.94823059753458        2.70647616935589
H            4.88182127957151        2.99507285352244        1.47587148938344
H            4.45903083863419        3.11025291572477       -1.21928784105604
H            2.30810635118834        4.34258603358670       -1.24817934010424
H           -2.27848359776711        4.42087577302550        0.99148490976526
H           -4.43824631209382        3.20498891370762        1.04105273981180
H           -4.89182795318532        2.95413703297552       -1.63211989913138
H           -6.77156000683641        3.84301365994142       -2.90178402879224
H           -8.98081956026710        2.71954953082293       -2.81454633032014
H           -9.23854887331147        0.67292991338091       -1.46795722810454
H           -5.98070421686612       -1.53523799911488       -2.03968843035108
H           -6.51492103615402       -3.29967323296370       -3.67348075962284
H           -8.68476357562175       -4.48242839300995       -3.53657763083695
H          -10.29725493763738       -3.87790088469865       -1.75283007299769
H          -11.65984823094459       -1.51784880181196        1.82697441378595
H          -11.39377027380586        0.20985240290181        3.58480900446382
H           -9.31092624785927        1.54460480130043        3.68054072752545
H           -7.52608682421536        1.14241738500881        2.03057088862487
H           -7.21782502451897       -2.75858146513672        1.55609128444069
H           -5.29078554290750       -3.54024365144175        2.87662336411003
H           -3.19456951161197       -2.21528861796173        2.86323010394172
H           -3.03605443675887       -0.18404485807503        1.52488445052295
H           -2.67963715288537        0.02000806002027       -1.19751037172129
H           -0.53190889061620        1.22334774478369       -1.23834152914603

          :  Hamiltonian                  GFN2-xTB          :
         :: gradient norm              0.000047397049 Eh/a0 ::
         :: HOMO-LUMO gap              1.504457234433 eV    ::
         :: SCC energy              -176.601699458613 Eh    ::
         :: -> dispersion             -0.170075928209 Eh    ::
         :: -> Gsolv                  -0.069302851855 Eh    ::
         :: repulsion energy           3.101038534023 Eh    ::

    * Orbital Energies and Occupations

         #    Occupation            Energy/Eh            Energy/eV
      -------------------------------------------------------------
         1        2.0000           -0.7317655             -19.9124
       ...           ...                  ...                  ...
       148        2.0000           -0.4102818             -11.1643
       149        2.0000           -0.4102127             -11.1625
       150        2.0000           -0.4016124             -10.9284
       151        2.0000           -0.4006260             -10.9016
       152        2.0000           -0.4006008             -10.9009
       153        2.0000           -0.3985382             -10.8448
       154        2.0000           -0.3985138             -10.8441
       155        2.0000           -0.3975790             -10.8187
       156        2.0000           -0.3975519             -10.8179
       157        2.0000           -0.3737184             -10.1694
       158        2.0000           -0.3737093             -10.1691
       159        2.0000           -0.3546038              -9.6493
       160        2.0000           -0.3543801              -9.6432 (HOMO)
       161                         -0.2990924              -8.1387 (LUMO)
       162                         -0.2513850              -6.8405
       163                         -0.2469537              -6.7200
       164                         -0.2440385              -6.6406
       165                         -0.2417776              -6.5791
       166                         -0.2417110              -6.5773
       167                         -0.2310455              -6.2871
       168                         -0.2310418              -6.2870
       169                         -0.2308954              -6.2830
       170                         -0.2308918              -6.2829
       171                         -0.2270287              -6.1778
       ...                                ...                  ...
       312                          0.6789781              18.4759
      -------------------------------------------------------------
                  HL-Gap            0.0552877 Eh            1.5045 eV

     #   Z          covCN         q      C6AA      α(0)
     1   8 O        0.858    -0.414    21.958     6.283
     2   6 C        2.829     0.228    23.209     7.894
     3   6 C        2.972    -0.014    28.354     8.734
     4   6 C        2.920    -0.025    28.619     8.773
     5   6 C        2.920    -0.036    28.901     8.816
     6   6 C        2.926     0.075    26.328     8.415
     7   7 N        2.752    -0.065    22.503     7.045
     8   6 C        2.924     0.059    26.683     8.471
     9   6 C        2.924    -0.058    29.442     8.898
    10   6 C        2.920    -0.032    28.801     8.801
    11   6 C        2.917    -0.043    29.056     8.839
    12   6 C        2.927    -0.034    28.852     8.809
    13   6 C        2.987    -0.012    28.307     8.727
    14   6 C        3.926     0.022    20.147     6.379
    15   6 C        2.982    -0.017    28.439     8.748
    16   6 C        2.926    -0.036    28.898     8.816
    17   6 C        2.918    -0.040    28.997     8.830
    18   6 C        2.920    -0.032    28.800     8.801
    19   6 C        2.919    -0.056    29.380     8.889
    20   6 C        2.879     0.134    25.076     8.209
    21   8 O        1.709    -0.263    18.366     5.786
    22   6 C        2.879     0.134    25.075     8.209
    23   6 C        2.919    -0.056    29.379     8.888
    24   6 C        2.920    -0.032    28.801     8.801
    25   6 C        2.918    -0.040    28.999     8.831
    26   6 C        2.926    -0.036    28.901     8.816
    27   6 C        2.982    -0.018    28.440     8.748
    28   6 C        2.988    -0.012    28.309     8.728
    29   6 C        2.926    -0.035    28.861     8.810
    30   6 C        2.917    -0.043    29.057     8.839
    31   6 C        2.920    -0.032    28.799     8.800
    32   6 C        2.924    -0.058    29.431     8.897
    33   6 C        2.924     0.059    26.679     8.470
    34   6 C        2.919    -0.036    28.885     8.813
    35   6 C        2.923    -0.016    28.402     8.740
    36   6 C        2.972    -0.014    28.352     8.734
    37   6 C        2.923    -0.016    28.404     8.740
    38   6 C        2.919    -0.036    28.885     8.813
    39   6 C        2.926     0.075    26.328     8.415
    40   7 N        2.752    -0.065    22.505     7.046
    41   6 C        2.924     0.059    26.679     8.470
    42   6 C        2.924    -0.058    29.433     8.897
    43   6 C        2.920    -0.032    28.799     8.800
    44   6 C        2.917    -0.043    29.056     8.839
    45   6 C        2.927    -0.034    28.858     8.810
    46   6 C        2.987    -0.012    28.311     8.728
    47   6 C        3.926     0.022    20.147     6.379
    48   6 C        2.982    -0.018    28.441     8.748
    49   6 C        2.926    -0.036    28.902     8.816
    50   6 C        2.918    -0.040    28.999     8.831
    51   6 C        2.920    -0.032    28.801     8.801
    52   6 C        2.919    -0.055    29.379     8.888
    53   6 C        2.879     0.134    25.075     8.209
    54   8 O        1.709    -0.263    18.365     5.786
    55   6 C        2.879     0.134    25.077     8.209
    56   6 C        2.919    -0.056    29.380     8.889
    57   6 C        2.920    -0.032    28.800     8.801
    58   6 C        2.918    -0.040    28.997     8.830
    59   6 C        2.926    -0.036    28.897     8.816
    60   6 C        2.982    -0.017    28.438     8.748
    61   6 C        2.987    -0.012    28.307     8.727
    62   6 C        2.927    -0.034    28.855     8.809
    63   6 C        2.917    -0.043    29.058     8.840
    64   6 C        2.920    -0.032    28.802     8.801
    65   6 C        2.924    -0.058    29.441     8.898
    66   6 C        2.924     0.059    26.682     8.471
    67   6 C        2.920    -0.036    28.901     8.816
    68   6 C        2.920    -0.025    28.618     8.773
    69   1 H        0.926     0.054     2.268     2.355
    70   1 H        0.926     0.056     2.247     2.344
    71   1 H        0.926     0.033     2.548     2.496
    72   1 H        0.926     0.035     2.517     2.481
    73   1 H        0.926     0.031     2.579     2.511
    74   1 H        0.926     0.022     2.701     2.570
    75   1 H        0.926     0.034     2.525     2.485
    76   1 H        0.926     0.040     2.449     2.447
    77   1 H        0.926     0.043     2.409     2.427
    78   1 H        0.926     0.047     2.362     2.403
    79   1 H        0.926     0.047     2.362     2.403
    80   1 H        0.926     0.043     2.408     2.427
    81   1 H        0.926     0.040     2.446     2.446
    82   1 H        0.926     0.035     2.520     2.482
    83   1 H        0.926     0.022     2.697     2.568
    84   1 H        0.926     0.030     2.582     2.513
    85   1 H        0.926     0.034     2.533     2.489
    86   1 H        0.926     0.032     2.557     2.501
    87   1 H        0.926     0.054     2.274     2.358
    88   1 H        0.926     0.055     2.257     2.349
    89   1 H        0.926     0.055     2.258     2.350
    90   1 H        0.926     0.054     2.274     2.358
    91   1 H        0.926     0.032     2.558     2.501
    92   1 H        0.926     0.034     2.533     2.489
    93   1 H        0.926     0.030     2.582     2.513
    94   1 H        0.926     0.022     2.698     2.569
    95   1 H        0.926     0.035     2.520     2.482
    96   1 H        0.926     0.040     2.446     2.446
    97   1 H        0.926     0.043     2.408     2.427
    98   1 H        0.926     0.047     2.362     2.403
    99   1 H        0.926     0.047     2.362     2.403
   100   1 H        0.926     0.043     2.409     2.427
   101   1 H        0.926     0.040     2.449     2.447
   102   1 H        0.926     0.034     2.526     2.485
   103   1 H        0.926     0.022     2.701     2.570
   104   1 H        0.926     0.030     2.580     2.512
   105   1 H        0.926     0.035     2.517     2.481
   106   1 H        0.926     0.033     2.549     2.497
   107   1 H        0.926     0.056     2.248     2.345
   108   1 H        0.926     0.054     2.269     2.355

molecular dipole:
                 x           y           z       tot (Debye)
 q only:       -0.008      -0.688       0.008
   full:       -0.008      -0.725       0.012       1.842

 projected vibrational frequencies (cm⁻¹)
eigval :       -0.00    -0.00    -0.00     0.00     0.00     0.00
eigval :        4.13     5.65     6.21    10.43    11.69    15.34
eigval :       18.27    32.84    34.43    37.94    44.67    45.08
eigval :       48.44    55.39    65.37    67.89    69.50    70.66
eigval :       81.41   107.71   109.78   114.87   116.45   126.54
eigval :      128.66   136.94   152.71   153.99   164.52   184.23
eigval :      191.03   196.22   197.31   203.51   234.62   236.59
eigval :      247.26   252.45   263.08   270.10   281.16   287.70
eigval :      288.93   290.18   293.09   294.58   323.35   341.02
eigval :      370.08   370.48   373.32   378.52   386.65   389.30
eigval :      394.17   396.63   397.82   399.49   402.45   405.21
eigval :      429.35   430.41   435.21   438.79   444.76   446.60
eigval :      448.05   452.31   456.58   456.65   491.89   492.69
eigval :      493.95   495.00   503.37   504.37   509.42   510.84
eigval :      529.94   531.57   555.36   555.39   555.62   585.91
eigval :      590.96   592.15   596.03   597.56   597.88   601.70
eigval :      602.69   605.71   611.30   620.11   632.59   642.67
eigval :      659.36   659.67   667.75   668.34   671.89   682.21
eigval :      682.26   684.65   691.15   692.58   699.05   699.45
eigval :      708.38   719.42   738.00   757.17   770.73   770.84
eigval :      774.81   774.93   777.27   779.69   783.11   786.29
eigval :      802.26   803.06   821.97   826.78   864.22   864.26
eigval :      865.85   866.38   866.80   867.33   871.23   872.75
eigval :      873.72   874.05   874.66   876.44   889.46   897.33
eigval :      897.60   902.24   903.03   903.89   905.04   908.16
eigval :      908.21   909.03   909.15   909.94   911.76   918.47
eigval :      919.70   919.88   920.70   920.92   921.48   921.93
eigval :      922.15   922.34   924.81   926.21   926.55   927.54
eigval :      929.34   933.41   946.82   946.84   955.79  1012.88
eigval :     1027.36  1086.46  1086.67  1087.22  1087.51  1100.06
eigval :     1100.18  1108.28  1108.41  1109.93  1110.06  1112.77
eigval :     1113.36  1122.57  1122.62  1129.33  1130.33  1139.56
eigval :     1140.14  1171.44  1172.31  1172.92  1173.66  1174.45
eigval :     1177.74  1178.79  1179.11  1182.17  1182.98  1183.56
eigval :     1184.59  1186.44  1192.69  1197.11  1210.09  1210.38
eigval :     1217.52  1223.29  1232.21  1232.39  1238.15  1240.23
eigval :     1243.99  1244.20  1257.42  1257.94  1258.31  1259.94
eigval :     1261.41  1265.88  1266.01  1266.42  1267.33  1271.07
eigval :     1271.24  1309.67  1312.66  1314.11  1314.86  1323.93
eigval :     1324.01  1324.76  1324.96  1329.11  1329.14  1330.75
eigval :     1330.92  1333.61  1333.76  1398.86  1400.39  1421.61
eigval :     1421.84  1434.16  1434.35  1434.66  1434.81  1436.75
eigval :     1436.95  1469.56  1469.78  1469.82  1471.14  1476.43
eigval :     1476.55  1480.83  1480.87  1491.24  1491.37  1554.46
eigval :     1555.77  1572.61  1572.67  1576.75  1577.35  1577.58
eigval :     1577.63  1586.34  1586.47  1589.37  1589.60  1592.26
eigval :     1592.34  1594.77  1594.82  1600.71  1600.87  1603.76
eigval :     1603.77  1652.40  3069.19  3069.27  3069.62  3069.93
eigval :     3078.11  3078.17  3078.18  3078.51  3079.18  3079.26
eigval :     3079.78  3080.13  3083.40  3083.47  3084.20  3084.31
eigval :     3086.06  3086.28  3087.34  3088.56  3092.31  3092.37
eigval :     3092.86  3093.00  3093.27  3093.39  3093.93  3094.22
eigval :     3096.20  3096.64  3098.27  3099.48  3100.80  3100.83
eigval :     3101.61  3101.72  3102.09  3102.25  3103.89  3104.16

   temp. (K)  partition function   enthalpy   heat capacity  entropy
                                   cal/mol     cal/K/mol   cal/K/mol   J/K/mol
 298.15  VIB  0.449E+27            31453.611    198.233    198.930
         ROT  0.277E+09              888.752      2.981     41.616
         INT  0.125E+36            32342.363    201.214    240.545
         TR   0.250E+29             1481.254      4.968     46.156
         TOT                       33823.6170   206.1820   286.7010  1199.5570

       T/K    H(0)-H(T)+PV         H(T)/Eh          T*S/Eh         G(T)/Eh
   ------------------------------------------------------------------------
    298.15    0.539014E-01    0.875139E+00    0.136221E+00    0.738918E+00
   ------------------------------------------------------------------------

         :::::::::::::::::::::::::::::::::::::::::::::::::::::
         ::                  THERMODYNAMIC                  ::
         :::::::::::::::::::::::::::::::::::::::::::::::::::::
         :: total free energy        -172.761742570566 Eh   ::
         ::.................................................::
         :: total energy             -173.500660924559 Eh   ::
         :: zero point energy           0.821237885260 Eh   ::
         :: G(RRHO) w/o ZPVE           -0.082319531267 Eh   ::
         :: G(RRHO) contrib.            0.738918353993 Eh   ::
         :::::::::::::::::::::::::::::::::::::::::::::::::::::

           -------------------------------------------------
          | TOTAL ENERGY             -173.500660924559 Eh   |
          | TOTAL ENTHALPY           -172.625521674713 Eh   |
          | TOTAL FREE ENERGY        -172.761742570566 Eh   |
          | GRADIENT NORM               0.000047409316 Eh/α |
          | HOMO-LUMO GAP               1.504456092373 eV   |
           -------------------------------------------------

 * finished run on 2025/07/18 at 20:02:57.417
