   * xtb version 6.7.1 (edcfbbe) compiled by 'albert@albert-system' on 2024-07-22

   ID    Z sym.   atoms
    1    8 O      1, 21, 54
    2    6 C      2-6, 8-20, 22-39, 41-53, 55-68
    3    7 N      7, 40
    4    1 H      69-108

          program call               : xtb data2507/toluene/SXAC-BP-SXAC/SXAC-BP-SXAC.xyz --gfn 2 --gbsa toluene --ohess vtight --parallel 40 --molden --ceasefiles --namespace data2507/toluene/SXAC-BP-SXAC/SXAC-BP-SXAC_toluene_S0_preOpt
      * Solvation model:               GBSA
        Solvent                        toluene
        Solvent mass                       9.2140E+01 g/mol
          :  Hamiltonian                  GFN2-xTB          :
 * total energy  :  -173.4669763 Eh     change       -0.2204757E-08 Eh
 * total energy  :  -173.4889728 Eh     change       -0.2199644E-01 Eh
 * total energy  :  -173.4969506 Eh     change       -0.7977824E-02 Eh
 * total energy  :  -173.4982908 Eh     change       -0.1340228E-02 Eh
 * total energy  :  -173.4989669 Eh     change       -0.6761022E-03 Eh
 * total energy  :  -173.4993740 Eh     change       -0.4070721E-03 Eh
 * total energy  :  -173.4996252 Eh     change       -0.2511885E-03 Eh
 * total energy  :  -173.4997615 Eh     change       -0.1362898E-03 Eh
 * total energy  :  -173.4998520 Eh     change       -0.9052042E-04 Eh
 * total energy  :  -173.4999601 Eh     change       -0.1081520E-03 Eh
 * total energy  :  -173.5004153 Eh     change       -0.8015209E-06 Eh
 * total energy  :  -173.5004161 Eh     change       -0.7984957E-06 Eh
 * total energy  :  -173.5004167 Eh     change       -0.6413779E-06 Eh
 * total energy  :  -173.5004172 Eh     change       -0.4924357E-06 Eh
 * total energy  :  -173.5004177 Eh     change       -0.4988956E-06 Eh
 * total energy  :  -173.5004183 Eh     change       -0.5948599E-06 Eh
 * total energy  :  -173.5004191 Eh     change       -0.7841379E-06 Eh
 * total energy  :  -173.5004200 Eh     change       -0.9314168E-06 Eh
 * total energy  :  -173.5004200 Eh     change       -0.6238082E-08 Eh
   *** GEOMETRY OPTIMIZATION CONVERGED AFTER 94 ITERATIONS ***

 final structure:
================
108
 xtb: 6.7.1 (edcfbbe)
O           -0.01983200555491        4.84512121014215        0.56075852075116
C           -0.01771065333235        3.63640200551636        0.38764437131790
C            1.24757018958826        2.87242242460642        0.28654411883544
C            1.34466509244230        1.54572774418336        0.70765633001714
C            2.55503492247431        0.88419991031022        0.64607780656015
C            3.68608916456907        1.53389026143387        0.15832937901679
N            4.92715210991970        0.85110953165189        0.09868259418327
C            5.10531503292537       -0.14955242707165       -0.84934113986318
C            4.09103912876489       -0.44666064425506       -1.76450694353290
C            4.25505696285318       -1.44009533454988       -2.70833695181798
C            5.43847214877680       -2.15596626930562       -2.77084048078886
C            6.45539522808898       -1.84946109250944       -1.88640592556317
C            6.30876037801741       -0.85442051911948       -0.93115799588544
C            7.48109860013607       -0.55894921459158       -0.01842241134373
C            8.66898516989046       -0.15938725528893       -0.87310096273232
C            8.58126577161298        0.95995983578441       -1.69090358864785
C            9.64430701229978        1.35519557360017       -2.47973149110606
C           10.82357041976058        0.62648710644967       -2.45996011663048
C           10.93086933048514       -0.48904482342974       -1.65476119541578
C            9.85613387227644       -0.88337847557299       -0.86121089155985
O           10.05097758187231       -2.00016801973944       -0.09526485779362
C            9.03068531338509       -2.43927741463084        0.70340847856821
C            9.28939533401761       -3.58275253662472        1.45564547861334
C            8.31764553558991       -4.09671151988765        2.28978480945166
C            7.08203850185049       -3.47440033889857        2.37877516952634
C            6.83047332389632       -2.34052294977049        1.63077391899423
C            7.79503309260406       -1.80694175576008        0.78561820507108
C            7.17945594455492        0.56718664082729        0.94940113805316
C            8.17052659734605        0.94712878959295        1.84238338102589
C            7.95541541380888        1.94020573641623        2.77920523058071
C            6.71508766814541        2.55274572564588        2.83604928406346
C            5.71712349666589        2.18860968601707        1.95507175065922
C            5.93778203395056        1.20662722941581        0.98462387083065
C            3.59562025314082        2.85979827070659       -0.25892527237922
C            2.38871337254535        3.52360809772156       -0.18401551796062
C           -1.28441034909071        2.87019378046861        0.28218137025452
C           -1.41962606659179        1.79089936821477       -0.59020490974327
C           -2.62349898124168        1.11911150796538       -0.68175689093594
C           -3.70264691258994        1.50858423007103        0.10577753849843
N           -4.93294642714613        0.80198735226285        0.02830068631710
C           -5.25894550367508       -0.09262186746667        1.03835470280755
C           -4.36639717563352       -0.32790032833099        2.08822657651889
C           -4.67847968417381       -1.21466577454620        3.09861464291550
C           -5.88484050076047       -1.89383925871934        3.08366469041432
C           -6.76383267371898       -1.67935971083656        2.03852175220502
C           -6.46793531084726       -0.79246412800891        1.01414638601481
C           -7.47417819676369       -0.62498000383773       -0.10704897691277
C           -8.77312645086289       -0.11239929516769        0.48648751891109
C           -8.79694451398684        1.11962769415981        1.12753182468022
C           -9.95923694897332        1.61301698837729        1.68802418111117
C          -11.12774061265129        0.87075230184315        1.61308135160304
C          -11.12581460575596       -0.35485746660765        0.97892120905205
C           -9.95133190339575       -0.84756554333732        0.41493058287449
O          -10.04234623097592       -2.06896594633095       -0.19477461727525
C           -8.92428817878616       -2.60145468924105       -0.77646196081511
C           -9.08503292766000       -3.83928077538508       -1.39471582421035
C           -8.01039009302432       -4.45154632213383       -2.00670930587296
C           -6.76906692603314       -3.83423990697358       -2.00568649437511
C           -6.61502314962366       -2.60622847873244       -1.39180390658277
C           -7.68388710522839       -1.97296148999308       -0.77063163041507
C           -7.00031233404554        0.36186869314936       -1.15497867158125
C           -7.82156554402832        0.61015059193998       -2.24460533034794
C           -7.46372501601130        1.51573044112404       -3.22589624222679
C           -6.26404328321840        2.19690984793476       -3.10831218553065
C           -5.43291063227774        1.96265000456584       -2.03174361822521
C           -5.77988784493957        1.03342552388302       -1.04676493671068
C           -3.57678788276909        2.59339026937344        0.96816822181651
C           -2.37941732495106        3.27617987130165        1.04368507919748
H            0.48006791460583        1.04240439051060        1.11228718122525
H            2.63431878710055       -0.14020459846085        0.97815059969866
H            3.16855043345515        0.11210298571336       -1.74052388656202
H            3.45368174957158       -1.65140175073308       -3.40083655918526
H            5.57235794499605       -2.93581019039089       -3.50477178691039
H            7.39057508822152       -2.38974477559746       -1.93512663418371
H            7.65917095705868        1.52273893463282       -1.70221997935268
H            9.55530633923751        2.22854706462480       -3.10773570938152
H           11.66047705642337        0.92689663829734       -3.07216262811945
H           11.83659721442692       -1.07497222734177       -1.61989609357348
H           10.25984695406562       -4.04657150121754        1.36671843734186
H            8.52507121973472       -4.98281042237282        2.87049093444946
H            6.31848986595951       -3.87239531642892        3.02960242326529
H            5.87054869471040       -1.84969962582970        1.69700214361373
H            9.12833121768703        0.44745113341645        1.80019607503983
H            8.74148338371028        2.22332625357177        3.46227818951952
H            6.51827861103314        3.31751332720995        3.57282387407290
H            4.75289078583809        2.66781419093496        2.02398555900090
H            4.47577306178620        3.36212081109982       -0.63152140159440
H            2.30466989297999        4.55355323994534       -0.49818723514952
H           -0.58890598420512        1.49204862190257       -1.21125927353636
H           -2.73572304504622        0.28857910479277       -1.36260581924549
H           -3.41902080441032        0.18821617882366        2.10963369116696
H           -3.97286097624888       -1.37595940560756        3.90020434988204
H           -6.13633147467925       -2.58665623375540        3.87198712580674
H           -7.70421108499156       -2.21201672493020        2.01088230811130
H           -7.88339425272282        1.69347278412323        1.18182005937600
H           -9.95532077660953        2.57276752303122        2.18195052583696
H          -12.04141458523238        1.24651420315592        2.04832116410950
H          -12.02087290115530       -0.95338034109058        0.90514213512674
H          -10.06224310695736       -4.29716297411577       -1.38018410666144
H           -8.14201940972593       -5.41095603986613       -2.48376869045191
H           -5.92542428069439       -4.30963091787832       -2.48249052255148
H           -5.65086616837786       -2.11914984942454       -1.38733333519876
H           -8.76166730496382        0.08136644454860       -2.31895591481565
H           -8.11681125912922        1.69276055219203       -4.06661612484230
H           -5.97184440237362        2.91859585529942       -3.85679489327745
H           -4.50617645654668        2.50935186519143       -1.94821187583094
H           -4.41945253850596        2.89540481840945        1.57184385848278
H           -2.27052240792282        4.12709330359566        1.69981592883215

          :  Hamiltonian                  GFN2-xTB          :
         :: gradient norm              0.000062197738 Eh/a0 ::
         :: HOMO-LUMO gap              1.453664426952 eV    ::
         :: SCC energy              -176.601761604477 Eh    ::
         :: -> dispersion             -0.169877228452 Eh    ::
         :: -> Gsolv                  -0.069304426200 Eh    ::
         :: repulsion energy           3.101341563486 Eh    ::

    * Orbital Energies and Occupations

         #    Occupation            Energy/Eh            Energy/eV
      -------------------------------------------------------------
         1        2.0000           -0.7317830             -19.9128
       ...           ...                  ...                  ...
       148        2.0000           -0.4102966             -11.1647
       149        2.0000           -0.4096799             -11.1480
       150        2.0000           -0.4025429             -10.9538
       151        2.0000           -0.4006252             -10.9016
       152        2.0000           -0.4003108             -10.8930
       153        2.0000           -0.3985815             -10.8460
       154        2.0000           -0.3982216             -10.8362
       155        2.0000           -0.3976483             -10.8206
       156        2.0000           -0.3972465             -10.8096
       157        2.0000           -0.3737206             -10.1695
       158        2.0000           -0.3734551             -10.1622
       159        2.0000           -0.3545763              -9.6485
       160        2.0000           -0.3535183              -9.6197 (HOMO)
       161                         -0.3000971              -8.1661 (LUMO)
       162                         -0.2519022              -6.8546
       163                         -0.2477645              -6.7420
       164                         -0.2449119              -6.6644
       165                         -0.2417709              -6.5789
       166                         -0.2413472              -6.5674
       167                         -0.2310552              -6.2873
       168                         -0.2308991              -6.2831
       169                         -0.2307428              -6.2788
       170                         -0.2306650              -6.2767
       171                         -0.2269725              -6.1762
       ...                                ...                  ...
       312                          0.6791440              18.4804
      -------------------------------------------------------------
                  HL-Gap            0.0534212 Eh            1.4537 eV

     #   Z          covCN         q      C6AA      α(0)
     1   8 O        0.858    -0.411    21.903     6.275
     2   6 C        2.829     0.229    23.197     7.892
     3   6 C        2.972    -0.014    28.355     8.735
     4   6 C        2.920    -0.024    28.613     8.772
     5   6 C        2.920    -0.036    28.892     8.814
     6   6 C        2.926     0.076    26.310     8.412
     7   7 N        2.752    -0.066    22.510     7.047
     8   6 C        2.924     0.059    26.681     8.471
     9   6 C        2.924    -0.058    29.441     8.898
    10   6 C        2.920    -0.032    28.801     8.801
    11   6 C        2.917    -0.043    29.058     8.840
    12   6 C        2.926    -0.034    28.853     8.809
    13   6 C        2.987    -0.012    28.308     8.728
    14   6 C        3.926     0.022    20.147     6.379
    15   6 C        2.982    -0.017    28.439     8.748
    16   6 C        2.926    -0.036    28.897     8.816
    17   6 C        2.918    -0.040    28.997     8.830
    18   6 C        2.920    -0.032    28.800     8.801
    19   6 C        2.919    -0.056    29.380     8.889
    20   6 C        2.879     0.134    25.076     8.209
    21   8 O        1.709    -0.263    18.365     5.786
    22   6 C        2.879     0.134    25.075     8.209
    23   6 C        2.919    -0.056    29.379     8.888
    24   6 C        2.920    -0.032    28.801     8.801
    25   6 C        2.918    -0.040    28.999     8.831
    26   6 C        2.926    -0.036    28.902     8.816
    27   6 C        2.982    -0.018    28.441     8.748
    28   6 C        2.987    -0.012    28.309     8.728
    29   6 C        2.927    -0.034    28.859     8.810
    30   6 C        2.917    -0.043    29.057     8.839
    31   6 C        2.920    -0.032    28.798     8.800
    32   6 C        2.924    -0.058    29.434     8.897
    33   6 C        2.924     0.059    26.679     8.470
    34   6 C        2.919    -0.035    28.875     8.812
    35   6 C        2.924    -0.015    28.390     8.738
    36   6 C        2.972    -0.012    28.314     8.728
    37   6 C        2.920    -0.024    28.610     8.771
    38   6 C        2.920    -0.035    28.880     8.813
    39   6 C        2.927     0.075    26.316     8.413
    40   7 N        2.753    -0.068    22.555     7.054
    41   6 C        2.925     0.059    26.672     8.469
    42   6 C        2.924    -0.058    29.447     8.899
    43   6 C        2.920    -0.032    28.805     8.801
    44   6 C        2.917    -0.043    29.073     8.842
    45   6 C        2.926    -0.035    28.859     8.810
    46   6 C        2.987    -0.013    28.321     8.730
    47   6 C        3.926     0.022    20.147     6.379
    48   6 C        2.982    -0.018    28.441     8.748
    49   6 C        2.926    -0.036    28.899     8.816
    50   6 C        2.918    -0.040    29.000     8.831
    51   6 C        2.920    -0.032    28.802     8.801
    52   6 C        2.919    -0.056    29.381     8.889
    53   6 C        2.879     0.134    25.077     8.209
    54   8 O        1.709    -0.264    18.368     5.787
    55   6 C        2.879     0.134    25.077     8.210
    56   6 C        2.919    -0.056    29.381     8.889
    57   6 C        2.920    -0.032    28.803     8.801
    58   6 C        2.918    -0.040    28.999     8.831
    59   6 C        2.926    -0.036    28.899     8.816
    60   6 C        2.982    -0.017    28.439     8.748
    61   6 C        2.987    -0.013    28.324     8.730
    62   6 C        2.926    -0.035    28.859     8.810
    63   6 C        2.917    -0.043    29.071     8.842
    64   6 C        2.920    -0.032    28.802     8.801
    65   6 C        2.924    -0.058    29.444     8.898
    66   6 C        2.924     0.059    26.671     8.469
    67   6 C        2.919    -0.034    28.858     8.809
    68   6 C        2.924    -0.016    28.403     8.740
    69   1 H        0.926     0.055     2.254     2.348
    70   1 H        0.926     0.056     2.242     2.342
    71   1 H        0.926     0.032     2.551     2.498
    72   1 H        0.926     0.035     2.518     2.481
    73   1 H        0.926     0.030     2.580     2.512
    74   1 H        0.926     0.022     2.701     2.570
    75   1 H        0.926     0.034     2.525     2.485
    76   1 H        0.926     0.040     2.449     2.447
    77   1 H        0.926     0.043     2.409     2.427
    78   1 H        0.926     0.047     2.362     2.403
    79   1 H        0.926     0.047     2.362     2.403
    80   1 H        0.926     0.043     2.408     2.427
    81   1 H        0.926     0.040     2.446     2.445
    82   1 H        0.926     0.035     2.520     2.482
    83   1 H        0.926     0.022     2.697     2.568
    84   1 H        0.926     0.030     2.582     2.513
    85   1 H        0.926     0.034     2.533     2.489
    86   1 H        0.926     0.032     2.562     2.503
    87   1 H        0.926     0.054     2.267     2.354
    88   1 H        0.926     0.057     2.237     2.339
    89   1 H        0.926     0.055     2.258     2.350
    90   1 H        0.926     0.056     2.243     2.342
    91   1 H        0.926     0.031     2.576     2.510
    92   1 H        0.926     0.034     2.531     2.488
    93   1 H        0.926     0.030     2.590     2.516
    94   1 H        0.926     0.022     2.709     2.574
    95   1 H        0.926     0.034     2.529     2.487
    96   1 H        0.926     0.040     2.451     2.448
    97   1 H        0.926     0.043     2.410     2.428
    98   1 H        0.926     0.047     2.363     2.404
    99   1 H        0.926     0.046     2.365     2.405
   100   1 H        0.926     0.043     2.409     2.427
   101   1 H        0.926     0.040     2.445     2.445
   102   1 H        0.926     0.035     2.519     2.482
   103   1 H        0.926     0.022     2.707     2.573
   104   1 H        0.926     0.030     2.590     2.517
   105   1 H        0.926     0.033     2.540     2.492
   106   1 H        0.926     0.030     2.579     2.511
   107   1 H        0.926     0.054     2.272     2.357
   108   1 H        0.926     0.055     2.257     2.349

molecular dipole:
                 x           y           z       tot (Debye)
 q only:        0.155      -0.600      -0.139
   full:        0.153      -0.641      -0.137       1.711

 projected vibrational frequencies (cm⁻¹)
eigval :       -0.00     0.00     0.00     0.00     0.00     0.00
eigval :       -2.85     2.80     5.87    10.06    12.11    16.81
eigval :       21.80    26.83    31.47    33.11    42.92    44.35
eigval :       47.61    50.52    65.98    66.51    68.30    69.32
eigval :       75.05   105.84   106.71   112.99   116.52   126.36
eigval :      127.13   136.64   150.84   153.11   161.61   182.76
eigval :      189.17   196.43   197.29   202.03   235.07   235.70
eigval :      246.51   252.25   262.88   268.02   279.83   288.25
eigval :      288.37   288.67   292.28   294.34   322.97   340.56
eigval :      367.95   370.87   371.75   377.33   385.89   387.22
eigval :      394.33   395.41   398.18   400.59   402.34   404.90
eigval :      427.98   428.92   435.32   438.12   442.00   446.10
eigval :      447.93   453.72   454.82   455.80   490.84   492.24
eigval :      494.13   494.76   501.21   503.01   509.67   510.52
eigval :      530.61   531.01   555.30   555.49   555.94   586.01
eigval :      590.51   592.13   595.23   597.56   597.69   600.49
eigval :      602.54   605.30   612.48   620.70   632.80   642.54
eigval :      658.50   659.72   667.36   667.52   671.81   681.59
eigval :      681.74   684.30   691.23   691.75   698.91   698.96
eigval :      708.03   719.58   738.92   757.46   768.53   769.87
eigval :      773.21   774.26   780.01   780.21   785.15   785.24
eigval :      802.15   802.98   817.66   824.98   861.33   863.61
eigval :      864.12   864.70   864.98   867.21   868.27   872.51
eigval :      873.67   874.08   874.76   876.40   889.31   897.61
eigval :      897.68   902.12   902.89   903.37   904.10   906.91
eigval :      907.71   908.44   909.18   910.75   911.57   915.32
eigval :      917.74   919.17   920.12   920.28   921.20   922.39
eigval :      923.02   923.17   924.53   925.11   925.56   925.58
eigval :      928.35   933.31   946.88   947.06   956.08  1013.16
eigval :     1027.40  1086.22  1086.47  1087.47  1088.15  1099.81
eigval :     1099.94  1106.46  1107.79  1108.36  1110.30  1112.74
eigval :     1113.12  1122.92  1123.61  1127.60  1130.21  1139.48
eigval :     1140.09  1171.02  1172.64  1173.09  1173.70  1175.09
eigval :     1176.85  1179.46  1180.31  1181.81  1182.26  1183.69
eigval :     1184.75  1186.77  1192.53  1196.68  1210.00  1210.13
eigval :     1217.17  1223.43  1230.33  1232.66  1237.87  1240.08
eigval :     1244.09  1244.69  1256.47  1257.65  1258.14  1258.96
eigval :     1261.42  1265.42  1265.90  1266.06  1267.54  1269.78
eigval :     1271.61  1308.85  1312.44  1314.79  1316.74  1323.86
eigval :     1324.04  1324.97  1325.10  1329.14  1329.14  1331.33
eigval :     1333.64  1333.67  1334.18  1396.80  1399.96  1421.54
eigval :     1422.02  1434.88  1434.91  1435.59  1435.87  1436.99
eigval :     1437.18  1469.15  1469.80  1469.88  1471.04  1476.81
eigval :     1477.29  1480.70  1480.82  1491.72  1492.34  1554.79
eigval :     1557.87  1572.56  1572.81  1576.76  1577.55  1577.65
eigval :     1581.19  1586.48  1586.64  1589.44  1589.47  1592.27
eigval :     1592.32  1594.74  1594.88  1600.84  1601.07  1603.76
eigval :     1603.80  1654.83  3069.06  3069.40  3069.77  3069.79
eigval :     3077.37  3077.49  3077.75  3077.86  3078.69  3079.52
eigval :     3079.59  3079.69  3083.71  3083.91  3083.96  3084.42
eigval :     3086.09  3086.59  3087.36  3088.80  3090.65  3091.52
eigval :     3091.93  3092.67  3093.22  3093.56  3093.65  3094.01
eigval :     3096.66  3096.99  3098.13  3098.79  3099.87  3100.22
eigval :     3100.57  3101.07  3101.43  3101.63  3101.92  3102.62

   temp. (K)  partition function   enthalpy   heat capacity  entropy
                                   cal/mol     cal/K/mol   cal/K/mol   J/K/mol
 298.15  VIB  0.233E+28            31540.265    197.944    200.561
         ROT  0.278E+09              888.752      2.981     41.620
         INT  0.647E+36            32429.017    200.925    242.181
         TR   0.250E+29             1481.254      4.968     46.156
         TOT                       33910.2712   205.8928   288.3368  1206.4013

       T/K    H(0)-H(T)+PV         H(T)/Eh          T*S/Eh         G(T)/Eh
   ------------------------------------------------------------------------
    298.15    0.540395E-01    0.874999E+00    0.136998E+00    0.738001E+00
   ------------------------------------------------------------------------

         :::::::::::::::::::::::::::::::::::::::::::::::::::::
         ::                  THERMODYNAMIC                  ::
         :::::::::::::::::::::::::::::::::::::::::::::::::::::
         :: total free energy        -172.762419345074 Eh   ::
         ::.................................................::
         :: total energy             -173.500420042082 Eh   ::
         :: zero point energy           0.820959376763 Eh   ::
         :: G(RRHO) w/o ZPVE           -0.082958679754 Eh   ::
         :: G(RRHO) contrib.            0.738000697008 Eh   ::
         :::::::::::::::::::::::::::::::::::::::::::::::::::::

           -------------------------------------------------
          | TOTAL ENERGY             -173.500420042082 Eh   |
          | TOTAL ENTHALPY           -172.625421208459 Eh   |
          | TOTAL FREE ENERGY        -172.762419345074 Eh   |
          | GRADIENT NORM               0.000062195075 Eh/α |
          | HOMO-LUMO GAP               1.453664566846 eV   |
           -------------------------------------------------

 * finished run on 2025/07/18 at 19:49:50.491
