   * xtb version 6.7.1 (edcfbbe) compiled by 'albert@albert-system' on 2024-07-22

   ID    Z sym.   atoms
    1    8 O      1, 21, 54
    2    6 C      2-6, 8-20, 22-39, 41-53, 55-68
    3    7 N      7, 40
    4    1 H      69-108

          program call               : xtb data2507/toluene/SXAC-BP-SXAC/SXAC-BP-SXAC_toluene_S0_finalOpt.xtbopt.xyz --gfn 2 --uhf 2 --gbsa toluene --ohess vtight --parallel 40 --molden --ceasefiles --namespace data2507/toluene/SXAC-BP-SXAC/SXAC-BP-SXAC_toluene_T1_preOpt
      * Solvation model:               GBSA
        Solvent                        toluene
        Solvent mass                       9.2140E+01 g/mol
          :  Hamiltonian                  GFN2-xTB          :
 * total energy  :  -173.4193215 Eh     change       -0.1324372E-07 Eh
 * total energy  :  -173.4233647 Eh     change       -0.4043178E-02 Eh
 * total energy  :  -173.4243138 Eh     change       -0.9491243E-03 Eh
 * total energy  :  -173.4244357 Eh     change       -0.1218781E-03 Eh
 * total energy  :  -173.4245254 Eh     change       -0.8974550E-04 Eh
 * total energy  :  -173.4246020 Eh     change       -0.7655375E-04 Eh
 * total energy  :  -173.4246984 Eh     change       -0.9644124E-04 Eh
 * total energy  :  -173.4247906 Eh     change       -0.9220431E-04 Eh
 * total energy  :  -173.4248526 Eh     change       -0.6198800E-04 Eh
 * total energy  :  -173.4248713 Eh     change       -0.1871195E-04 Eh
 * total energy  :  -173.4260326 Eh     change       -0.1374673E-05 Eh
 * total energy  :  -173.4260336 Eh     change       -0.1067628E-05 Eh
 * total energy  :  -173.4260345 Eh     change       -0.9121882E-06 Eh
 * total energy  :  -173.4260354 Eh     change       -0.8726063E-06 Eh
 * total energy  :  -173.4260363 Eh     change       -0.8735773E-06 Eh
 * total energy  :  -173.4260373 Eh     change       -0.9745038E-06 Eh
 * total energy  :  -173.4260382 Eh     change       -0.9765457E-06 Eh
 * total energy  :  -173.4260393 Eh     change       -0.1060341E-05 Eh
 * total energy  :  -173.4260393 Eh     change       -0.4050491E-08 Eh
   *** GEOMETRY OPTIMIZATION CONVERGED AFTER 122 ITERATIONS ***

 final structure:
================
108
 xtb: 6.7.1 (edcfbbe)
O            0.01256407889038        4.59666177444223       -0.15944621799482
C            0.00915906243340        3.32233616815319       -0.11809736228837
C            1.26650797495728        2.59992107447822       -0.13655817273713
C            1.43974947788577        1.32878794159679        0.44475001748826
C            2.66878625698679        0.71369107818567        0.44490091501098
C            3.77557826202394        1.34589221250453       -0.12591210176574
N            5.04358017608889        0.69792213052846       -0.12846319604450
C            5.26818026280473       -0.33375562917595       -1.01860791169626
C            4.26536275488426       -0.71796694581649       -1.92038344868391
C            4.47061188544857       -1.75545311614719       -2.80296965406308
C            5.68181547156761       -2.43289650736082       -2.81750051594581
C            6.68471355940578       -2.04558126897920       -1.94824678114072
C            6.49923231764641       -1.00415867272529       -1.05157398419204
C            7.64867066779545       -0.61141631607664       -0.15203792483133
C            8.81510384424063       -0.17834476905315       -1.02449849433333
C            8.65285464951821        0.87928117706693       -1.91055285051301
C            9.69361005374715        1.30374289946409       -2.71366719188799
C           10.92391984232511        0.66877226755764       -2.63838302866841
C           11.10409095033728       -0.38419730740557       -1.76522569679110
C           10.05183207721515       -0.80997104042697       -0.95734436094288
O           10.31874439353372       -1.85990342108617       -0.12384861748039
C            9.31750713470265       -2.34344136665348        0.67118132411039
C            9.64398551546094       -3.43291246070056        1.47601535495706
C            8.69436507036619       -3.98631435833636        2.31002162596529
C            7.41222313504667       -3.45973094565259        2.34590152880209
C            7.09238706956029       -2.37915368758085        1.54690791359182
C            8.03524167322511       -1.80712887411692        0.70209309517699
C            7.28662428810796        0.53077869248462        0.77090295385171
C            8.24216742337429        0.99124251458978        1.66395252834021
C            7.96357849941631        2.01520037268786        2.55022497368903
C            6.69726852616520        2.58309899757926        2.55660102253647
C            5.73351147803998        2.14181566299331        1.67690581915761
C            6.01443371417504        1.12047682691413        0.75784094740416
C            3.63337196464307        2.62534474028894       -0.66959322838518
C            2.40840046118318        3.24227518434316       -0.66123482984923
C           -1.25176783331184        2.60930106713535       -0.05221713531625
C           -2.39016567450353        3.29111239287558        0.42868424519237
C           -3.61770076271555        2.68162028660683        0.47990421939669
C           -3.76658312509538        1.36905744033922        0.02351906932392
N           -5.03731669649824        0.72864506857964        0.07306712429333
C           -6.01411893116120        1.10542379579775       -0.82737442462451
C           -5.73571788831935        2.06898266220197       -1.80764401951868
C           -6.70596356172289        2.46662953757325       -2.70089955660228
C           -7.97656510415678        1.91090697809263       -2.64758334273449
C           -8.25276873410007        0.94204168243503       -1.70072203999724
C           -7.29042497315029        0.52544115829732       -0.79354748248570
C           -7.64913927693731       -0.56207370159937        0.19435240568847
C           -8.03378236853061       -1.80598773770257       -0.58921369449474
C           -7.09066039008192       -2.42378755174209       -1.40087760307827
C           -7.40906511741796       -3.54935191613838       -2.13578862891387
C           -8.69016602163815       -4.07537905537600       -2.06849714190465
C           -9.63992721887390       -3.47688104673654       -1.26645336001010
C           -9.31466370722622       -2.34274500405790       -0.52539284732414
O          -10.31568876575347       -1.81755704177067        0.24298421864895
C          -10.05022190333228       -0.72074589965128        1.01428225333282
C          -11.10201071418443       -0.25233261352944        1.79881317471278
C          -10.92319602033950        0.84966616111743        2.60949340776387
C           -9.69495440792890        1.49210962884589        2.64462308513220
C           -8.65463355220793        1.02527266555055        1.86475353715705
C           -8.81536514474125       -0.08256891362762        1.04203844088653
C           -6.49752871304000       -0.90098586354418        1.11269535535113
C           -6.68492130627070       -1.87953571958508        2.07724416685383
C           -5.67992374339275       -2.21487852876900        2.96549493328888
C           -4.46403108805869       -1.54902262152370        2.89904451135994
C           -4.25658395191281       -0.57439550451099        1.94799515867948
C           -5.26241976881232       -0.24260973935092        1.02891056998196
C           -2.66351961921734        0.69503302756102       -0.50526524114409
C           -1.43167661343760        1.30301381768159       -0.54742256306181
H            0.60725371944091        0.84764005775192        0.93513592701284
H            2.79208111866535       -0.25825858954004        0.90143135405735
H            3.32596304913812       -0.18832552906439       -1.92213541976080
H            3.68288326395577       -2.03564520397866       -3.48579554862433
H            5.84509361616168       -3.24798943405771       -3.50517515929860
H            7.63643625634667       -2.55692788854881       -1.96277309332945
H            7.69234195679428        1.37050276466917       -1.96555929158682
H            9.54664731083345        2.12700995650745       -3.39579334339101
H           11.74322441832694        0.99339297103336       -3.26157283215029
H           12.05027603727555       -0.89695995875254       -1.68676106047241
H           10.64886962627441       -3.82296562026362        1.42702288869639
H            8.95460860868205       -4.82920130089522        2.93196322524058
H            6.66549765403582       -3.88920379656307        2.99592880325510
H            6.09573687219420       -1.96347036751593        1.57212064405408
H            9.22106082633838        0.53389684111213        1.66271164777510
H            8.72213921912677        2.36136035384427        3.23482834773149
H            6.45889353922050        3.37322655646495        3.25241586711452
H            4.74900758571900        2.58204040642491        1.69431196577751
H            4.49388252748984        3.12077399345595       -1.09608744595352
H            2.28243646394701        4.23423178944889       -1.07068501503839
H           -2.25902139097587        4.30777420636020        0.77031005761768
H           -4.47533770781906        3.20819296620312        0.87360638511635
H           -4.74821372507436        2.49946822246984       -1.86116690544091
H           -6.46930557684128        3.21255666840249       -3.44444367443321
H           -8.74040111884930        2.22362680135419       -3.34234386076294
H           -9.23503807636746        0.49361986303084       -1.66231225430437
H           -6.09509764312034       -2.00788691396720       -1.45201807445090
H           -6.66206895208878       -4.01435235663431       -2.76059099705771
H           -8.94939234299656       -4.95302749521909       -2.64086352858717
H          -10.64399829601385       -3.86531728917284       -1.19398633138059
H          -12.04666090443849       -0.77177258437766        1.75240678266620
H          -11.74208121244845        1.20688527461193        3.21515334496213
H           -9.54948597387719        2.35431438903426        3.27718353549233
H           -7.69567255707790        1.52207818461940        1.88847991090647
H           -7.63994691297884       -2.38208700125050        2.13040524210542
H           -5.84487402252430       -2.98033636939143        3.70770017085959
H           -3.67416514096237       -1.78891376027316        3.59465240939701
H           -3.31338097490365       -0.05300410890446        1.90959228323665
H           -2.79173194578909       -0.30464106118331       -0.89576381906879
H           -0.60195108131345        0.78688179106446       -1.00589979924874

          :  Hamiltonian                  GFN2-xTB          :
         :: gradient norm              0.000051507398 Eh/a0 ::
         :: HOMO-LUMO gap              0.726695032366 eV    ::
         :: SCC energy              -176.512140072988 Eh    ::
         :: -> dispersion             -0.169609691260 Eh    ::
         :: -> Gsolv                  -0.078469722778 Eh    ::
         :: repulsion energy           3.086100776803 Eh    ::

    * Orbital Energies and Occupations

         #    Occupation            Energy/Eh            Energy/eV
      -------------------------------------------------------------
         1        2.0000           -0.7360399             -20.0287
       ...           ...                  ...                  ...
       149        2.0000           -0.4064675             -11.0605
       150        2.0000           -0.4063824             -11.0582
       151        2.0000           -0.4062794             -11.0554
       152        2.0000           -0.4060908             -11.0503
       153        2.0000           -0.4050943             -11.0232
       154        2.0000           -0.3978328             -10.8256
       155        2.0000           -0.3967557             -10.7963
       156        2.0000           -0.3785784             -10.3016
       157        2.0000           -0.3785679             -10.3014
       158        1.9427           -0.3660959              -9.9620
       159        1.6546           -0.3640434              -9.9061
       160        1.4027           -0.3630617              -9.8794
       161        1.0000           -0.2769780              -7.5370 (HOMO)
       162        0.0000           -0.2502727              -6.8103 (LUMO)
       163        0.0000           -0.2502518              -6.8097
       164                         -0.2376551              -6.4669
       165                         -0.2376356              -6.4664
       166                         -0.2368260              -6.4444
       167                         -0.2365927              -6.4380
       168                         -0.2354126              -6.4059
       169                         -0.2353944              -6.4054
       170                         -0.2338100              -6.3623
       171                         -0.2337938              -6.3619
       172                         -0.2320648              -6.3148
       ...                                ...                  ...
       312                          0.6751300              18.3712
      -------------------------------------------------------------
                  HL-Gap            0.0267054 Eh            0.7267 eV

     #   Z          covCN         q      C6AA      α(0)
     1   8 O        0.858    -0.531    24.486     6.634
     2   6 C        2.834     0.161    24.523     8.115
     3   6 C        2.967    -0.019    28.489     8.755
     4   6 C        2.919    -0.044    29.090     8.845
     5   6 C        2.916    -0.042    29.043     8.837
     6   6 C        2.928     0.037    27.170     8.548
     7   7 N        2.752    -0.024    21.704     6.919
     8   6 C        2.927     0.062    26.603     8.458
     9   6 C        2.922    -0.047    29.177     8.858
    10   6 C        2.918    -0.027    28.677     8.782
    11   6 C        2.917    -0.032    28.795     8.800
    12   6 C        2.924    -0.031    28.778     8.797
    13   6 C        2.986    -0.004    28.111     8.697
    14   6 C        3.926     0.023    20.132     6.377
    15   6 C        2.982    -0.017    28.431     8.746
    16   6 C        2.926    -0.035    28.881     8.813
    17   6 C        2.918    -0.039    28.961     8.825
    18   6 C        2.920    -0.030    28.756     8.794
    19   6 C        2.919    -0.054    29.343     8.883
    20   6 C        2.880     0.135    25.047     8.205
    21   8 O        1.710    -0.257    18.254     5.769
    22   6 C        2.880     0.135    25.047     8.205
    23   6 C        2.919    -0.054    29.343     8.883
    24   6 C        2.920    -0.030    28.756     8.794
    25   6 C        2.918    -0.039    28.962     8.825
    26   6 C        2.926    -0.035    28.882     8.813
    27   6 C        2.982    -0.017    28.429     8.746
    28   6 C        2.986    -0.004    28.111     8.697
    29   6 C        2.924    -0.032    28.788     8.799
    30   6 C        2.917    -0.032    28.793     8.799
    31   6 C        2.918    -0.027    28.676     8.781
    32   6 C        2.922    -0.047    29.166     8.856
    33   6 C        2.927     0.063    26.597     8.457
    34   6 C        2.914    -0.042    29.037     8.836
    35   6 C        2.924    -0.031    28.785     8.798
    36   6 C        2.967    -0.019    28.489     8.755
    37   6 C        2.924    -0.031    28.785     8.798
    38   6 C        2.915    -0.042    29.037     8.836
    39   6 C        2.928     0.037    27.171     8.548
    40   7 N        2.752    -0.024    21.702     6.919
    41   6 C        2.927     0.063    26.597     8.458
    42   6 C        2.922    -0.047    29.165     8.856
    43   6 C        2.918    -0.027    28.676     8.781
    44   6 C        2.917    -0.032    28.793     8.799
    45   6 C        2.924    -0.032    28.787     8.799
    46   6 C        2.986    -0.004    28.111     8.697
    47   6 C        3.926     0.023    20.132     6.377
    48   6 C        2.983    -0.017    28.429     8.746
    49   6 C        2.926    -0.035    28.883     8.813
    50   6 C        2.918    -0.039    28.962     8.825
    51   6 C        2.920    -0.030    28.756     8.794
    52   6 C        2.919    -0.054    29.342     8.883
    53   6 C        2.880     0.135    25.046     8.204
    54   8 O        1.710    -0.257    18.254     5.769
    55   6 C        2.880     0.135    25.047     8.205
    56   6 C        2.919    -0.054    29.343     8.883
    57   6 C        2.920    -0.030    28.756     8.794
    58   6 C        2.918    -0.039    28.961     8.825
    59   6 C        2.926    -0.035    28.880     8.813
    60   6 C        2.982    -0.017    28.431     8.746
    61   6 C        2.986    -0.004    28.110     8.697
    62   6 C        2.924    -0.031    28.778     8.797
    63   6 C        2.917    -0.032    28.795     8.800
    64   6 C        2.918    -0.027    28.678     8.782
    65   6 C        2.922    -0.047    29.177     8.858
    66   6 C        2.927     0.062    26.603     8.459
    67   6 C        2.916    -0.042    29.043     8.837
    68   6 C        2.919    -0.044    29.092     8.845
    69   1 H        0.926     0.035     2.516     2.480
    70   1 H        0.926     0.036     2.508     2.477
    71   1 H        0.926     0.045     2.385     2.415
    72   1 H        0.926     0.045     2.380     2.412
    73   1 H        0.926     0.044     2.393     2.419
    74   1 H        0.926     0.035     2.512     2.478
    75   1 H        0.926     0.034     2.526     2.485
    76   1 H        0.926     0.042     2.418     2.432
    77   1 H        0.926     0.046     2.364     2.405
    78   1 H        0.926     0.051     2.304     2.374
    79   1 H        0.926     0.051     2.306     2.375
    80   1 H        0.926     0.047     2.362     2.404
    81   1 H        0.926     0.043     2.409     2.427
    82   1 H        0.926     0.035     2.515     2.480
    83   1 H        0.926     0.036     2.508     2.476
    84   1 H        0.926     0.044     2.395     2.420
    85   1 H        0.926     0.044     2.393     2.419
    86   1 H        0.926     0.044     2.396     2.421
    87   1 H        0.926     0.033     2.545     2.495
    88   1 H        0.926     0.031     2.568     2.506
    89   1 H        0.926     0.031     2.567     2.506
    90   1 H        0.926     0.033     2.546     2.495
    91   1 H        0.926     0.044     2.395     2.420
    92   1 H        0.926     0.044     2.393     2.419
    93   1 H        0.926     0.044     2.395     2.420
    94   1 H        0.926     0.036     2.508     2.476
    95   1 H        0.926     0.035     2.515     2.480
    96   1 H        0.926     0.043     2.409     2.427
    97   1 H        0.926     0.047     2.362     2.403
    98   1 H        0.926     0.051     2.306     2.375
    99   1 H        0.926     0.051     2.304     2.374
   100   1 H        0.926     0.046     2.365     2.405
   101   1 H        0.926     0.042     2.418     2.432
   102   1 H        0.926     0.034     2.526     2.485
   103   1 H        0.926     0.035     2.512     2.478
   104   1 H        0.926     0.044     2.392     2.419
   105   1 H        0.926     0.045     2.380     2.412
   106   1 H        0.926     0.045     2.384     2.415
   107   1 H        0.926     0.036     2.507     2.476
   108   1 H        0.926     0.035     2.516     2.480

molecular dipole:
                 x           y           z       tot (Debye)
 q only:       -0.015      -3.608       0.126
   full:       -0.015      -3.514       0.124       8.937

 projected vibrational frequencies (cm⁻¹)
eigval :       -0.00    -0.00    -0.00    -0.00    -0.00     0.00
eigval :        4.83     5.44     7.11    10.23    13.06    18.69
eigval :       19.01    30.83    33.07    39.60    44.76    45.74
eigval :       50.10    57.90    66.89    67.83    70.33    71.88
eigval :       89.89   105.22   107.19   110.33   120.42   125.15
eigval :      126.14   137.20   152.61   155.05   164.44   182.37
eigval :      195.63   196.85   200.41   213.30   232.64   234.03
eigval :      247.48   251.82   262.89   269.06   278.73   284.14
eigval :      284.56   290.68   292.82   304.39   331.62   337.62
eigval :      369.85   371.26   374.13   381.32   386.62   392.39
eigval :      394.19   396.82   397.33   399.99   402.04   404.12
eigval :      427.08   428.58   431.37   433.38   442.67   443.16
eigval :      450.77   453.29   453.69   454.21   473.39   480.00
eigval :      489.52   489.74   506.78   507.81   518.81   521.32
eigval :      523.82   524.09   543.74   554.09   554.24   566.42
eigval :      585.99   589.26   591.54   593.30   596.22   596.34
eigval :      598.61   602.61   608.34   609.58   615.83   631.79
eigval :      639.07   658.37   666.22   666.97   669.20   669.32
eigval :      676.38   687.74   688.02   689.67   695.17   695.25
eigval :      700.76   700.89   713.37   751.05   767.58   769.96
eigval :      772.30   774.81   779.02   780.17   784.94   787.20
eigval :      795.70   802.30   802.77   808.18   842.56   857.31
eigval :      864.45   864.59   865.45   867.73   868.58   869.82
eigval :      874.21   874.73   874.75   875.38   881.17   892.68
eigval :      894.45   898.27   899.83   901.26   904.64   906.17
eigval :      906.76   908.53   909.87   910.20   910.66   911.00
eigval :      911.94   912.02   913.99   919.73   919.82   920.87
eigval :      921.29   923.26   923.70   924.24   925.26   926.10
eigval :      929.58   931.69   942.34   943.05   943.15   999.31
eigval :     1006.78  1086.49  1086.62  1087.27  1087.37  1099.08
eigval :     1100.04  1100.08  1100.63  1101.58  1101.79  1112.76
eigval :     1113.19  1121.97  1122.36  1126.91  1131.80  1137.98
eigval :     1138.29  1159.99  1168.47  1172.79  1173.06  1173.64
eigval :     1175.12  1177.12  1177.86  1178.18  1178.83  1180.00
eigval :     1180.42  1184.91  1190.34  1199.62  1206.67  1206.71
eigval :     1212.09  1223.09  1226.95  1227.04  1234.36  1236.66
eigval :     1244.01  1244.39  1251.94  1254.86  1256.92  1258.37
eigval :     1258.57  1259.24  1262.50  1263.12  1263.30  1268.47
eigval :     1268.66  1304.49  1306.03  1306.91  1307.70  1323.47
eigval :     1324.10  1324.11  1327.29  1328.75  1328.84  1329.29
eigval :     1329.86  1334.67  1334.79  1405.78  1406.38  1416.95
eigval :     1417.28  1420.28  1420.65  1427.12  1427.32  1431.74
eigval :     1435.72  1436.13  1442.02  1452.46  1452.73  1453.85
eigval :     1468.35  1468.42  1469.84  1473.50  1479.39  1480.18
eigval :     1480.22  1483.65  1542.60  1551.35  1551.37  1562.73
eigval :     1564.44  1575.76  1575.79  1577.17  1577.27  1587.10
eigval :     1588.02  1590.68  1590.70  1591.26  1593.91  1594.00
eigval :     1601.32  1601.43  3068.80  3069.58  3070.87  3071.52
eigval :     3078.05  3078.98  3079.24  3079.51  3080.38  3080.69
eigval :     3080.79  3080.92  3083.37  3083.79  3086.57  3086.65
eigval :     3086.71  3086.77  3086.87  3086.98  3087.06  3087.21
eigval :     3087.87  3090.03  3095.74  3096.05  3096.06  3096.34
eigval :     3099.07  3099.47  3099.70  3099.80  3103.64  3103.65
eigval :     3104.23  3104.31  3107.54  3108.00  3109.23  3109.65

   temp. (K)  partition function   enthalpy   heat capacity  entropy
                                   cal/mol     cal/K/mol   cal/K/mol   J/K/mol
 298.15  VIB  0.246E+27            31552.923    199.469    198.811
         ROT  0.141E+09              888.752      2.981     40.275
         INT  0.348E+35            32441.675    202.450    239.087
         TR   0.250E+29             1481.254      4.968     46.156
         TOT                       33922.9294   207.4179   285.2423  1193.4538

       T/K    H(0)-H(T)+PV         H(T)/Eh          T*S/Eh         G(T)/Eh
   ------------------------------------------------------------------------
    298.15    0.540596E-01    0.872360E+00    0.135528E+00    0.736832E+00
   ------------------------------------------------------------------------

         :::::::::::::::::::::::::::::::::::::::::::::::::::::
         ::                  THERMODYNAMIC                  ::
         :::::::::::::::::::::::::::::::::::::::::::::::::::::
         :: total free energy        -172.689207467132 Eh   ::
         ::.................................................::
         :: total energy             -173.426039297624 Eh   ::
         :: zero point energy           0.818300025471 Eh   ::
         :: G(RRHO) w/o ZPVE           -0.081468194978 Eh   ::
         :: G(RRHO) contrib.            0.736831830493 Eh   ::
         :::::::::::::::::::::::::::::::::::::::::::::::::::::

           -------------------------------------------------
          | TOTAL ENERGY             -173.426039297624 Eh   |
          | TOTAL ENTHALPY           -172.553679643145 Eh   |
          | TOTAL FREE ENERGY        -172.689207467132 Eh   |
          | GRADIENT NORM               0.000051268716 Eh/α |
          | HOMO-LUMO GAP               0.726689718915 eV   |
           -------------------------------------------------

 * finished run on 2025/07/18 at 20:03:23.106
