   * xtb version 6.7.1 (edcfbbe) compiled by 'albert@albert-system' on 2024-07-22

   ID    Z sym.   atoms
    1    8 O      1, 21, 54
    2    6 C      2-6, 8-20, 22-39, 41-53, 55-68
    3    7 N      7, 40
    4    1 H      69-108

          program call               : xtb data2507/toluene/SXAC-BP-SXAC/SXAC-BP-SXAC_toluene_T1_crest.xyz --gfn 2 --uhf 2 --gbsa toluene --ohess vtight --parallel 40 --molden --ceasefiles --namespace data2507/toluene/SXAC-BP-SXAC/SXAC-BP-SXAC_toluene_T1_finalOpt
      * Solvation model:               GBSA
        Solvent                        toluene
        Solvent mass                       9.2140E+01 g/mol
          :  Hamiltonian                  GFN2-xTB          :
 * total energy  :  -173.4258472 Eh     change       -0.8611778E-11 Eh
 * total energy  :  -173.4259914 Eh     change       -0.1442462E-03 Eh
 * total energy  :  -173.4260333 Eh     change       -0.4188835E-04 Eh
 * total energy  :  -173.4260473 Eh     change       -0.1401196E-04 Eh
 * total energy  :  -173.4260593 Eh     change       -0.1201961E-04 Eh
 * total energy  :  -173.4260667 Eh     change       -0.7380395E-05 Eh
 * total energy  :  -173.4260715 Eh     change       -0.4807064E-05 Eh
 * total energy  :  -173.4260769 Eh     change       -0.5361616E-05 Eh
 * total energy  :  -173.4260837 Eh     change       -0.6880722E-05 Eh
 * total energy  :  -173.4260909 Eh     change       -0.7111940E-05 Eh
 * total energy  :  -173.4261658 Eh     change       -0.7362750E-06 Eh
 * total energy  :  -173.4261667 Eh     change       -0.9441083E-06 Eh
 * total energy  :  -173.4261679 Eh     change       -0.1125089E-05 Eh
 * total energy  :  -173.4261693 Eh     change       -0.1395220E-05 Eh
 * total energy  :  -173.4261707 Eh     change       -0.1441078E-05 Eh
 * total energy  :  -173.4261718 Eh     change       -0.1100445E-05 Eh
 * total energy  :  -173.4261725 Eh     change       -0.7068852E-06 Eh
 * total energy  :  -173.4261731 Eh     change       -0.6139255E-06 Eh
 * total energy  :  -173.4261731 Eh     change       -0.4061178E-09 Eh
   *** GEOMETRY OPTIMIZATION CONVERGED AFTER 44 ITERATIONS ***

 final structure:
================
108
 xtb: 6.7.1 (edcfbbe)
O           -0.00589341275893        4.57555007184684        0.03775117697986
C           -0.00463925850140        3.30018464813483        0.02826007632216
C            1.25690586975646        2.58551807951358        0.00911554346688
C            1.42643689311954        1.28621548193011        0.52540487995998
C            2.66020871435015        0.67977305643961        0.52125274938805
C            3.77503335173875        1.35022583859792        0.01487265271728
N            5.04935978546292        0.71205908156110        0.00693227871711
C            5.33836266191934       -0.19460005416847       -0.99282517715449
C            4.38897094434144       -0.47186412034303       -1.98674649091454
C            4.66046797290740       -1.37990837821688       -2.98628821460079
C            5.88546122090513       -2.03126855983296       -3.02608081495715
C            6.83326341147574       -1.75263405019007       -2.05878019854265
C            6.58069865140926       -0.84271939290555       -1.04334986854468
C            7.66690783149284       -0.57022800674592       -0.02773458701226
C            8.88575027372293       -0.03008111950469       -0.75678840472509
C            8.78155674180419        1.14801779857241       -1.48562623064148
C            9.87068630428663        1.67185754561910       -2.15483241319537
C           11.09112659966133        1.01587408593209       -2.10250726961868
C           11.21389532134143       -0.15619980323644       -1.38501803462079
C           10.11331227348937       -0.68120904791521       -0.71095471383261
O           10.32532327181938       -1.84436030574311       -0.02515596357467
C            9.28117191572315       -2.41441138274979        0.64789004898624
C            9.55857353033081       -3.60411637122697        1.31793232140393
C            8.56313037446320       -4.25039374047055        2.02152881212719
C            7.28452382813005       -3.71565270211210        2.06264319029618
C            7.01372932422094       -2.53477396391036        1.39881026130533
C            8.00270214521095       -1.86948304610924        0.68523854388150
C            7.23821045202202        0.44497967484031        1.00803493471628
C            8.13479739610691        0.79649217181975        2.00565232249857
C            7.79507257238893        1.70725042182740        2.98891763573587
C            6.52783197815496        2.27335720761475        2.98393650206291
C            5.62178846246247        1.93930310953191        2.00169881765211
C            5.96359731741133        1.02940375442246        0.99087098600858
C            3.63685681083883        2.65702354223505       -0.45942843256496
C            2.40667785645562        3.26329656977876       -0.45039707306424
C           -1.26514487026701        2.58317090675373        0.03694666861347
C           -2.41527393079743        3.25073890184144        0.51015960567364
C           -3.64439315335141        2.64214667843115        0.51081039865797
C           -3.78102975841880        1.34369121534499        0.01370860550230
N           -5.05393869100500        0.70263451699592        0.01259996257219
C           -5.97105222896394        1.03553026311325       -0.96347563859004
C           -5.63441300072206        1.96633882870421       -1.95683869083479
C           -6.54329584646756        2.31610004144082       -2.93096099893189
C           -7.80841353806535        1.74547762357117       -2.94493087148033
C           -8.14298683096051        0.81423859168393       -1.97923675184981
C           -7.24333123216207        0.44633880887931       -0.99033668438580
C           -7.66573546563474       -0.59182284377038        0.02536063246779
C           -7.99147022771808       -1.87918869397023       -0.71362386092395
C           -6.99168248556386       -2.53586971552109       -1.42008363952945
C           -7.25353042557763       -3.70554837861620       -2.10694483310240
C           -8.53397546143880       -4.23733653441714       -2.09713041704519
C           -9.54022406988673       -3.59924967234451       -1.40149191618110
C           -9.27189562759959       -2.42079466633133       -0.70831663477196
O          -10.32650546462297       -1.85864249288976       -0.04502129843799
C          -10.11907701016834       -0.71852655264838        0.67977209026914
C          -11.22605260796898       -0.21142188048581        1.35700163426775
C          -11.10762209949668        0.93483109518240        2.11571152508931
C           -9.88536387857041        1.58344392052803        2.20494627052461
C           -8.79025384910760        1.07838707554998        1.53102535348056
C           -8.88986810326683       -0.07406064941442        0.76166034095296
C           -6.57838769423900       -0.87652393537424        1.03617276140055
C           -6.82681467002142       -1.80506739488186        2.03566323364143
C           -5.87708102496024       -2.09733976625665        2.99704401002182
C           -4.65429814397553       -1.44129390704867        2.96743062153006
C           -4.38692833516134       -0.51485148429898        1.98378308096199
C           -5.33845491026503       -0.22309511828117        0.99606442740510
C           -2.66587651959381        0.68426389354748       -0.50621040709018
C           -1.43314196276944        1.29282763228329       -0.50163277812963
H            0.58741746338881        0.77399691967610        0.97089721532183
H            2.77951715583701       -0.31575821907302        0.92484332574974
H            3.43886260178144        0.03825443615112       -1.96500719862821
H            3.91418639453111       -1.57921984139920       -3.74036968319279
H            6.10103579416056       -2.74403117316726       -3.80679314227960
H            7.79326237589827       -2.24758313549202       -2.08813243996420
H            7.82842301416591        1.65501088474776       -1.52309783334758
H            9.76920954928169        2.58866149313308       -2.71502809443457
H           11.94795503454206        1.41753143425982       -2.62165775019609
H           12.15115432820964       -0.68781239832408       -1.32788539161659
H           10.56215155461328       -3.99749750019190        1.26893122404328
H            8.78521726043492       -5.17164762460703        2.53825264416393
H            6.50216116063963       -4.21740359669047        2.61108211313362
H            6.02018285705831       -2.11209538518578        1.42949727534151
H            9.11607043551115        0.34426700945059        2.00857132294510
H            8.50801569755144        1.96919864378931        3.75508013455019
H            6.24412426905046        2.97786717607464        3.75101032295341
H            4.63656081139800        2.37852825122296        2.00628981212509
H            4.50421367942891        3.18179593366417       -0.83353725697389
H            2.28251144800488        4.27531307546303       -0.80807668981686
H           -2.29227998177260        4.25645098354033        0.88557545788205
H           -4.51204286206429        3.15854185782683        0.89575521048361
H           -4.65089547101577        2.40936534968699       -1.95442489208084
H           -6.26352870289171        3.03644848029218       -3.68466272751357
H           -8.52373552815186        2.01978999234579       -3.70452612595835
H           -9.12255169283147        0.35848763069558       -1.98990291544489
H           -5.99652591907603       -2.11598155783037       -1.42599642262828
H           -6.46273018812006       -4.20084948671532       -2.64913371859710
H           -8.74895599573740       -5.14998810749512       -2.63179985443082
H          -10.54551526768747       -3.99050697215911       -1.37648415899034
H          -12.16455081863696       -0.73680803584508        1.27030135369715
H          -11.96929479201487        1.32235424481451        2.63756476524101
H           -9.78720664750565        2.48019329845982        2.79729567839885
H           -7.83591947652234        1.58028396028365        1.59657528330534
H           -7.78504460106175       -2.30385581212363        2.05693807409016
H           -6.08936377442594       -2.82441113697056        3.76535903025609
H           -3.90643603151051       -1.65151212540843        3.71696242949721
H           -3.43860092337717       -0.00117680110775        1.97015316532447
H           -2.78405290358300       -0.30422780584176       -0.92704248929778
H           -0.59395292816384        0.78983165781474       -0.95720838202518

          :  Hamiltonian                  GFN2-xTB          :
         :: gradient norm              0.000073803475 Eh/a0 ::
         :: HOMO-LUMO gap              0.734572507303 eV    ::
         :: SCC energy              -176.512513745282 Eh    ::
         :: -> dispersion             -0.169516049405 Eh    ::
         :: -> Gsolv                  -0.078494513556 Eh    ::
         :: repulsion energy           3.086340605564 Eh    ::

    * Orbital Energies and Occupations

         #    Occupation            Energy/Eh            Energy/eV
      -------------------------------------------------------------
         1        2.0000           -0.7360571             -20.0291
       ...           ...                  ...                  ...
       149        2.0000           -0.4064886             -11.0611
       150        2.0000           -0.4064047             -11.0588
       151        2.0000           -0.4062961             -11.0559
       152        2.0000           -0.4061831             -11.0528
       153        2.0000           -0.4052648             -11.0278
       154        2.0000           -0.3975666             -10.8183
       155        2.0000           -0.3964832             -10.7889
       156        2.0000           -0.3785844             -10.3018
       157        2.0000           -0.3785778             -10.3016
       158        1.9357           -0.3661862              -9.9644
       159        1.6622           -0.3642819              -9.9126
       160        1.4021           -0.3632651              -9.8849
       161        1.0000           -0.2772753              -7.5450 (HOMO)
       162        0.0000           -0.2502801              -6.8105 (LUMO)
       163        0.0000           -0.2502696              -6.8102
       164                         -0.2376602              -6.4671
       165                         -0.2376528              -6.4669
       166                         -0.2367371              -6.4419
       167                         -0.2366203              -6.4388
       168                         -0.2354277              -6.4063
       169                         -0.2354195              -6.4061
       170                         -0.2338273              -6.3628
       171                         -0.2338158              -6.3625
       172                         -0.2316525              -6.3036
       ...                                ...                  ...
       312                          0.6751144              18.3708
      -------------------------------------------------------------
                  HL-Gap            0.0269952 Eh            0.7346 eV

     #   Z          covCN         q      C6AA      α(0)
     1   8 O        0.858    -0.531    24.477     6.633
     2   6 C        2.834     0.160    24.528     8.116
     3   6 C        2.967    -0.020    28.491     8.755
     4   6 C        2.919    -0.044    29.099     8.846
     5   6 C        2.916    -0.042    29.044     8.837
     6   6 C        2.928     0.037    27.172     8.549
     7   7 N        2.753    -0.024    21.713     6.921
     8   6 C        2.927     0.063    26.596     8.457
     9   6 C        2.922    -0.047    29.173     8.857
    10   6 C        2.918    -0.027    28.676     8.781
    11   6 C        2.917    -0.032    28.795     8.799
    12   6 C        2.924    -0.031    28.779     8.797
    13   6 C        2.986    -0.004    28.111     8.697
    14   6 C        3.926     0.023    20.131     6.377
    15   6 C        2.982    -0.017    28.431     8.746
    16   6 C        2.926    -0.035    28.879     8.813
    17   6 C        2.918    -0.039    28.961     8.825
    18   6 C        2.920    -0.030    28.755     8.794
    19   6 C        2.919    -0.054    29.343     8.883
    20   6 C        2.880     0.135    25.047     8.205
    21   8 O        1.710    -0.257    18.252     5.768
    22   6 C        2.880     0.135    25.046     8.204
    23   6 C        2.919    -0.054    29.342     8.883
    24   6 C        2.920    -0.030    28.756     8.794
    25   6 C        2.918    -0.039    28.962     8.825
    26   6 C        2.926    -0.035    28.882     8.813
    27   6 C        2.982    -0.017    28.429     8.746
    28   6 C        2.986    -0.004    28.112     8.697
    29   6 C        2.924    -0.031    28.785     8.798
    30   6 C        2.917    -0.032    28.792     8.799
    31   6 C        2.918    -0.027    28.673     8.781
    32   6 C        2.922    -0.047    29.164     8.856
    33   6 C        2.927     0.063    26.592     8.457
    34   6 C        2.915    -0.042    29.038     8.836
    35   6 C        2.925    -0.031    28.784     8.798
    36   6 C        2.967    -0.019    28.489     8.755
    37   6 C        2.925    -0.031    28.783     8.798
    38   6 C        2.915    -0.042    29.038     8.836
    39   6 C        2.928     0.037    27.171     8.548
    40   7 N        2.753    -0.024    21.713     6.921
    41   6 C        2.927     0.063    26.592     8.457
    42   6 C        2.922    -0.047    29.164     8.856
    43   6 C        2.918    -0.027    28.674     8.781
    44   6 C        2.917    -0.032    28.793     8.799
    45   6 C        2.924    -0.032    28.786     8.799
    46   6 C        2.986    -0.004    28.112     8.697
    47   6 C        3.926     0.023    20.131     6.377
    48   6 C        2.982    -0.017    28.429     8.746
    49   6 C        2.926    -0.035    28.883     8.813
    50   6 C        2.918    -0.039    28.962     8.825
    51   6 C        2.920    -0.030    28.756     8.794
    52   6 C        2.919    -0.054    29.342     8.883
    53   6 C        2.880     0.135    25.046     8.204
    54   8 O        1.710    -0.257    18.253     5.768
    55   6 C        2.880     0.135    25.047     8.205
    56   6 C        2.919    -0.054    29.344     8.883
    57   6 C        2.920    -0.030    28.755     8.794
    58   6 C        2.918    -0.039    28.960     8.825
    59   6 C        2.926    -0.035    28.879     8.813
    60   6 C        2.982    -0.017    28.431     8.746
    61   6 C        2.986    -0.004    28.111     8.697
    62   6 C        2.924    -0.031    28.777     8.797
    63   6 C        2.917    -0.032    28.794     8.799
    64   6 C        2.918    -0.027    28.675     8.781
    65   6 C        2.922    -0.047    29.174     8.857
    66   6 C        2.927     0.063    26.597     8.458
    67   6 C        2.916    -0.042    29.044     8.837
    68   6 C        2.919    -0.044    29.097     8.846
    69   1 H        0.926     0.035     2.510     2.478
    70   1 H        0.926     0.035     2.512     2.479
    71   1 H        0.926     0.045     2.389     2.417
    72   1 H        0.926     0.045     2.380     2.412
    73   1 H        0.926     0.044     2.392     2.418
    74   1 H        0.926     0.035     2.510     2.478
    75   1 H        0.926     0.034     2.528     2.486
    76   1 H        0.926     0.042     2.418     2.432
    77   1 H        0.926     0.046     2.364     2.404
    78   1 H        0.926     0.051     2.303     2.373
    79   1 H        0.926     0.051     2.305     2.374
    80   1 H        0.926     0.047     2.362     2.403
    81   1 H        0.926     0.043     2.409     2.427
    82   1 H        0.926     0.035     2.515     2.480
    83   1 H        0.926     0.036     2.507     2.476
    84   1 H        0.926     0.044     2.393     2.419
    85   1 H        0.926     0.044     2.392     2.418
    86   1 H        0.926     0.044     2.400     2.422
    87   1 H        0.926     0.032     2.552     2.498
    88   1 H        0.926     0.031     2.565     2.505
    89   1 H        0.926     0.031     2.565     2.505
    90   1 H        0.926     0.033     2.551     2.497
    91   1 H        0.926     0.044     2.399     2.422
    92   1 H        0.926     0.044     2.392     2.418
    93   1 H        0.926     0.044     2.394     2.419
    94   1 H        0.926     0.036     2.507     2.476
    95   1 H        0.926     0.035     2.515     2.480
    96   1 H        0.926     0.043     2.409     2.427
    97   1 H        0.926     0.047     2.362     2.403
    98   1 H        0.926     0.051     2.305     2.374
    99   1 H        0.926     0.051     2.304     2.374
   100   1 H        0.926     0.046     2.364     2.404
   101   1 H        0.926     0.042     2.418     2.432
   102   1 H        0.926     0.034     2.527     2.486
   103   1 H        0.926     0.035     2.510     2.478
   104   1 H        0.926     0.044     2.392     2.418
   105   1 H        0.926     0.045     2.380     2.413
   106   1 H        0.926     0.044     2.390     2.418
   107   1 H        0.926     0.035     2.512     2.479
   108   1 H        0.926     0.035     2.510     2.477

molecular dipole:
                 x           y           z       tot (Debye)
 q only:        0.006      -3.587      -0.015
   full:        0.006      -3.491      -0.015       8.874

 projected vibrational frequencies (cm⁻¹)
eigval :       -0.00    -0.00    -0.00     0.00     0.00     0.00
eigval :       -1.87     5.37     6.41     8.47    13.75    19.87
eigval :       21.32    24.77    30.92    38.96    45.40    46.61
eigval :       51.34    53.39    68.24    69.23    70.04    71.90
eigval :       85.24   105.08   106.06   109.03   120.42   125.96
eigval :      126.42   137.00   151.31   155.46   162.69   182.01
eigval :      195.25   197.28   199.93   213.94   233.57   234.60
eigval :      246.53   251.47   263.26   268.85   279.44   284.61
eigval :      285.53   291.74   294.08   303.88   332.01   337.68
eigval :      369.85   371.29   372.55   381.66   387.52   392.34
eigval :      394.52   396.51   396.63   400.12   401.70   404.33
eigval :      428.40   429.24   431.74   434.29   442.51   443.38
eigval :      451.56   454.04   454.32   454.75   472.77   480.76
eigval :      489.83   490.25   507.29   508.35   518.73   520.88
eigval :      523.89   524.30   543.49   554.08   554.19   567.51
eigval :      585.81   589.37   591.63   593.18   596.12   596.36
eigval :      598.80   602.64   608.60   609.79   615.24   631.74
eigval :      639.01   658.63   666.36   667.54   669.81   670.17
eigval :      676.93   688.09   688.17   689.90   695.40   696.02
eigval :      701.15   701.39   713.39   750.95   768.64   769.80
eigval :      772.63   773.69   778.48   779.44   783.41   784.21
eigval :      793.82   802.29   802.66   806.28   840.15   856.42
eigval :      864.51   864.52   866.76   867.27   868.19   868.81
eigval :      873.37   873.63   874.05   874.99   881.30   891.16
eigval :      894.05   896.60   899.73   900.86   901.18   905.90
eigval :      906.37   908.20   909.58   909.96   910.12   910.56
eigval :      910.68   911.21   911.73   920.27   920.90   921.80
eigval :      922.43   922.58   923.68   923.71   924.15   924.53
eigval :      925.38   933.34   942.82   942.98   943.32   999.52
eigval :     1006.82  1086.11  1086.23  1086.76  1087.02  1098.44
eigval :     1099.32  1099.69  1099.83  1100.46  1100.74  1112.05
eigval :     1112.08  1121.90  1122.41  1126.32  1131.50  1137.72
eigval :     1137.84  1160.23  1168.32  1170.84  1171.35  1172.26
eigval :     1172.81  1176.82  1177.29  1177.71  1178.68  1179.65
eigval :     1180.53  1184.89  1189.78  1199.27  1206.20  1206.26
eigval :     1210.94  1223.00  1225.85  1226.06  1233.73  1236.07
eigval :     1243.30  1243.40  1251.69  1254.66  1256.04  1256.98
eigval :     1257.68  1258.17  1262.52  1262.89  1263.40  1267.54
eigval :     1267.66  1305.34  1307.91  1307.95  1308.14  1322.84
eigval :     1323.99  1324.02  1326.74  1328.67  1328.72  1329.36
eigval :     1329.53  1334.77  1334.88  1404.77  1405.34  1417.08
eigval :     1417.26  1419.69  1419.81  1426.54  1428.13  1431.05
eigval :     1435.25  1435.45  1442.23  1452.47  1452.57  1454.18
eigval :     1468.20  1468.25  1470.46  1473.73  1479.82  1480.02
eigval :     1480.80  1484.54  1545.21  1551.37  1551.44  1562.55
eigval :     1564.63  1575.86  1575.90  1577.03  1577.08  1587.03
eigval :     1588.46  1590.44  1590.50  1591.61  1593.78  1593.79
eigval :     1601.15  1601.29  3069.96  3070.38  3071.83  3072.24
eigval :     3078.69  3078.91  3079.22  3079.68  3080.22  3080.69
eigval :     3080.84  3081.28  3083.36  3083.90  3086.25  3086.36
eigval :     3086.37  3086.46  3086.95  3087.08  3087.13  3087.27
eigval :     3089.20  3090.99  3095.82  3095.96  3096.09  3096.25
eigval :     3099.07  3099.13  3099.28  3099.43  3103.39  3103.46
eigval :     3103.97  3104.03  3106.98  3107.32  3108.02  3108.33

   temp. (K)  partition function   enthalpy   heat capacity  entropy
                                   cal/mol     cal/K/mol   cal/K/mol   J/K/mol
 298.15  VIB  0.949E+27            31573.998    199.395    200.100
         ROT  0.142E+09              888.752      2.981     40.278
         INT  0.134E+36            32462.750    202.376    240.378
         TR   0.250E+29             1481.254      4.968     46.156
         TOT                       33944.0041   207.3444   286.5338  1198.8575

       T/K    H(0)-H(T)+PV         H(T)/Eh          T*S/Eh         G(T)/Eh
   ------------------------------------------------------------------------
    298.15    0.540932E-01    0.872246E+00    0.136141E+00    0.736105E+00
   ------------------------------------------------------------------------

         :::::::::::::::::::::::::::::::::::::::::::::::::::::
         ::                  THERMODYNAMIC                  ::
         :::::::::::::::::::::::::::::::::::::::::::::::::::::
         :: total free energy        -172.690068431582 Eh   ::
         ::.................................................::
         :: total energy             -173.426173138770 Eh   ::
         :: zero point energy           0.818152954292 Eh   ::
         :: G(RRHO) w/o ZPVE           -0.082048247103 Eh   ::
         :: G(RRHO) contrib.            0.736104707188 Eh   ::
         :::::::::::::::::::::::::::::::::::::::::::::::::::::

           -------------------------------------------------
          | TOTAL ENERGY             -173.426173138770 Eh   |
          | TOTAL ENTHALPY           -172.553926970752 Eh   |
          | TOTAL FREE ENERGY        -172.690068431582 Eh   |
          | GRADIENT NORM               0.000071504795 Eh/α |
          | HOMO-LUMO GAP               0.734576753851 eV   |
           -------------------------------------------------

 * finished run on 2025/07/18 at 20:18:58.785
