   * xtb version 6.7.1 (edcfbbe) compiled by 'albert@albert-system' on 2024-07-22

   ID    Z sym.   atoms
    1    6 C      1-6, 8, 10-17, 19-27, 29-34
    2    7 N      7, 9, 28, 35
    3    8 O      18
    4    1 H      36-53

          program call               : xtb data2507/toluene/5-DBFBI/5-DBFBI_toluene_S0_finalOpt.xtbopt.xyz --gfn 2 --uhf 2 --gbsa toluene --ohess vtight --parallel 40 --molden --ceasefiles --namespace data2507/toluene/5-DBFBI/5-DBFBI_toluene_T1_preOpt
      * Solvation model:               GBSA
        Solvent                        toluene
        Solvent mass                       9.2140E+01 g/mol
          :  Hamiltonian                  GFN2-xTB          :
 * total energy  :   -89.2013276 Eh     change       -0.6879020E-08 Eh
 * total energy  :   -89.2067558 Eh     change       -0.5428189E-02 Eh
 * total energy  :   -89.2087843 Eh     change       -0.2028517E-02 Eh
 * total energy  :   -89.2091251 Eh     change       -0.3408678E-03 Eh
 * total energy  :   -89.2096274 Eh     change       -0.5022773E-03 Eh
 * total energy  :   -89.2098582 Eh     change       -0.2308082E-03 Eh
 * total energy  :   -89.2100881 Eh     change       -0.2298524E-03 Eh
 * total energy  :   -89.2102331 Eh     change       -0.1450076E-03 Eh
 * total energy  :   -89.2103321 Eh     change       -0.9905460E-04 Eh
 * total energy  :   -89.2104208 Eh     change       -0.8867495E-04 Eh
 * total energy  :   -89.2112592 Eh     change       -0.5210849E-06 Eh
 * total energy  :   -89.2112597 Eh     change       -0.5545052E-06 Eh
 * total energy  :   -89.2112603 Eh     change       -0.5933854E-06 Eh
 * total energy  :   -89.2112609 Eh     change       -0.5754713E-06 Eh
 * total energy  :   -89.2112614 Eh     change       -0.5103870E-06 Eh
 * total energy  :   -89.2112619 Eh     change       -0.4501149E-06 Eh
 * total energy  :   -89.2112623 Eh     change       -0.4082070E-06 Eh
 * total energy  :   -89.2112627 Eh     change       -0.3931440E-06 Eh
 * total energy  :   -89.2112627 Eh     change       -0.3605408E-08 Eh
   *** GEOMETRY OPTIMIZATION CONVERGED AFTER 68 ITERATIONS ***

 final structure:
================
53
 xtb: 6.7.1 (edcfbbe)
C           -7.37711983393526        2.85270069323555        0.44553363527648
C           -7.99159071270484        1.60091435606708        0.41401309426076
C           -7.25372542907771        0.43317668419996        0.27855897719286
C           -5.88490242753369        0.56270685279810        0.17738606761058
C           -5.24158288799136        1.83788548467341        0.20747290751374
C           -6.00823984459787        2.99442544522750        0.34453316563699
N           -3.88475125504365        1.70961306782664        0.08742331690006
C           -3.68820738650199        0.40916632631949       -0.00879640559403
N           -2.60930468078931       -0.41923186811814       -0.14281597646273
C           -1.29878565530428       -0.02407896238477       -0.20889604636188
C           -0.93097215881864        1.34579931003340       -0.08001923634399
C            0.38250475015203        1.68103095472043       -0.08174048861791
C            1.40593546599247        0.66904643319147       -0.20816947725027
C            2.78879351637558        0.94920784962235       -0.20816500024453
C            3.27882810697257        2.28392703752039       -0.40486780873221
C            4.60860617486386        2.60133499131187       -0.38345328806549
C            5.52350253519338        1.57155036067916       -0.15287748688783
O            6.87594937221313        1.67865484148529       -0.08194892407954
C            7.34907406577462        0.42217031695437        0.16656575626257
C            8.67546019364598        0.06147084781215        0.32235477318842
C            8.94275962438962       -1.27482664872892        0.57489874199868
C            7.92160087148815       -2.21465106283309        0.66722390191440
C            6.59448043173389       -1.85021424397166        0.50997390185434
C            6.30315484067268       -0.51896038845384        0.25668417823341
C            5.08915779111200        0.23537361184555        0.04368292396019
C            3.75493815993709       -0.08197125994289        0.00909509375033
C            0.89046429694181       -0.66163980102515       -0.38931577250002
N           -0.36195529874981       -0.98556693188222       -0.40229569844553
C           -3.11469533040846       -1.72274431958602       -0.18253980846762
C           -2.47038207619010       -2.94408145395460       -0.30322940715956
C           -3.25031815916584       -4.08732930545546       -0.32560902833966
C           -4.63965899017029       -4.02717544967364       -0.22327504104090
C           -5.29967035048461       -2.81664599439615       -0.09609090968960
C           -4.52933454953315       -1.66841601790717       -0.07469603290280
N           -4.85139884866879       -0.33743179909400        0.03581143457581
H           -7.99267382436279        3.73340218823169        0.55299108975021
H           -9.06584357932364        1.53807441407402        0.49699051156026
H           -7.73446064803519       -0.53220712686777        0.25468434128935
H           -5.53163040290755        3.96121598902990        0.36969455015675
H           -1.71151335402722        2.07655838110342        0.05735474967055
H            0.66522294414529        2.71045637957225        0.06600235830148
H            2.56882816807431        3.06923119852717       -0.60550162261262
H            4.95183299457574        3.61169397050338       -0.54180005381571
H            9.46183541496520        0.79583400853205        0.24968738356120
H            9.96705730509282       -1.59077846599757        0.70277037678830
H            8.17006467085216       -3.24631911930925        0.86600841071195
H            5.80388619234141       -2.58089519514007        0.58359135684644
H            3.44125137179038       -1.09709457656950        0.18473515444539
H            1.56471308588778       -1.47684057367596       -0.61320232632753
H           -1.39729092385572       -2.98330362498590       -0.37949091072197
H           -2.77005714193258       -5.04838904777196       -0.42131248592814
H           -5.21277653150899       -4.94106832442795       -0.24107557474082
H           -6.37354539626766       -2.76733528153029       -0.01604649494015

          :  Hamiltonian                  GFN2-xTB          :
         :: gradient norm              0.000062009236 Eh/a0 ::
         :: HOMO-LUMO gap              0.515618533269 eV    ::
         :: SCC energy               -90.744330332549 Eh    ::
         :: -> dispersion             -0.069573925115 Eh    ::
         :: -> Gsolv                  -0.038970834558 Eh    ::
         :: repulsion energy           1.533067665957 Eh    ::

    * Orbital Energies and Occupations

         #    Occupation            Energy/Eh            Energy/eV
      -------------------------------------------------------------
         1        2.0000           -0.7425686             -20.2063
       ...           ...                  ...                  ...
        71        2.0000           -0.4321983             -11.7607
        72        2.0000           -0.4289052             -11.6711
        73        2.0000           -0.4248579             -11.5610
        74        2.0000           -0.4243040             -11.5459
        75        2.0000           -0.4157811             -11.3140
        76        2.0000           -0.4061464             -11.0518
        77        2.0000           -0.4004693             -10.8973
        78        2.0000           -0.3934756             -10.7070
        79        2.0000           -0.3931751             -10.6988
        80        2.0000           -0.3871016             -10.5336
        81        1.9972           -0.3780404             -10.2870
        82        1.0028           -0.3668555              -9.9826
        83        1.0000           -0.2748110              -7.4780 (HOMO)
        84        0.0000           -0.2558623              -6.9624 (LUMO)
        85        0.0000           -0.2510904              -6.8325
        86                         -0.2436880              -6.6311
        87                         -0.2413923              -6.5686
        88                         -0.2316489              -6.3035
        89                         -0.2233747              -6.0783
        90                         -0.2097083              -5.7065
        91                         -0.2032148              -5.5298
        92                         -0.1931338              -5.2554
        93                         -0.1644444              -4.4748
        94                         -0.1203846              -3.2758
       ...                                ...                  ...
       158                          0.7408201              20.1587
      -------------------------------------------------------------
                  HL-Gap            0.0189487 Eh            0.5156 eV

     #   Z          covCN         q      C6AA      α(0)
     1   6 C        2.920    -0.038    28.948     8.823
     2   6 C        2.925    -0.037    28.925     8.820
     3   6 C        2.906    -0.051    29.266     8.871
     4   6 C        3.060     0.033    27.195     8.552
     5   6 C        3.219     0.072    25.719     8.247
     6   6 C        2.909    -0.047    29.174     8.857
     7   7 N        1.863    -0.337    29.600     8.064
     8   6 C        3.347     0.196    21.528     7.319
     9   7 N        2.790    -0.021    21.658     6.912
    10   6 C        2.894     0.113    25.498     8.279
    11   6 C        2.904    -0.060    29.501     8.906
    12   6 C        2.919    -0.035    28.878     8.812
    13   6 C        2.964    -0.020    28.494     8.756
    14   6 C        2.965     0.002    27.970     8.675
    15   6 C        2.925    -0.040    29.003     8.832
    16   6 C        2.901    -0.051    29.259     8.869
    17   6 C        3.091     0.122    25.233     8.233
    18   8 O        1.714    -0.228    17.785     5.694
    19   6 C        3.092     0.126    25.138     8.218
    20   6 C        2.908    -0.051    29.269     8.871
    21   6 C        2.926    -0.031    28.773     8.797
    22   6 C        2.920    -0.037    28.927     8.820
    23   6 C        2.913    -0.032    28.795     8.799
    24   6 C        3.051    -0.020    28.446     8.747
    25   6 C        3.038    -0.016    28.378     8.737
    26   6 C        2.913    -0.048    29.184     8.859
    27   6 C        2.895     0.060    26.664     8.466
    28   7 N        1.835    -0.258    27.549     7.778
    29   6 C        3.086     0.038    27.054     8.526
    30   6 C        2.910    -0.041    29.029     8.835
    31   6 C        2.922    -0.038    28.939     8.822
    32   6 C        2.924    -0.032    28.796     8.800
    33   6 C        2.909    -0.046    29.153     8.854
    34   6 C        3.031     0.039    27.098     8.538
    35   7 N        2.890    -0.060    22.400     7.029
    36   1 H        0.926     0.044     2.402     2.424
    37   1 H        0.926     0.045     2.381     2.413
    38   1 H        0.926     0.040     2.449     2.447
    39   1 H        0.926     0.045     2.380     2.412
    40   1 H        0.926     0.058     2.222     2.331
    41   1 H        0.926     0.040     2.444     2.445
    42   1 H        0.926     0.047     2.357     2.401
    43   1 H        0.926     0.048     2.339     2.392
    44   1 H        0.926     0.049     2.330     2.387
    45   1 H        0.926     0.048     2.347     2.396
    46   1 H        0.926     0.046     2.376     2.411
    47   1 H        0.926     0.045     2.379     2.412
    48   1 H        0.926     0.042     2.424     2.435
    49   1 H        0.925     0.043     2.409     2.427
    50   1 H        0.926     0.074     2.045     2.236
    51   1 H        0.926     0.055     2.254     2.348
    52   1 H        0.926     0.056     2.251     2.346
    53   1 H        0.926     0.050     2.315     2.379

molecular dipole:
                 x           y           z       tot (Debye)
 q only:       -0.225      -1.404       0.094
   full:       -0.278      -1.225       0.131       3.211

 projected vibrational frequencies (cm⁻¹)
eigval :       -0.00    -0.00     0.00     0.00     0.00     0.00
eigval :        8.75    19.38    34.71    50.43    63.03    69.84
eigval :       77.06    91.66   109.60   116.64   140.97   159.09
eigval :      174.20   189.73   202.39   220.48   265.41   268.50
eigval :      300.69   308.63   317.38   338.50   354.89   375.88
eigval :      387.13   395.57   400.61   403.06   408.03   411.73
eigval :      419.26   446.70   462.27   515.56   526.55   526.96
eigval :      534.73   536.17   557.69   565.38   589.17   593.81
eigval :      594.47   606.77   630.57   633.00   644.03   652.39
eigval :      666.17   669.53   696.02   700.86   704.99   726.65
eigval :      760.45   761.35   769.96   773.55   786.79   792.53
eigval :      798.92   807.18   826.41   836.89   842.03   852.65
eigval :      863.54   868.84   876.47   884.70   891.03   896.42
eigval :      900.08   900.96   901.30   913.16   913.50   919.15
eigval :      941.62   964.18   986.66   995.38  1052.23  1054.68
eigval :     1059.77  1075.35  1095.60  1104.63  1120.68  1126.91
eigval :     1137.52  1153.82  1165.73  1167.81  1180.23  1181.46
eigval :     1186.99  1202.81  1211.57  1229.85  1230.39  1239.27
eigval :     1250.37  1255.71  1262.12  1276.52  1288.19  1307.05
eigval :     1325.95  1326.79  1330.58  1350.52  1356.72  1358.46
eigval :     1374.12  1381.47  1395.25  1410.70  1412.65  1427.65
eigval :     1442.67  1457.41  1470.57  1483.40  1488.39  1499.73
eigval :     1513.49  1555.91  1559.69  1577.21  1580.23  1584.58
eigval :     1585.03  1595.27  1610.68  3059.56  3082.72  3083.21
eigval :     3089.88  3090.12  3093.16  3093.61  3096.69  3097.74
eigval :     3099.22  3102.16  3104.84  3106.58  3109.05  3110.81
eigval :     3113.37  3115.70  3131.03

   temp. (K)  partition function   enthalpy   heat capacity  entropy
                                   cal/mol     cal/K/mol   cal/K/mol   J/K/mol
 298.15  VIB  0.240E+11            14578.184     97.855     88.573
         ROT  0.402E+08              888.752      2.981     37.777
         INT  0.967E+18            15466.936    100.836    126.350
         TR   0.925E+28             1481.254      4.968     44.185
         TOT                       16948.1903   105.8037   170.5347   713.5174

       T/K    H(0)-H(T)+PV         H(T)/Eh          T*S/Eh         G(T)/Eh
   ------------------------------------------------------------------------
    298.15    0.270087E-01    0.416441E+00    0.810266E-01    0.335415E+00
   ------------------------------------------------------------------------

         :::::::::::::::::::::::::::::::::::::::::::::::::::::
         ::                  THERMODYNAMIC                  ::
         :::::::::::::::::::::::::::::::::::::::::::::::::::::
         :: total free energy         -88.875847817703 Eh   ::
         ::.................................................::
         :: total energy              -89.211262664892 Eh   ::
         :: zero point energy           0.389432748703 Eh   ::
         :: G(RRHO) w/o ZPVE           -0.054017901514 Eh   ::
         :: G(RRHO) contrib.            0.335414847189 Eh   ::
         :::::::::::::::::::::::::::::::::::::::::::::::::::::

           -------------------------------------------------
          | TOTAL ENERGY              -89.211262664892 Eh   |
          | TOTAL ENTHALPY            -88.794821255785 Eh   |
          | TOTAL FREE ENERGY         -88.875847817703 Eh   |
          | GRADIENT NORM               0.000062011891 Eh/α |
          | HOMO-LUMO GAP               0.515619742250 eV   |
           -------------------------------------------------

 * finished run on 2025/09/04 at 14:57:14.209
