   * xtb version 6.7.1 (edcfbbe) compiled by 'albert@albert-system' on 2024-07-22

   ID    Z sym.   atoms
    1    6 C      1-6, 8, 10-17, 19-27, 29-34
    2    7 N      7, 9, 28, 35
    3    8 O      18
    4    1 H      36-53

          program call               : xtb data2507/toluene/5-DBFBI/5-DBFBI_toluene_S0_crest.xyz --gfn 2 --gbsa toluene --ohess vtight --parallel 40 --molden --ceasefiles --namespace data2507/toluene/5-DBFBI/5-DBFBI_toluene_S0_finalOpt
      * Solvation model:               GBSA
        Solvent                        toluene
        Solvent mass                       9.2140E+01 g/mol
          :  Hamiltonian                  GFN2-xTB          :
 * total energy  :   -89.3121055 Eh     change       -0.7847092E-09 Eh
 * total energy  :   -89.3121360 Eh     change       -0.3048219E-04 Eh
 * total energy  :   -89.3121450 Eh     change       -0.8998162E-05 Eh
 * total energy  :   -89.3121460 Eh     change       -0.1028403E-05 Eh
 * total energy  :   -89.3121465 Eh     change       -0.4995096E-06 Eh
 * total energy  :   -89.3121469 Eh     change       -0.4024424E-06 Eh
 * total energy  :   -89.3121473 Eh     change       -0.4379196E-06 Eh
 * total energy  :   -89.3121477 Eh     change       -0.3678879E-06 Eh
 * total energy  :   -89.3121480 Eh     change       -0.2585886E-06 Eh
 * total energy  :   -89.3121482 Eh     change       -0.1902846E-06 Eh
 * total energy  :   -89.3121483 Eh     change       -0.1854367E-06 Eh
 * total energy  :   -89.3121485 Eh     change       -0.1390188E-06 Eh
 * total energy  :   -89.3121486 Eh     change       -0.9111156E-07 Eh
   *** GEOMETRY OPTIMIZATION CONVERGED AFTER 13 ITERATIONS ***

 final structure:
================
53
 xtb: 6.7.1 (edcfbbe)
C           -7.26599513649939        2.91704674243529        0.69127211878506
C           -7.92163533883499        1.69156366956439        0.58466315206583
C           -7.22438460251695        0.51529176387609        0.37650685927680
C           -5.84843368805399        0.60674018356361        0.27945355387339
C           -5.16866495726934        1.85116617126588        0.38643978249735
C           -5.89147133350900        3.01759546552413        0.59579191744313
N           -3.80320345555402        1.67948982137869        0.25469369862733
C           -3.66223039680036        0.39551925737404        0.07602990462384
N           -2.61540446858616       -0.46437786330549       -0.12194234330850
C           -1.27788468055730       -0.09775780685701       -0.19052739175327
C           -0.89979540791073        1.23850302149373       -0.02544691510925
C            0.44123179851330        1.54711819223633       -0.09959800925477
C            1.38133626299519        0.53846335676637       -0.33710553503471
C            2.81947936541886        0.82031933303665       -0.42766166616036
C            3.26350020819239        1.98233585984785       -1.07387206108134
C            4.60568838806181        2.28996565667249       -1.18831309898211
C            5.51271941970297        1.40458803364093       -0.63328029909700
O            6.86958885482132        1.52401496505264       -0.63279498962842
C            7.34813790394548        0.42552671159219        0.02226605096238
C            8.67747323192316        0.12587520176474        0.26030154336591
C            8.94921245908867       -1.04567404539353        0.94571995178049
C            7.92857299268768       -1.88854939588666        1.37898558536152
C            6.60138598844340       -1.58763276203571        1.14061472056238
C            6.30474689185657       -0.41682195212878        0.45464104053579
C            5.09235979226045        0.22917173765746        0.02138272627844
C            3.74128121788415       -0.06422586795900        0.12180497129478
C            0.88208660502502       -0.75268356373409       -0.48827812571567
N           -0.39879096373249       -1.06588867130374       -0.41727196561648
C           -3.16362901097151       -1.74770623957261       -0.24570173419521
C           -2.56530848516464       -2.97720186283059       -0.45465749790050
C           -3.38876015829457       -4.09044202815503       -0.53215738032288
C           -4.76830656526671       -3.99009453859637       -0.40695682291791
C           -5.38104336134039       -2.76487311191453       -0.19699921130710
C           -4.56671755995556       -1.65132883626004       -0.11870262794339
N           -4.84582447504429       -0.31510280588465        0.07915006701098
H           -7.85062114859717        3.81045715342404        0.85368521420282
H           -8.99773595403585        1.65997107105974        0.66546987849879
H           -7.73418373932565       -0.43196510934201        0.29414890038738
H           -5.38471843603261        3.96607219264606        0.67852363974320
H           -1.65257572294454        1.98730535858144        0.15870436374900
H            0.76631844524592        2.56667459743523        0.04472662082200
H            2.53533204696058        2.64668360960866       -1.51358495921670
H            4.93959150366857        3.18326515498221       -1.69162515872603
H            9.46278481526897        0.78294009890021       -0.07829614319442
H            9.97589587629869       -1.31047523713607        1.14871982560971
H            8.18305227132367       -2.79314662287443        1.91079975418357
H            5.81121231898975       -2.24122998833766        1.47661478404778
H            3.41250660947616       -0.95266006843308        0.63794715610744
H            1.54124421079121       -1.58502090338989       -0.69709685024714
H           -1.49646652745465       -3.05267227227015       -0.55274060629535
H           -2.94218584357290       -5.05909047077054       -0.69483500369098
H           -5.37607283742228       -4.87914747915097       -0.47284787654635
H           -6.45116448049593       -2.68048131175827       -0.09828574365134

          :  Hamiltonian                  GFN2-xTB          :
         :: gradient norm              0.000039090951 Eh/a0 ::
         :: HOMO-LUMO gap              2.884313690897 eV    ::
         :: SCC energy               -90.865015973282 Eh    ::
         :: -> dispersion             -0.069610774589 Eh    ::
         :: -> Gsolv                  -0.039157918944 Eh    ::
         :: repulsion energy           1.552867398547 Eh    ::

    * Orbital Energies and Occupations

         #    Occupation            Energy/Eh            Energy/eV
      -------------------------------------------------------------
         1        2.0000           -0.7409632             -20.1626
       ...           ...                  ...                  ...
        70        2.0000           -0.4346521             -11.8275
        71        2.0000           -0.4335321             -11.7970
        72        2.0000           -0.4314098             -11.7393
        73        2.0000           -0.4272701             -11.6266
        74        2.0000           -0.4219835             -11.4828
        75        2.0000           -0.4167862             -11.3413
        76        2.0000           -0.4077386             -11.0951
        77        2.0000           -0.3977211             -10.8225
        78        2.0000           -0.3934972             -10.7076
        79        2.0000           -0.3928417             -10.6898
        80        2.0000           -0.3879941             -10.5579
        81        2.0000           -0.3830098             -10.4222
        82        2.0000           -0.3738069             -10.1718 (HOMO)
        83                         -0.2678104              -7.2875 (LUMO)
        84                         -0.2590845              -7.0500
        85                         -0.2544888              -6.9250
        86                         -0.2476789              -6.7397
        87                         -0.2395372              -6.5181
        88                         -0.2323778              -6.3233
        89                         -0.2206129              -6.0032
        90                         -0.2073290              -5.6417
        91                         -0.2048452              -5.5741
        92                         -0.1964560              -5.3458
        93                         -0.1637703              -4.4564
       ...                                ...                  ...
       158                          0.7363394              20.0368
      -------------------------------------------------------------
                  HL-Gap            0.1059966 Eh            2.8843 eV

     #   Z          covCN         q      C6AA      α(0)
     1   6 C        2.922    -0.040    29.006     8.832
     2   6 C        2.926    -0.041    29.020     8.834
     3   6 C        2.907    -0.052    29.284     8.873
     4   6 C        3.065     0.030    27.277     8.564
     5   6 C        3.230     0.069    25.676     8.228
     6   6 C        2.910    -0.049    29.226     8.865
     7   7 N        1.864    -0.356    30.128     8.136
     8   6 C        3.343     0.214    21.286     7.288
     9   7 N        2.797    -0.061    22.409     7.031
    10   6 C        2.903     0.153    24.694     8.148
    11   6 C        2.913    -0.067    29.666     8.931
    12   6 C        2.934    -0.019    28.472     8.751
    13   6 C        2.971    -0.005    28.142     8.702
    14   6 C        2.976     0.002    27.989     8.678
    15   6 C        2.931    -0.037    28.920     8.819
    16   6 C        2.907    -0.053    29.310     8.877
    17   6 C        3.096     0.128    25.096     8.210
    18   8 O        1.714    -0.238    17.943     5.719
    19   6 C        3.097     0.127    25.104     8.211
    20   6 C        2.908    -0.052    29.303     8.876
    21   6 C        2.926    -0.031    28.781     8.798
    22   6 C        2.920    -0.038    28.936     8.821
    23   6 C        2.913    -0.033    28.831     8.805
    24   6 C        3.054    -0.020    28.443     8.746
    25   6 C        3.052    -0.019    28.422     8.743
    26   6 C        2.918    -0.040    28.989     8.829
    27   6 C        2.913     0.054    26.797     8.489
    28   7 N        1.843    -0.262    27.664     7.795
    29   6 C        3.076     0.046    26.897     8.503
    30   6 C        2.911    -0.048    29.187     8.859
    31   6 C        2.924    -0.035    28.868     8.811
    32   6 C        2.924    -0.035    28.879     8.813
    33   6 C        2.910    -0.047    29.175     8.857
    34   6 C        3.032     0.040    27.078     8.535
    35   7 N        2.896    -0.063    22.462     7.039
    36   1 H        0.926     0.040     2.455     2.450
    37   1 H        0.926     0.041     2.441     2.443
    38   1 H        0.926     0.036     2.504     2.475
    39   1 H        0.926     0.041     2.432     2.439
    40   1 H        0.926     0.067     2.118     2.276
    41   1 H        0.926     0.052     2.292     2.367
    42   1 H        0.926     0.048     2.340     2.392
    43   1 H        0.926     0.052     2.299     2.371
    44   1 H        0.926     0.048     2.346     2.395
    45   1 H        0.926     0.047     2.362     2.403
    46   1 H        0.926     0.044     2.392     2.419
    47   1 H        0.926     0.045     2.388     2.417
    48   1 H        0.926     0.046     2.376     2.410
    49   1 H        0.925     0.047     2.357     2.401
    50   1 H        0.926     0.072     2.063     2.246
    51   1 H        0.926     0.055     2.262     2.352
    52   1 H        0.926     0.053     2.280     2.361
    53   1 H        0.926     0.048     2.342     2.393

molecular dipole:
                 x           y           z       tot (Debye)
 q only:        0.359      -1.233       0.070
   full:        0.258      -1.049       0.062       2.750

 projected vibrational frequencies (cm⁻¹)
eigval :       -0.00    -0.00    -0.00    -0.00     0.00     0.00
eigval :       18.36    24.39    33.81    55.41    60.71    74.87
eigval :       76.21   101.35   114.05   127.40   141.65   161.32
eigval :      176.74   195.48   212.97   246.68   271.35   282.55
eigval :      309.24   319.75   336.92   348.98   378.89   395.64
eigval :      401.08   407.48   413.80   414.87   418.96   431.45
eigval :      442.46   460.82   500.86   526.65   532.16   540.11
eigval :      541.52   548.88   565.76   597.04   598.99   600.82
eigval :      607.92   619.83   644.58   659.80   663.87   682.83
eigval :      690.21   702.30   710.68   717.31   725.73   731.35
eigval :      769.46   775.14   778.65   798.84   815.83   818.29
eigval :      839.49   843.92   861.62   866.74   868.77   871.90
eigval :      874.22   883.00   893.84   898.90   900.43   904.24
eigval :      908.41   916.35   918.35   919.75   923.81   929.06
eigval :      965.00   998.80  1028.34  1057.21  1060.23  1063.27
eigval :     1072.67  1088.46  1115.66  1116.79  1133.11  1139.48
eigval :     1152.43  1164.38  1170.30  1172.22  1182.41  1192.42
eigval :     1207.00  1212.00  1233.82  1240.55  1245.54  1249.84
eigval :     1254.71  1261.75  1271.01  1284.56  1292.21  1309.00
eigval :     1334.23  1336.73  1349.69  1356.49  1377.25  1384.57
eigval :     1394.88  1408.98  1416.83  1420.73  1443.60  1453.56
eigval :     1470.59  1473.63  1486.13  1495.66  1544.08  1566.36
eigval :     1572.68  1578.14  1588.87  1590.41  1597.13  1599.90
eigval :     1607.51  1613.80  1646.00  3058.49  3079.04  3082.20
eigval :     3084.23  3086.06  3089.10  3091.80  3092.38  3095.67
eigval :     3096.34  3098.14  3100.96  3102.60  3104.07  3105.84
eigval :     3110.78  3112.70  3137.82

   temp. (K)  partition function   enthalpy   heat capacity  entropy
                                   cal/mol     cal/K/mol   cal/K/mol   J/K/mol
 298.15  VIB  0.440E+10            14093.607     95.454     84.772
         ROT  0.403E+08              888.752      2.981     37.783
         INT  0.177E+18            14982.359     98.435    122.554
         TR   0.925E+28             1481.254      4.968     44.185
         TOT                       16463.6131   103.4034   166.7388   697.6353

       T/K    H(0)-H(T)+PV         H(T)/Eh          T*S/Eh         G(T)/Eh
   ------------------------------------------------------------------------
    298.15    0.262364E-01    0.420623E+00    0.792230E-01    0.341400E+00
   ------------------------------------------------------------------------

         :::::::::::::::::::::::::::::::::::::::::::::::::::::
         ::                  THERMODYNAMIC                  ::
         :::::::::::::::::::::::::::::::::::::::::::::::::::::
         :: total free energy         -88.970748666313 Eh   ::
         ::.................................................::
         :: total energy              -89.312148573301 Eh   ::
         :: zero point energy           0.394386476420 Eh   ::
         :: G(RRHO) w/o ZPVE           -0.052986569432 Eh   ::
         :: G(RRHO) contrib.            0.341399906988 Eh   ::
         :::::::::::::::::::::::::::::::::::::::::::::::::::::

           -------------------------------------------------
          | TOTAL ENERGY              -89.312148573301 Eh   |
          | TOTAL ENTHALPY            -88.891525659367 Eh   |
          | TOTAL FREE ENERGY         -88.970748666313 Eh   |
          | GRADIENT NORM               0.000039079140 Eh/α |
          | HOMO-LUMO GAP               2.884313487137 eV   |
           -------------------------------------------------

 * finished run on 2025/09/04 at 14:57:09.972
