   * xtb version 6.7.1 (edcfbbe) compiled by 'albert@albert-system' on 2024-07-22

   ID    Z sym.   atoms
    1    6 C      1-6, 8, 10-17, 19-27, 29-34
    2    7 N      7, 9, 28, 35
    3    8 O      18
    4    1 H      36-53

          program call               : xtb data2507/toluene/5-DBFBI/5-DBFBI_toluene_T1_crest.xyz --gfn 2 --uhf 2 --gbsa toluene --ohess vtight --parallel 40 --molden --ceasefiles --namespace data2507/toluene/5-DBFBI/5-DBFBI_toluene_T1_finalOpt
      * Solvation model:               GBSA
        Solvent                        toluene
        Solvent mass                       9.2140E+01 g/mol
          :  Hamiltonian                  GFN2-xTB          :
 * total energy  :   -89.2112829 Eh     change       -0.6595840E-08 Eh
 * total energy  :   -89.2113127 Eh     change       -0.2984247E-04 Eh
 * total energy  :   -89.2113220 Eh     change       -0.9257484E-05 Eh
 * total energy  :   -89.2113234 Eh     change       -0.1447917E-05 Eh
 * total energy  :   -89.2113242 Eh     change       -0.7730674E-06 Eh
 * total energy  :   -89.2113250 Eh     change       -0.8222317E-06 Eh
 * total energy  :   -89.2113261 Eh     change       -0.1117657E-05 Eh
 * total energy  :   -89.2113272 Eh     change       -0.1058407E-05 Eh
 * total energy  :   -89.2113280 Eh     change       -0.7709346E-06 Eh
 * total energy  :   -89.2113285 Eh     change       -0.4886737E-06 Eh
 * total energy  :   -89.2113292 Eh     change       -0.4048638E-06 Eh
 * total energy  :   -89.2113296 Eh     change       -0.3763609E-06 Eh
 * total energy  :   -89.2113299 Eh     change       -0.3005702E-06 Eh
 * total energy  :   -89.2113302 Eh     change       -0.2976590E-06 Eh
 * total energy  :   -89.2113305 Eh     change       -0.3224097E-06 Eh
 * total energy  :   -89.2113309 Eh     change       -0.3331498E-06 Eh
 * total energy  :   -89.2113311 Eh     change       -0.2704285E-06 Eh
 * total energy  :   -89.2113313 Eh     change       -0.1737343E-06 Eh
 * total energy  :   -89.2113313 Eh     change       -0.7862695E-08 Eh
   *** GEOMETRY OPTIMIZATION CONVERGED AFTER 20 ITERATIONS ***

 final structure:
================
53
 xtb: 6.7.1 (edcfbbe)
C           -7.41182953838815        2.81409936440062        0.24192365425946
C           -8.01590912138946        1.55693782534452        0.25436924926104
C           -7.26635514897566        0.39073854583626        0.19016390797537
C           -5.89652094466533        0.52735692312406        0.11443137116459
C           -5.26378359553544        1.80798013840605        0.09987059253575
C           -6.04208361334870        2.96280839230919        0.16543385065084
N           -3.90326136898564        1.68597755064777        0.01597978719194
C           -3.69531101756332        0.38452818764294       -0.01698087856886
N           -2.60813626826853       -0.43976641260284       -0.09695357175743
C           -1.29937993582928       -0.03742620159068       -0.15707765505194
C           -0.93882830819015        1.33326443196977       -0.01860361849658
C            0.37300368234258        1.67437154553710       -0.00880919881535
C            1.40386001089480        0.67050801862667       -0.14557483018641
C            2.78465581637475        0.95910659617062       -0.15143959801837
C            3.26503053842983        2.30527313834343       -0.29010798530786
C            4.59312850530231        2.62965142387771       -0.28250789495881
C            5.51902145365163        1.59519280748114       -0.13048590239876
O            6.87266374466138        1.70550435032704       -0.09861138947478
C            7.35808497380156        0.43976688759070        0.06460559079337
C            8.69053114712587        0.07727276338344        0.14764574098131
C            8.97110261226073       -1.26976094816236        0.31379784860110
C            7.95674858316485       -2.21806063480770        0.39375255507209
C            6.62349431579489       -1.85168597308938        0.30959684677884
C            6.31889340859341       -0.50996061092848        0.14156751568910
C            5.09571916158689        0.24849103412807        0.00986255474888
C            3.76253389981720       -0.07438878392996       -0.00349906206182
C            0.89397079651989       -0.66118523236318       -0.34044185111560
N           -0.35667860540601       -0.99158507476734       -0.35359773821141
C           -3.10244356555337       -1.74788317468317       -0.09047996016394
C           -2.44565145219463       -2.96720015483638       -0.14484353709251
C           -3.21535976882779       -4.11747535822832       -0.12759353380884
C           -4.60656502370794       -4.06528529854626       -0.05081856945491
C           -5.27897379882750       -2.85632903171301        0.00981020795921
C           -4.51890425760228       -1.70128482831456       -0.00893629250377
N           -4.85331017226169       -0.36940362607514        0.03793391564622
H           -8.03637073946489        3.69349220719642        0.29386709123675
H           -9.09132228310141        1.48867905771846        0.31495526435188
H           -7.73901414281769       -0.57887773070418        0.19903609448551
H           -5.57366206870498        3.93387989515029        0.15607045618707
H           -1.72376853456988        2.05943234001569        0.11855142939045
H            0.64722229977973        2.70421882585756        0.15054330252369
H            2.54849018528540        3.09746882459140       -0.43006825332252
H            4.92677693921937        3.64939732937235       -0.39447055217409
H            9.47142632733413        0.81838879916606        0.08494187155697
H           10.00053718898682       -1.58754510167784        0.38231564086593
H            8.21556822104217       -3.25811192474527        0.52386798070093
H            5.83844603453030       -2.58933289031117        0.37232896460169
H            3.46074750549232       -1.09965307629209        0.12744914648918
H            1.57009034933063       -1.47207954396791       -0.57301121049449
H           -1.37108032915032       -2.99968168805970       -0.20159923066519
H           -2.72547208111777       -5.07751014943127       -0.17021581924421
H           -5.17157607530316       -4.98425702048997       -0.03556793070920
H           -6.35440981387210       -2.81366927629783        0.07014604175836

          :  Hamiltonian                  GFN2-xTB          :
         :: gradient norm              0.000104966890 Eh/a0 ::
         :: HOMO-LUMO gap              0.528152191022 eV    ::
         :: SCC energy               -90.744508623673 Eh    ::
         :: -> dispersion             -0.069569740432 Eh    ::
         :: -> Gsolv                  -0.038999591680 Eh    ::
         :: repulsion energy           1.533177290709 Eh    ::

    * Orbital Energies and Occupations

         #    Occupation            Energy/Eh            Energy/eV
      -------------------------------------------------------------
         1        2.0000           -0.7424906             -20.2042
       ...           ...                  ...                  ...
        71        2.0000           -0.4321227             -11.7587
        72        2.0000           -0.4289465             -11.6722
        73        2.0000           -0.4248757             -11.5615
        74        2.0000           -0.4242945             -11.5456
        75        2.0000           -0.4158060             -11.3147
        76        2.0000           -0.4061881             -11.0529
        77        2.0000           -0.4005146             -10.8986
        78        2.0000           -0.3933817             -10.7045
        79        2.0000           -0.3932033             -10.6996
        80        2.0000           -0.3870131             -10.5312
        81        1.9978           -0.3783353             -10.2950
        82        1.0022           -0.3666951              -9.9783
        83        1.0000           -0.2751427              -7.4870 (HOMO)
        84        0.0000           -0.2557335              -6.9589 (LUMO)
        85        0.0000           -0.2512095              -6.8358
        86                         -0.2437498              -6.6328
        87                         -0.2414920              -6.5713
        88                         -0.2315956              -6.3020
        89                         -0.2234181              -6.0795
        90                         -0.2097478              -5.7075
        91                         -0.2030667              -5.5257
        92                         -0.1930138              -5.2522
        93                         -0.1643796              -4.4730
        94                         -0.1205682              -3.2808
       ...                                ...                  ...
       158                          0.7408546              20.1597
      -------------------------------------------------------------
                  HL-Gap            0.0194092 Eh            0.5282 eV

     #   Z          covCN         q      C6AA      α(0)
     1   6 C        2.920    -0.038    28.948     8.823
     2   6 C        2.926    -0.037    28.925     8.820
     3   6 C        2.906    -0.051    29.265     8.870
     4   6 C        3.060     0.033    27.196     8.552
     5   6 C        3.219     0.072    25.716     8.246
     6   6 C        2.909    -0.047    29.173     8.857
     7   7 N        1.862    -0.337    29.603     8.065
     8   6 C        3.348     0.197    21.513     7.316
     9   7 N        2.790    -0.022    21.664     6.913
    10   6 C        2.894     0.114    25.497     8.279
    11   6 C        2.904    -0.060    29.494     8.905
    12   6 C        2.919    -0.035    28.878     8.812
    13   6 C        2.963    -0.020    28.493     8.755
    14   6 C        2.965     0.002    27.970     8.675
    15   6 C        2.925    -0.041    29.007     8.832
    16   6 C        2.901    -0.051    29.261     8.869
    17   6 C        3.091     0.121    25.235     8.234
    18   8 O        1.714    -0.228    17.787     5.694
    19   6 C        3.092     0.126    25.138     8.218
    20   6 C        2.908    -0.051    29.269     8.871
    21   6 C        2.926    -0.031    28.773     8.797
    22   6 C        2.920    -0.037    28.928     8.820
    23   6 C        2.913    -0.032    28.795     8.799
    24   6 C        3.051    -0.020    28.447     8.747
    25   6 C        3.038    -0.016    28.380     8.738
    26   6 C        2.912    -0.048    29.191     8.860
    27   6 C        2.895     0.059    26.672     8.467
    28   7 N        1.835    -0.257    27.523     7.775
    29   6 C        3.087     0.038    27.052     8.526
    30   6 C        2.910    -0.041    29.025     8.834
    31   6 C        2.922    -0.038    28.936     8.821
    32   6 C        2.924    -0.032    28.797     8.800
    33   6 C        2.909    -0.046    29.151     8.853
    34   6 C        3.031     0.039    27.096     8.538
    35   7 N        2.890    -0.060    22.401     7.030
    36   1 H        0.926     0.044     2.402     2.423
    37   1 H        0.926     0.045     2.380     2.413
    38   1 H        0.926     0.040     2.449     2.447
    39   1 H        0.926     0.045     2.380     2.412
    40   1 H        0.926     0.058     2.228     2.334
    41   1 H        0.926     0.041     2.441     2.443
    42   1 H        0.926     0.047     2.358     2.401
    43   1 H        0.926     0.048     2.341     2.393
    44   1 H        0.926     0.049     2.331     2.388
    45   1 H        0.926     0.048     2.348     2.396
    46   1 H        0.926     0.045     2.377     2.411
    47   1 H        0.926     0.045     2.380     2.412
    48   1 H        0.926     0.042     2.426     2.436
    49   1 H        0.926     0.043     2.405     2.425
    50   1 H        0.926     0.073     2.051     2.240
    51   1 H        0.926     0.055     2.252     2.347
    52   1 H        0.926     0.056     2.250     2.345
    53   1 H        0.926     0.051     2.313     2.378

molecular dipole:
                 x           y           z       tot (Debye)
 q only:       -0.233      -1.418       0.120
   full:       -0.287      -1.240       0.164       3.262

 projected vibrational frequencies (cm⁻¹)
eigval :       -0.00    -0.00    -0.00    -0.00    -0.00     0.00
eigval :       11.27    20.35    34.56    52.57    58.38    76.35
eigval :       78.70    90.99   108.88   115.56   140.42   161.29
eigval :      173.76   190.24   203.16   221.06   266.82   270.31
eigval :      300.71   309.28   318.89   338.19   356.37   376.79
eigval :      389.23   394.84   400.77   405.36   407.80   412.89
eigval :      419.29   446.62   462.89   515.78   526.38   528.41
eigval :      535.93   537.44   557.82   566.69   589.07   593.64
eigval :      594.57   606.86   630.45   633.21   643.06   652.58
eigval :      665.80   671.20   699.36   700.79   707.04   726.63
eigval :      761.22   763.69   769.55   773.70   784.09   792.27
eigval :      795.34   807.23   822.04   836.74   842.07   855.40
eigval :      862.44   867.05   876.37   886.87   889.26   894.18
eigval :      899.81   900.85   900.86   912.16   917.51   920.04
eigval :      941.43   964.75   986.55   994.35  1052.09  1054.45
eigval :     1059.86  1075.78  1095.58  1104.88  1120.82  1126.48
eigval :     1136.08  1153.32  1165.05  1167.98  1178.56  1181.12
eigval :     1187.18  1202.79  1211.76  1230.09  1230.32  1239.13
eigval :     1250.92  1255.90  1263.10  1276.89  1288.19  1306.35
eigval :     1326.15  1327.13  1331.02  1350.64  1356.62  1358.62
eigval :     1374.31  1381.74  1395.96  1411.49  1412.84  1428.39
eigval :     1443.20  1457.72  1470.71  1483.80  1488.80  1500.20
eigval :     1513.98  1557.09  1560.04  1577.73  1580.98  1585.16
eigval :     1585.50  1595.68  1611.36  3061.07  3082.82  3082.85
eigval :     3088.40  3089.74  3093.32  3093.84  3097.01  3097.52
eigval :     3099.10  3101.90  3104.57  3106.96  3108.43  3110.68
eigval :     3115.22  3117.63  3130.01

   temp. (K)  partition function   enthalpy   heat capacity  entropy
                                   cal/mol     cal/K/mol   cal/K/mol   J/K/mol
 298.15  VIB  0.168E+11            14554.928     97.849     88.129
         ROT  0.401E+08              888.752      2.981     37.773
         INT  0.672E+18            15443.680    100.830    125.902
         TR   0.925E+28             1481.254      4.968     44.185
         TOT                       16924.9342   105.7982   170.0865   711.6419

       T/K    H(0)-H(T)+PV         H(T)/Eh          T*S/Eh         G(T)/Eh
   ------------------------------------------------------------------------
    298.15    0.269716E-01    0.416488E+00    0.808136E-01    0.335674E+00
   ------------------------------------------------------------------------

         :::::::::::::::::::::::::::::::::::::::::::::::::::::
         ::                  THERMODYNAMIC                  ::
         :::::::::::::::::::::::::::::::::::::::::::::::::::::
         :: total free energy         -88.875657415038 Eh   ::
         ::.................................................::
         :: total energy              -89.211331334858 Eh   ::
         :: zero point energy           0.389515901529 Eh   ::
         :: G(RRHO) w/o ZPVE           -0.053841981709 Eh   ::
         :: G(RRHO) contrib.            0.335673919820 Eh   ::
         :::::::::::::::::::::::::::::::::::::::::::::::::::::

           -------------------------------------------------
          | TOTAL ENERGY              -89.211331334858 Eh   |
          | TOTAL ENTHALPY            -88.794843833859 Eh   |
          | TOTAL FREE ENERGY         -88.875657415038 Eh   |
          | GRADIENT NORM               0.000104951324 Eh/α |
          | HOMO-LUMO GAP               0.528151171971 eV   |
           -------------------------------------------------

 * finished run on 2025/09/04 at 14:59:22.844
