   * xtb version 6.7.1 (edcfbbe) compiled by 'albert@albert-system' on 2024-07-22

   ID    Z sym.   atoms
    1    6 C      1-6, 8, 10-17, 19-27, 29-34
    2    7 N      7, 9, 28, 35
    3    8 O      18
    4    1 H      36-53

          program call               : xtb data2507/toluene/5-DBFBI/5-DBFBI.xyz --gfn 2 --gbsa toluene --ohess vtight --parallel 40 --molden --ceasefiles --namespace data2507/toluene/5-DBFBI/5-DBFBI_toluene_S0_preOpt
      * Solvation model:               GBSA
        Solvent                        toluene
        Solvent mass                       9.2140E+01 g/mol
          :  Hamiltonian                  GFN2-xTB          :
 * total energy  :   -89.2946264 Eh     change       -0.2741402E-08 Eh
 * total energy  :   -89.3051262 Eh     change       -0.1049984E-01 Eh
 * total energy  :   -89.3088046 Eh     change       -0.3678363E-02 Eh
 * total energy  :   -89.3103247 Eh     change       -0.1520112E-02 Eh
 * total energy  :   -89.3112187 Eh     change       -0.8939968E-03 Eh
 * total energy  :   -89.3115555 Eh     change       -0.3368170E-03 Eh
 * total energy  :   -89.3116897 Eh     change       -0.1342025E-03 Eh
 * total energy  :   -89.3117612 Eh     change       -0.7152616E-04 Eh
 * total energy  :   -89.3117972 Eh     change       -0.3599845E-04 Eh
 * total energy  :   -89.3118374 Eh     change       -0.4012097E-04 Eh
 * total energy  :   -89.3120903 Eh     change       -0.4583204E-06 Eh
 * total energy  :   -89.3120907 Eh     change       -0.3595069E-06 Eh
 * total energy  :   -89.3120910 Eh     change       -0.2841940E-06 Eh
 * total energy  :   -89.3120912 Eh     change       -0.2214474E-06 Eh
 * total energy  :   -89.3120914 Eh     change       -0.1927214E-06 Eh
 * total energy  :   -89.3120916 Eh     change       -0.1952582E-06 Eh
 * total energy  :   -89.3120918 Eh     change       -0.1685369E-06 Eh
 * total energy  :   -89.3120919 Eh     change       -0.1248168E-06 Eh
 * total energy  :   -89.3120920 Eh     change       -0.9332028E-07 Eh
   *** GEOMETRY OPTIMIZATION CONVERGED AFTER 61 ITERATIONS ***

 final structure:
================
53
 xtb: 6.7.1 (edcfbbe)
C           -6.28852492951872        3.91381888520851        0.42037042660275
C           -7.23299892682992        2.91995013426992        0.16916841503094
C           -6.86075132931600        1.60160818902181       -0.02191477297396
C           -5.51104896605958        1.31112229670089        0.04778436309682
C           -4.53850883816841        2.31639726973500        0.30389315950682
C           -4.93784907914096        3.63250649522447        0.49134471676344
N           -3.26599156712226        1.77630400380685        0.32694974439269
C           -3.45768058116074        0.50714166033548        0.09674988297260
N           -2.66788527935525       -0.60521797919255       -0.01864964780339
C           -1.28572699572309       -0.62529650951544        0.11292587493039
C           -0.58182692518440        0.55267477695941        0.38256656242300
C            0.78796679493003        0.47412687574709        0.51126234754776
C            1.43656494084533       -0.75789230060139        0.37334900241879
C            2.89370572065129       -0.88570252934095        0.50231494622854
C            3.44356351553651       -1.99506480085616        1.15950402720011
C            4.80802600810048       -2.15899520760839        1.30322687997811
C            5.62808137787212       -1.18249073966858        0.76569974422556
O            6.98970463944802       -1.15874658760117        0.79326165495504
C            7.36372926971779       -0.01671543893803        0.14490150654276
C            8.65903277126814        0.41957152800224       -0.06809502083734
C            8.82075141936200        1.61225159100109       -0.75179571590064
C            7.72646881645402        2.34366183951986       -1.20738034365852
C            6.43339957468653        1.90633216993493       -0.99399598027880
C            6.24680772538593        0.71170833949576       -0.31030485424291
C            5.10038131888367       -0.05771251032505        0.10003397783061
C            3.72825776160244        0.09157318179871       -0.02887585259217
C            0.62845187453552       -1.85807492590598        0.09877813072248
N           -0.68477872691084       -1.80025516576903       -0.02751931010775
C           -3.52325849013529       -1.68362034386599       -0.28005845878027
C           -3.25968403059739       -3.02563593872206       -0.48736423683982
C           -4.33704713783662       -3.86457813329736       -0.73019404303486
C           -5.64124563656891       -3.38867699472054       -0.76621962467238
C           -5.91971364668760       -2.04673829890859       -0.56041984231617
C           -4.85106232136262       -1.20480880563334       -0.31895889345849
N           -4.77965359456087        0.15214029612762       -0.08200952894185
H           -6.62441956368054        4.93022497899798        0.56325770190815
H           -8.27850684716162        3.18502885326257        0.12263203987123
H           -7.59379994249351        0.83421460322535       -0.21628853810157
H           -4.20740853727824        4.40175310967452        0.68618931559186
H           -1.11692572436043        1.48208786540802        0.48825205995891
H            1.35800037141697        1.36247800294879        0.73937606875761
H            2.77935946188397       -2.73234415949968        1.58375451219556
H            5.22401065967250       -3.01212826649065        1.81499139946377
H            9.50127117264656       -0.15233076088592        0.28771605931768
H            9.81805285699148        1.98266725181860       -0.93526891545982
H            7.89560915851823        3.26928299990706       -1.73695304146922
H            5.58659940908780        2.47407135882967       -1.34768192417134
H            3.31878678727276        0.94086216273544       -0.55339189960214
H            1.05491004058300       -2.84184006767145       -0.04674389679135
H           -2.24841124753592       -3.39239245909903       -0.45906014211246
H           -4.15333472673912       -4.91492742171336       -0.89528412773746
H           -6.45369006277029       -4.07222842921218       -0.95813588274800
H           -6.92975979309450       -1.67114594464623       -0.58768402579871

          :  Hamiltonian                  GFN2-xTB          :
         :: gradient norm              0.000028189562 Eh/a0 ::
         :: HOMO-LUMO gap              2.887786793286 eV    ::
         :: SCC energy               -90.865002577135 Eh    ::
         :: -> dispersion             -0.069597808033 Eh    ::
         :: -> Gsolv                  -0.039097442985 Eh    ::
         :: repulsion energy           1.552910589309 Eh    ::

    * Orbital Energies and Occupations

         #    Occupation            Energy/Eh            Energy/eV
      -------------------------------------------------------------
         1        2.0000           -0.7410113             -20.1639
       ...           ...                  ...                  ...
        70        2.0000           -0.4350596             -11.8386
        71        2.0000           -0.4328231             -11.7777
        72        2.0000           -0.4307285             -11.7207
        73        2.0000           -0.4279043             -11.6439
        74        2.0000           -0.4219756             -11.4825
        75        2.0000           -0.4168021             -11.3418
        76        2.0000           -0.4077484             -11.0954
        77        2.0000           -0.3977576             -10.8235
        78        2.0000           -0.3935398             -10.7088
        79        2.0000           -0.3929034             -10.6914
        80        2.0000           -0.3880003             -10.5580
        81        2.0000           -0.3829489             -10.4206
        82        2.0000           -0.3738444             -10.1728 (HOMO)
        83                         -0.2677202              -7.2850 (LUMO)
        84                         -0.2591450              -7.0517
        85                         -0.2544655              -6.9244
        86                         -0.2476579              -6.7391
        87                         -0.2395256              -6.5178
        88                         -0.2324401              -6.3250
        89                         -0.2206107              -6.0031
        90                         -0.2073884              -5.6433
        91                         -0.2048740              -5.5749
        92                         -0.1965254              -5.3477
        93                         -0.1638149              -4.4576
       ...                                ...                  ...
       158                          0.7363631              20.0375
      -------------------------------------------------------------
                  HL-Gap            0.1061242 Eh            2.8878 eV

     #   Z          covCN         q      C6AA      α(0)
     1   6 C        2.922    -0.040    29.006     8.832
     2   6 C        2.926    -0.041    29.020     8.834
     3   6 C        2.907    -0.052    29.284     8.873
     4   6 C        3.066     0.030    27.277     8.564
     5   6 C        3.231     0.069    25.675     8.227
     6   6 C        2.910    -0.049    29.226     8.865
     7   7 N        1.864    -0.356    30.128     8.136
     8   6 C        3.344     0.214    21.283     7.287
     9   7 N        2.797    -0.061    22.409     7.031
    10   6 C        2.903     0.153    24.694     8.148
    11   6 C        2.913    -0.067    29.667     8.931
    12   6 C        2.934    -0.018    28.466     8.750
    13   6 C        2.971    -0.005    28.141     8.702
    14   6 C        2.976     0.002    27.988     8.678
    15   6 C        2.931    -0.038    28.944     8.823
    16   6 C        2.907    -0.052    29.300     8.876
    17   6 C        3.096     0.128    25.097     8.210
    18   8 O        1.714    -0.238    17.939     5.719
    19   6 C        3.097     0.127    25.104     8.211
    20   6 C        2.908    -0.052    29.303     8.876
    21   6 C        2.926    -0.031    28.781     8.798
    22   6 C        2.920    -0.038    28.938     8.822
    23   6 C        2.913    -0.033    28.832     8.805
    24   6 C        3.054    -0.020    28.443     8.746
    25   6 C        3.052    -0.019    28.431     8.745
    26   6 C        2.918    -0.039    28.963     8.825
    27   6 C        2.913     0.053    26.802     8.489
    28   7 N        1.843    -0.262    27.665     7.795
    29   6 C        3.076     0.046    26.897     8.503
    30   6 C        2.911    -0.048    29.187     8.859
    31   6 C        2.924    -0.035    28.868     8.811
    32   6 C        2.924    -0.035    28.879     8.813
    33   6 C        2.910    -0.047    29.176     8.857
    34   6 C        3.033     0.040    27.078     8.535
    35   7 N        2.896    -0.063    22.461     7.039
    36   1 H        0.926     0.040     2.454     2.450
    37   1 H        0.926     0.041     2.441     2.443
    38   1 H        0.926     0.036     2.505     2.475
    39   1 H        0.926     0.041     2.431     2.438
    40   1 H        0.926     0.067     2.116     2.275
    41   1 H        0.926     0.052     2.293     2.368
    42   1 H        0.926     0.047     2.355     2.400
    43   1 H        0.926     0.052     2.295     2.369
    44   1 H        0.926     0.048     2.345     2.395
    45   1 H        0.926     0.047     2.363     2.404
    46   1 H        0.926     0.044     2.395     2.420
    47   1 H        0.926     0.044     2.393     2.419
    48   1 H        0.926     0.047     2.362     2.403
    49   1 H        0.925     0.047     2.357     2.401
    50   1 H        0.926     0.072     2.063     2.246
    51   1 H        0.926     0.055     2.263     2.353
    52   1 H        0.926     0.053     2.280     2.361
    53   1 H        0.926     0.048     2.342     2.393

molecular dipole:
                 x           y           z       tot (Debye)
 q only:        0.088      -0.574      -0.348
   full:        0.027      -0.496      -0.290       1.462

 projected vibrational frequencies (cm⁻¹)
eigval :       -0.00    -0.00    -0.00     0.00     0.00     0.00
eigval :       18.13    20.86    32.86    52.91    61.21    74.78
eigval :       78.19   103.27   112.70   124.83   135.32   163.14
eigval :      178.20   194.27   210.99   245.00   270.73   280.63
eigval :      307.51   317.56   340.44   347.26   370.77   393.75
eigval :      397.52   406.48   412.71   415.47   418.46   429.89
eigval :      441.05   460.41   501.24   526.38   533.07   539.75
eigval :      541.67   546.34   564.65   597.20   598.14   602.11
eigval :      608.02   619.96   645.58   658.57   661.55   680.86
eigval :      690.06   699.09   711.19   715.90   725.04   731.00
eigval :      768.94   774.49   776.58   799.85   815.59   818.03
eigval :      840.70   843.95   862.19   866.81   868.46   869.78
eigval :      872.03   882.77   893.27   895.44   900.16   902.12
eigval :      910.43   916.50   917.50   920.19   922.98   930.85
eigval :      964.75   998.49  1028.08  1056.21  1060.81  1062.56
eigval :     1072.47  1088.48  1115.69  1116.91  1132.58  1139.58
eigval :     1150.80  1164.17  1171.39  1173.84  1181.96  1192.56
eigval :     1207.66  1211.26  1234.43  1240.87  1242.62  1249.82
eigval :     1256.90  1262.14  1271.17  1283.89  1296.86  1307.93
eigval :     1334.40  1338.51  1350.72  1356.28  1372.05  1384.17
eigval :     1395.76  1409.33  1415.49  1420.80  1445.73  1453.25
eigval :     1470.46  1474.08  1486.32  1495.75  1543.74  1565.61
eigval :     1572.95  1579.05  1588.23  1590.57  1596.91  1599.73
eigval :     1607.65  1613.62  1645.78  3058.41  3079.51  3081.86
eigval :     3083.72  3085.73  3089.51  3092.43  3092.58  3095.43
eigval :     3095.71  3097.29  3100.90  3103.06  3104.66  3106.06
eigval :     3110.65  3112.65  3136.29

   temp. (K)  partition function   enthalpy   heat capacity  entropy
                                   cal/mol     cal/K/mol   cal/K/mol   J/K/mol
 298.15  VIB  0.574E+10            14131.015     95.485     85.117
         ROT  0.421E+08              888.752      2.981     37.869
         INT  0.242E+18            15019.767     98.466    122.986
         TR   0.925E+28             1481.254      4.968     44.185
         TOT                       16501.0213   103.4341   167.1701   699.4397

       T/K    H(0)-H(T)+PV         H(T)/Eh          T*S/Eh         G(T)/Eh
   ------------------------------------------------------------------------
    298.15    0.262961E-01    0.420543E+00    0.794279E-01    0.341116E+00
   ------------------------------------------------------------------------

         :::::::::::::::::::::::::::::::::::::::::::::::::::::
         ::                  THERMODYNAMIC                  ::
         :::::::::::::::::::::::::::::::::::::::::::::::::::::
         :: total free energy         -88.970976457225 Eh   ::
         ::.................................................::
         :: total energy              -89.312091991010 Eh   ::
         :: zero point energy           0.394247395268 Eh   ::
         :: G(RRHO) w/o ZPVE           -0.053131861483 Eh   ::
         :: G(RRHO) contrib.            0.341115533785 Eh   ::
         :::::::::::::::::::::::::::::::::::::::::::::::::::::

           -------------------------------------------------
          | TOTAL ENERGY              -89.312091991010 Eh   |
          | TOTAL ENTHALPY            -88.891548544493 Eh   |
          | TOTAL FREE ENERGY         -88.970976457225 Eh   |
          | GRADIENT NORM               0.000028196238 Eh/α |
          | HOMO-LUMO GAP               2.887786780027 eV   |
           -------------------------------------------------

 * finished run on 2025/09/04 at 14:55:19.584
