   * xtb version 6.7.1 (edcfbbe) compiled by 'albert@albert-system' on 2024-07-22

   ID    Z sym.   atoms
    1    8 O      1, 21
    2   15 P      2
    3    6 C      3-20, 22-34, 36-65
    4    7 N      35
    5    1 H      66-105

          program call               : xtb data2507/toluene/9CzFDBFSPO/9CzFDBFSPO_toluene_S0_finalOpt.xtbopt.xyz --gfn 2 --uhf 2 --gbsa toluene --ohess vtight --parallel 40 --molden --ceasefiles --namespace data2507/toluene/9CzFDBFSPO/9CzFDBFSPO_toluene_T1_preOpt
      * Solvation model:               GBSA
        Solvent                        toluene
        Solvent mass                       9.2140E+01 g/mol
          :  Hamiltonian                  GFN2-xTB          :
 * total energy  :  -164.6654415 Eh     change       -0.1048178E-07 Eh
 * total energy  :  -164.6671847 Eh     change       -0.1743137E-02 Eh
 * total energy  :  -164.6676335 Eh     change       -0.4488434E-03 Eh
 * total energy  :  -164.6677048 Eh     change       -0.7125401E-04 Eh
 * total energy  :  -164.6677645 Eh     change       -0.5976736E-04 Eh
 * total energy  :  -164.6678016 Eh     change       -0.3706425E-04 Eh
 * total energy  :  -164.6678391 Eh     change       -0.3749556E-04 Eh
 * total energy  :  -164.6678663 Eh     change       -0.2717524E-04 Eh
 * total energy  :  -164.6678808 Eh     change       -0.1449758E-04 Eh
 * total energy  :  -164.6678932 Eh     change       -0.1243715E-04 Eh
 * total energy  :  -164.6679904 Eh     change       -0.9049963E-06 Eh
 * total energy  :  -164.6679913 Eh     change       -0.8651144E-06 Eh
 * total energy  :  -164.6679922 Eh     change       -0.9326509E-06 Eh
 * total energy  :  -164.6679932 Eh     change       -0.1022978E-05 Eh
 * total energy  :  -164.6679941 Eh     change       -0.8824607E-06 Eh
 * total energy  :  -164.6679947 Eh     change       -0.5643407E-06 Eh
 * total energy  :  -164.6679951 Eh     change       -0.4060153E-06 Eh
 * total energy  :  -164.6679954 Eh     change       -0.3407289E-06 Eh
 * total energy  :  -164.6679955 Eh     change       -0.1326853E-07 Eh
   *** GEOMETRY OPTIMIZATION CONVERGED AFTER 44 ITERATIONS ***

 final structure:
================
105
 xtb: 6.7.1 (edcfbbe)
O          -10.08203963791777        0.72798434313168        1.43219564416205
P           -8.86922926879939        0.73998400949162        0.58639935521232
C           -8.83505648667708       -0.65420520893984       -0.59373093508684
C           -8.53848107785386       -1.91124492585618       -0.08483722517984
C           -8.53968551316281       -3.01462539786829       -0.91815980896271
C           -8.84460098512834       -2.86251300091898       -2.26204320736736
C           -9.16014136200547       -1.61169202647852       -2.76655198016267
C           -9.15891718542119       -0.50571017023148       -1.93317496534425
C           -8.69518625838188        2.26700916353536       -0.38057200980001
C           -9.56842847338643        3.31255136257425       -0.09801796481254
C           -9.43745152827707        4.52314264514043       -0.75190680318176
C           -8.42681773248624        4.69858221035927       -1.68590956613066
C           -7.54872447225212        3.65960920887047       -1.96371233308631
C           -7.67593298355392        2.44782725401678       -1.31344779576309
C           -7.34868958591474        0.59174060820007        1.54592455305114
C           -7.34588514672933        0.92207384150313        2.91700492458632
C           -6.18822879600093        0.86626145573520        3.66768061702485
C           -4.97377600224761        0.48296055767475        3.10932170754130
C           -4.94736114499098        0.15047437744366        1.74806257617994
C           -6.13161534556803        0.22331581807412        0.99348877038924
O           -5.92685792459114       -0.13669488734501       -0.30588785931518
C           -4.60867187814807       -0.45480783564218       -0.41354252452383
C           -3.94992315248086       -0.88979327729273       -1.54643382310640
C           -2.59950253887459       -1.16923239314188       -1.43305993556358
C           -1.90411651884279       -1.00562336800697       -0.21239548829801
C           -0.47566258219310       -1.30791793326906       -0.14560511064613
C            0.06773901320450       -2.38706152816327       -0.85088480258612
C            1.41514087328544       -2.67190242526617       -0.78697866040762
C            2.27721342405336       -1.87402263366997       -0.03914089671148
C            3.74803174551533       -2.20286966846261        0.07257751319058
C            4.62891730237879       -0.97775048521389        0.09951346083936
C            4.32420658393751        0.12412199263948       -0.70371176202205
C            5.15612604492734        1.21849695963794       -0.75247996146143
C            6.33861505880122        1.23785371127579       -0.00177754102846
N            7.18517068916146        2.33905673843377       -0.05248019208022
C            8.55698687234841        2.29400735032584       -0.22074793214761
C            9.38286680636044        1.20152109135763       -0.43255044184757
C           10.74230912800116        1.43913283814359       -0.60827060992490
C           11.25374100909356        2.73358462217892       -0.58459682545737
C           10.42883788544686        3.83425381457406       -0.40487427788735
C            9.06534318211925        3.62179987944143       -0.22965329509960
C            7.94169710090915        4.49326552048097       -0.05799970318262
C            7.80054453282627        5.87434715480548        0.03034330448348
C            6.53357882406856        6.39923752143443        0.23897354220856
C            5.41965173360178        5.57545851731954        0.37434638325016
C            5.53544487216318        4.19190243204205        0.28619219677984
C            6.79324888967960        3.66154503885611        0.04690494965333
C            6.65578812842696        0.13058643189189        0.79411006555668
C            5.81181603329135       -0.95638541627868        0.83938857557747
C            4.27007261693332       -3.08351985336836       -1.05145369206386
C            4.37857831790406       -2.79192549809298       -2.39305221890108
C            4.90521035891771       -3.75537106911515       -3.24511394146381
C            5.32661658812860       -4.98618544294912       -2.75272400590115
C            5.23229041452938       -5.28164094656189       -1.40540895839088
C            4.70078207070976       -4.32591244395484       -0.54647678201860
C            4.47466689804867       -4.35147265682472        0.88000836853936
C            4.71057224226862       -5.34403901020145        1.82489279992321
C            4.39571095242604       -5.09138593061709        3.14751770272676
C            3.84946583528157       -3.87181422638123        3.53060817946370
C            3.60621839971918       -2.87548227788847        2.59162499707448
C            3.92667980812154       -3.11568010191660        1.27443190550042
C            1.73991623082104       -0.80390598820062        0.67623861893993
C            0.39100195457606       -0.52860081109094        0.62861184612978
C           -2.58061912886012       -0.55889307337867        0.91791341730955
C           -3.94012346879816       -0.28888291316004        0.83245889376829
H           -8.30611081260867       -2.00726070116283        0.96916344770575
H           -8.30203460955639       -3.99131600567894       -0.52162593720868
H           -8.84134247001159       -3.72271858440450       -2.91551584934837
H           -9.40693487955934       -1.49530055404686       -3.81206083338828
H           -9.40600751991193        0.47468668070690       -2.31791525200327
H          -10.34960443334441        3.14781235339598        0.63166425444424
H          -10.12206247821711        5.33049955913905       -0.53488342086931
H           -8.32257172886913        5.64421418517153       -2.19720217255471
H           -6.76204492211541        3.79809318064013       -2.69168174752598
H           -6.99962664604302        1.63300859856103       -1.52579714661130
H           -8.28907220212530        1.20314152495421        3.36308135131924
H           -6.22953632678297        1.12185956687445        4.71686030872983
H           -4.07612206452207        0.43477978027133        3.70424200078582
H           -4.47631031715627       -1.00720295062991       -2.48082071491764
H           -2.05463744715100       -1.49028325401799       -2.30650078523579
H           -0.58348271817582       -3.02567920076314       -1.42875795043908
H            1.80722273752410       -3.52153542939100       -1.32664548994027
H            3.42209522898704        0.11588317440687       -1.29699192275951
H            4.92619470851908        2.04925347670834       -1.40208043358185
H            8.99033387177618        0.19771100185779       -0.47915702188802
H           11.40748339001891        0.60548389197362       -0.77191695470599
H           12.31463048260542        2.88299969536570       -0.72206405829898
H           10.83287259720862        4.83462143533087       -0.40687374045046
H            8.66003728911981        6.52083709897139       -0.05522051412973
H            6.40792140187898        7.46969271805481        0.30983294160660
H            4.45075902859082        6.01402838314239        0.55650733691453
H            4.67097130273206        3.55998840023931        0.41639827399004
H            7.54501429904229        0.15329870987864        1.40528831284007
H            6.06144726488695       -1.79764139447828        1.46813763460638
H            4.05465952693629       -1.83864747936199       -2.78363763114615
H            4.98792919744131       -3.54619418389312       -4.30152031628543
H            5.73519685608215       -5.71862106898051       -3.43421737508993
H            5.56382292577213       -6.23676298548755       -1.02586551110713
H            5.12975853963243       -6.29458296245570        1.53002764110659
H            4.57243133880478       -5.85183758366757        3.89475277017997
H            3.60994576142640       -3.69629289129616        4.56908814356028
H            3.17788573996897       -1.93283926398313        2.89797160918362
H            2.39146773272195       -0.17558540105972        1.26615830026831
H            0.00001621372570        0.31935624959086        1.17108158381873
H           -2.06943917338795       -0.45688537824916        1.86261921488727

          :  Hamiltonian                  GFN2-xTB          :
         :: gradient norm              0.000063661492 Eh/a0 ::
         :: HOMO-LUMO gap              0.013317497791 eV    ::
         :: SCC energy              -167.687875502088 Eh    ::
         :: -> dispersion             -0.155884075699 Eh    ::
         :: -> Gsolv                  -0.078711269198 Eh    ::
         :: repulsion energy           3.019880048464 Eh    ::

    * Orbital Energies and Occupations

         #    Occupation            Energy/Eh            Energy/eV
      -------------------------------------------------------------
         1        2.0000           -0.7396016             -20.1256
       ...           ...                  ...                  ...
       142        2.0000           -0.4096101             -11.1461
       143        2.0000           -0.4093888             -11.1400
       144        2.0000           -0.4044109             -11.0046
       145        2.0000           -0.4029162             -10.9639
       146        2.0000           -0.3996735             -10.8757
       147        2.0000           -0.3975982             -10.8192
       148        2.0000           -0.3942324             -10.7276
       149        2.0000           -0.3882877             -10.5658
       150        2.0000           -0.3863679             -10.5136
       151        1.9972           -0.3815226             -10.3818
       152        1.6977           -0.3767364             -10.2515
       153        1.3051           -0.3751600             -10.2086
       154        0.5392           -0.2594465              -7.0599 (HOMO)
       155        0.4112           -0.2589562              -7.0466 (LUMO)
       156        0.0494           -0.2564877              -6.9794
       157        0.0002           -0.2510450              -6.8313
       158        0.0000           -0.2461750              -6.6988
       159        0.0000           -0.2442000              -6.6450
       160                         -0.2399713              -6.5300
       161                         -0.2389527              -6.5022
       162                         -0.2350194              -6.3952
       163                         -0.2307234              -6.2783
       164                         -0.2281676              -6.2088
       165                         -0.2272551              -6.1839
       ...                                ...                  ...
       305                          1.1954232              32.5291
      -------------------------------------------------------------
                  HL-Gap            0.0004903 Eh            0.0133 eV

     #   Z          covCN         q      C6AA      α(0)
     1   8 O        0.808    -0.404    21.791     6.257
     2  15 P        4.045     0.022   159.258    22.669
     3   6 C        2.921     0.021    27.530     8.604
     4   6 C        3.019    -0.017    28.399     8.741
     5   6 C        2.919    -0.027    28.682     8.782
     6   6 C        2.920    -0.026    28.652     8.778
     7   6 C        2.920    -0.027    28.680     8.782
     8   6 C        2.976    -0.022    28.553     8.765
     9   6 C        2.919     0.011    27.779     8.643
    10   6 C        3.020    -0.022    28.539     8.763
    11   6 C        2.918    -0.030    28.744     8.792
    12   6 C        2.920    -0.030    28.755     8.794
    13   6 C        2.918    -0.029    28.736     8.791
    14   6 C        2.977    -0.028    28.703     8.788
    15   6 C        2.906    -0.024    28.609     8.770
    16   6 C        2.996    -0.040    28.985     8.831
    17   6 C        2.914    -0.040    28.999     8.831
    18   6 C        2.911    -0.051    29.277     8.873
    19   6 C        3.045    -0.030    28.704     8.787
    20   6 C        3.159     0.128    24.906     8.159
    21   8 O        1.714    -0.234    17.879     5.709
    22   6 C        3.090     0.125    25.160     8.222
    23   6 C        2.903    -0.054    29.330     8.880
    24   6 C        2.928    -0.047    29.175     8.858
    25   6 C        2.974     0.008    27.835     8.654
    26   6 C        2.976     0.014    27.701     8.633
    27   6 C        2.923    -0.032    28.805     8.801
    28   6 C        2.919    -0.033    28.834     8.806
    29   6 C        2.979     0.019    27.577     8.614
    30   6 C        3.945     0.011    20.332     6.407
    31   6 C        2.981     0.022    27.506     8.603
    32   6 C        2.921    -0.029    28.733     8.790
    33   6 C        2.918    -0.039    28.966     8.826
    34   6 C        2.913     0.056    26.740     8.479
    35   7 N        2.800     0.008    21.111     6.824
    36   6 C        3.063     0.043    26.967     8.516
    37   6 C        2.908    -0.040    29.000     8.830
    38   6 C        2.920    -0.040    29.006     8.832
    39   6 C        2.918    -0.026    28.659     8.779
    40   6 C        2.910    -0.034    28.841     8.806
    41   6 C        3.060    -0.014    28.306     8.725
    42   6 C        3.060    -0.014    28.305     8.725
    43   6 C        2.910    -0.034    28.840     8.806
    44   6 C        2.918    -0.026    28.658     8.779
    45   6 C        2.920    -0.040    29.006     8.832
    46   6 C        2.908    -0.040    29.003     8.831
    47   6 C        3.063     0.043    26.968     8.516
    48   6 C        2.919    -0.038    28.949     8.823
    49   6 C        2.920    -0.031    28.766     8.795
    50   6 C        3.058     0.003    27.907     8.663
    51   6 C        2.912    -0.035    28.876     8.812
    52   6 C        2.922    -0.036    28.890     8.814
    53   6 C        2.919    -0.033    28.820     8.803
    54   6 C        2.913    -0.036    28.890     8.814
    55   6 C        3.032    -0.001    28.024     8.683
    56   6 C        3.032    -0.001    28.019     8.682
    57   6 C        2.913    -0.036    28.899     8.815
    58   6 C        2.919    -0.033    28.812     8.802
    59   6 C        2.922    -0.035    28.883     8.813
    60   6 C        2.913    -0.035    28.877     8.812
    61   6 C        3.055     0.003    27.913     8.664
    62   6 C        2.920    -0.033    28.827     8.805
    63   6 C        2.922    -0.033    28.827     8.805
    64   6 C        2.915    -0.041    29.015     8.833
    65   6 C        3.054    -0.024    28.548     8.762
    66   1 H        0.925     0.030     2.587     2.515
    67   1 H        0.926     0.041     2.430     2.438
    68   1 H        0.926     0.046     2.371     2.408
    69   1 H        0.926     0.044     2.397     2.421
    70   1 H        0.925     0.036     2.508     2.477
    71   1 H        0.925     0.042     2.420     2.433
    72   1 H        0.926     0.039     2.468     2.457
    73   1 H        0.926     0.041     2.434     2.440
    74   1 H        0.926     0.039     2.456     2.451
    75   1 H        0.926     0.042     2.418     2.432
    76   1 H        0.926     0.037     2.494     2.470
    77   1 H        0.926     0.036     2.508     2.476
    78   1 H        0.926     0.037     2.487     2.466
    79   1 H        0.926     0.043     2.414     2.430
    80   1 H        0.926     0.045     2.377     2.411
    81   1 H        0.926     0.039     2.457     2.451
    82   1 H        0.926     0.037     2.487     2.466
    83   1 H        0.926     0.050     2.316     2.380
    84   1 H        0.926     0.053     2.281     2.362
    85   1 H        0.926     0.043     2.406     2.426
    86   1 H        0.926     0.038     2.478     2.462
    87   1 H        0.926     0.039     2.456     2.451
    88   1 H        0.926     0.040     2.454     2.450
    89   1 H        0.926     0.040     2.455     2.450
    90   1 H        0.926     0.039     2.460     2.453
    91   1 H        0.926     0.038     2.480     2.463
    92   1 H        0.926     0.044     2.399     2.422
    93   1 H        0.926     0.052     2.289     2.366
    94   1 H        0.926     0.048     2.350     2.397
    95   1 H        0.926     0.032     2.553     2.498
    96   1 H        0.926     0.031     2.568     2.506
    97   1 H        0.926     0.031     2.577     2.510
    98   1 H        0.926     0.032     2.562     2.503
    99   1 H        0.926     0.032     2.563     2.504
   100   1 H        0.926     0.030     2.580     2.512
   101   1 H        0.926     0.031     2.575     2.509
   102   1 H        0.926     0.032     2.556     2.500
   103   1 H        0.926     0.040     2.455     2.450
   104   1 H        0.926     0.040     2.446     2.446
   105   1 H        0.926     0.044     2.400     2.423

molecular dipole:
                 x           y           z       tot (Debye)
 q only:        8.779       0.307      -1.577
   full:        8.707       0.242      -1.623      22.521

 projected vibrational frequencies (cm⁻¹)
eigval :       -0.00    -0.00    -0.00     0.00     0.00     0.00
eigval :        6.56     7.97     9.72    15.42    19.17    24.80
eigval :       25.91    29.18    32.42    36.01    44.72    46.02
eigval :       53.56    54.64    65.68    67.63    69.21    83.43
eigval :       87.66    91.10    99.27   105.15   111.28   122.96
eigval :      134.15   141.74   147.52   153.28   166.19   173.15
eigval :      184.04   193.02   197.32   212.33   220.94   234.33
eigval :      236.84   243.10   249.06   259.95   261.37   267.73
eigval :      274.53   280.53   289.35   311.11   323.66   345.66
eigval :      351.24   364.80   369.26   369.62   373.99   376.39
eigval :      377.89   383.23   384.96   390.76   401.58   405.88
eigval :      409.02   411.93   415.74   433.23   443.53   444.23
eigval :      450.38   468.62   471.06   488.99   497.08   499.80
eigval :      503.53   508.82   514.20   522.71   525.86   527.48
eigval :      541.40   547.26   560.57   573.28   582.03   585.40
eigval :      585.83   587.43   588.86   595.83   600.19   607.34
eigval :      614.64   620.16   635.45   649.56   660.16   660.61
eigval :      664.03   666.65   674.66   680.83   683.93   690.44
eigval :      693.07   696.57   704.00   713.80   718.76   720.73
eigval :      738.43   740.75   743.40   749.65   752.40   754.02
eigval :      755.69   758.91   772.39   776.69   794.46   814.48
eigval :      817.35   827.04   828.19   833.52   843.58   845.92
eigval :      850.64   853.56   862.58   864.76   868.87   873.53
eigval :      878.09   881.29   881.66   884.81   887.14   890.23
eigval :      891.56   895.85   896.40   896.54   902.63   902.97
eigval :      903.01   904.80   904.92   918.55   919.16   919.95
eigval :      921.24   926.20   926.65   928.62   929.28   929.80
eigval :      933.13   934.04   968.53   969.97   974.37   991.25
eigval :     1000.24  1002.31  1008.20  1021.54  1032.62  1057.15
eigval :     1060.64  1070.09  1072.97  1075.19  1077.03  1086.48
eigval :     1088.96  1103.18  1103.69  1104.85  1106.41  1111.59
eigval :     1112.80  1123.47  1128.08  1138.50  1140.12  1144.50
eigval :     1149.20  1162.70  1167.98  1169.15  1172.23  1172.74
eigval :     1177.02  1177.51  1181.63  1182.55  1189.13  1190.05
eigval :     1192.20  1194.25  1197.33  1207.48  1208.04  1208.34
eigval :     1213.16  1220.26  1233.66  1239.79  1240.78  1244.77
eigval :     1248.85  1252.79  1261.42  1264.56  1269.58  1271.77
eigval :     1272.11  1284.25  1288.71  1317.54  1318.94  1320.49
eigval :     1323.97  1325.16  1326.13  1328.55  1334.99  1352.73
eigval :     1357.80  1374.53  1377.63  1381.83  1386.29  1400.64
eigval :     1404.53  1411.11  1411.78  1414.72  1420.07  1422.44
eigval :     1423.73  1433.71  1440.31  1441.05  1443.43  1454.43
eigval :     1455.70  1457.48  1461.08  1469.70  1475.92  1479.33
eigval :     1499.24  1500.09  1511.97  1512.06  1524.98  1528.63
eigval :     1540.31  1540.56  1546.46  1553.04  1553.47  1560.14
eigval :     1568.39  1583.54  1584.20  1585.40  1587.07  3037.99
eigval :     3060.21  3064.61  3068.19  3069.50  3069.81  3070.15
eigval :     3072.29  3073.88  3075.15  3076.79  3077.32  3077.63
eigval :     3078.80  3079.07  3079.75  3080.02  3082.84  3084.18
eigval :     3085.22  3086.47  3086.74  3088.37  3089.65  3089.96
eigval :     3090.48  3090.66  3091.04  3091.59  3091.93  3092.63
eigval :     3093.78  3095.78  3097.03  3097.56  3101.04  3101.52
eigval :     3101.97  3102.41  3104.55

   temp. (K)  partition function   enthalpy   heat capacity  entropy
                                   cal/mol     cal/K/mol   cal/K/mol   J/K/mol
 298.15  VIB  0.387E+26            31356.742    196.274    196.782
         ROT  0.308E+09              888.752      2.981     41.823
         INT  0.119E+35            32245.494    199.254    238.604
         TR   0.240E+29             1481.254      4.968     46.076
         TOT                       33726.7482   204.2226   284.6804  1191.1028

       T/K    H(0)-H(T)+PV         H(T)/Eh          T*S/Eh         G(T)/Eh
   ------------------------------------------------------------------------
    298.15    0.537470E-01    0.845787E+00    0.135261E+00    0.710527E+00
   ------------------------------------------------------------------------

         :::::::::::::::::::::::::::::::::::::::::::::::::::::
         ::                  THERMODYNAMIC                  ::
         :::::::::::::::::::::::::::::::::::::::::::::::::::::
         :: total free energy        -163.957468915653 Eh   ::
         ::.................................................::
         :: total energy             -164.667995447898 Eh   ::
         :: zero point energy           0.792040383889 Eh   ::
         :: G(RRHO) w/o ZPVE           -0.081513851643 Eh   ::
         :: G(RRHO) contrib.            0.710526532246 Eh   ::
         :::::::::::::::::::::::::::::::::::::::::::::::::::::

           -------------------------------------------------
          | TOTAL ENERGY             -164.667995447898 Eh   |
          | TOTAL ENTHALPY           -163.822208069560 Eh   |
          | TOTAL FREE ENERGY        -163.957468915653 Eh   |
          | GRADIENT NORM               0.000064905280 Eh/α |
          | HOMO-LUMO GAP               0.013340422715 eV   |
           -------------------------------------------------

 * finished run on 2025/07/17 at 14:37:35.542
