   * xtb version 6.7.1 (edcfbbe) compiled by 'albert@albert-system' on 2024-07-22

   ID    Z sym.   atoms
    1    8 O      1, 21
    2   15 P      2
    3    6 C      3-20, 22-34, 36-65
    4    7 N      35
    5    1 H      66-105

          program call               : xtb data2507/toluene/9CzFDBFSPO/9CzFDBFSPO_toluene_T1_crest.xyz --gfn 2 --uhf 2 --gbsa toluene --ohess vtight --parallel 40 --molden --ceasefiles --namespace data2507/toluene/9CzFDBFSPO/9CzFDBFSPO_toluene_T1_finalOpt
      * Solvation model:               GBSA
        Solvent                        toluene
        Solvent mass                       9.2140E+01 g/mol
          :  Hamiltonian                  GFN2-xTB          :
 * total energy  :  -164.6688948 Eh     change       -0.1379179E-06 Eh
 * total energy  :  -164.6690887 Eh     change       -0.1938978E-03 Eh
 * total energy  :  -164.6691939 Eh     change       -0.1051721E-03 Eh
 * total energy  :  -164.6692103 Eh     change       -0.1639602E-04 Eh
 * total energy  :  -164.6692292 Eh     change       -0.1890354E-04 Eh
 * total energy  :  -164.6692391 Eh     change       -0.9926072E-05 Eh
 * total energy  :  -164.6692502 Eh     change       -0.1105166E-04 Eh
 * total energy  :  -164.6692587 Eh     change       -0.8539923E-05 Eh
 * total energy  :  -164.6692650 Eh     change       -0.6257050E-05 Eh
 * total energy  :  -164.6692701 Eh     change       -0.5160298E-05 Eh
 * total energy  :  -164.6692956 Eh     change       -0.2548825E-06 Eh
 * total energy  :  -164.6692958 Eh     change       -0.2283890E-06 Eh
 * total energy  :  -164.6692960 Eh     change       -0.2227571E-06 Eh
 * total energy  :  -164.6692962 Eh     change       -0.2012301E-06 Eh
 * total energy  :  -164.6692964 Eh     change       -0.1925663E-06 Eh
 * total energy  :  -164.6692966 Eh     change       -0.1783403E-06 Eh
 * total energy  :  -164.6692967 Eh     change       -0.1459685E-06 Eh
 * total energy  :  -164.6692968 Eh     change       -0.1054650E-06 Eh
 * total energy  :  -164.6692969 Eh     change       -0.7730856E-07 Eh
   *** GEOMETRY OPTIMIZATION CONVERGED AFTER 37 ITERATIONS ***

 final structure:
================
105
 xtb: 6.7.1 (edcfbbe)
O           -9.63115163829469        2.29893173676069        1.25504616083705
P           -8.67588249859249        1.44968754602417        0.51314809465406
C           -8.74884675922433       -0.30017870634092        1.03018170784458
C           -9.46084568156009       -1.24740500113372        0.31057810666203
C           -9.52930326428962       -2.55169127243450        0.77023915395782
C           -8.89166827833485       -2.90745612972536        1.94751680206746
C           -8.19542654710236       -1.95635624513834        2.67721087126373
C           -8.12835271225324       -0.65260628668578        2.22092715417325
C           -8.94338124375691        1.48380712677596       -1.28375542064975
C           -8.21687876933946        0.68256392959029       -2.16011636602518
C           -8.43201813724206        0.78666757662377       -3.52120006971664
C           -9.36390151419234        1.68900332338208       -4.01432684445910
C          -10.08336838533783        2.49237225705590       -3.14282116622873
C           -9.87061424337907        2.39249228942992       -1.78002904370954
C           -6.95851738211768        1.94859551993931        0.77523856852062
C           -6.67641428262506        3.22840564604343        1.27105798418194
C           -5.38066170471337        3.65417175940719        1.48438917980059
C           -4.29303713545527        2.82289333395607        1.21616926550419
C           -4.54322511965978        1.54930562828080        0.72344249605277
C           -5.86816952532796        1.13113603709760        0.49656517115961
O           -5.92703506769707       -0.14047157873261        0.02058151432749
C           -4.64519231472528       -0.58497441603181       -0.06346746781968
C           -4.20317768836294       -1.83685516464763       -0.49470914606499
C           -2.85809315229562       -2.07436480791373       -0.50555357066418
C           -1.88167655989854       -1.09296986897718       -0.08148105888284
C           -0.49685671682583       -1.37618160568567       -0.10299145747189
C            0.05230280965936       -2.48273490180496       -0.83284284786304
C            1.38996850110416       -2.74534692043064       -0.85011262532697
C            2.30679996366515       -1.93958780100989       -0.14780493990787
C            3.77049427445746       -2.28295285296049       -0.08787307983912
C            4.66617288306874       -1.06901861517727       -0.01145679586863
C            4.37059400461412        0.06193131030854       -0.76745570302735
C            5.20956719886332        1.15751089058581       -0.76043528564594
C            6.36930865090945        1.14310343595120        0.01120177595573
N            7.22226395879111        2.25504617034750        0.02528250298742
C            8.58501349186243        2.22888916162362       -0.19191968269276
C            9.40934834571072        1.15649219504049       -0.50706844957765
C           10.75379903088033        1.41284216204078       -0.70348872581081
C           11.27021851391459        2.70243584093578       -0.60116708079786
C           10.44979540427807        3.77793247907885       -0.31036476323402
C            9.09758027958221        3.54507921927106       -0.10735095571687
C            7.97756687616318        4.40058353029909        0.18408949907655
C            7.84864755185566        5.76446518060167        0.40127913497048
C            6.59461450910923        6.27320042135976        0.68938582132477
C            5.48342132896366        5.43767302734192        0.77440936589085
C            5.58758523331964        4.07526085776485        0.56272318767931
C            6.83997727804247        3.56175698889387        0.25154754598960
C            6.67426802418438        0.01259211137368        0.76488648602138
C            5.83186153047714       -1.08193615429502        0.74539330444073
C            4.23364902512743       -3.15378519939064       -1.24400453540762
C            4.35725814090255       -2.81810424354227       -2.57441747773585
C            4.81375053932476       -3.78257091105119       -3.46481715499653
C            5.14294476496124       -5.05632626316023       -3.02481220630532
C            5.02674009557158       -5.39732488141231       -1.68708789467062
C            4.56965466440469       -4.43994313268118       -0.79369501275531
C            4.34927634926181       -4.50254257873735        0.63921341034209
C            4.51115136226039       -5.54418299058238        1.53997349262299
C            4.23274898513466       -5.31758205730377        2.87723537974011
C            3.79772807736618       -4.07143932577341        3.31151102639179
C            3.62377255323692       -3.02684926929332        2.41532238382393
C            3.90963306453194       -3.24329930942047        1.08263286441849
C            1.78802985078662       -0.86360081289952        0.60296524483925
C            0.45561372129744       -0.58184630203993        0.61774737660905
C           -2.37620616430234        0.17184330993371        0.36015158401116
C           -3.72125660188980        0.41985261972481        0.36073992396650
H           -9.95529951900349       -0.95890773451460       -0.60745494787725
H          -10.08001562533606       -3.29134167195475        0.20727328851766
H           -8.94107274388836       -3.92710247140997        2.30062718471112
H           -7.70456083419099       -2.23134721088094        3.59967694036644
H           -7.59310305632376        0.10584745831366        2.77946771044804
H           -7.49864257040674       -0.02129166751531       -1.76685925386231
H           -7.87281443455465        0.16142640030624       -4.20234248671476
H           -9.52930995472482        1.76496464207390       -5.07896072932070
H          -10.80951329193846        3.19489443997176       -3.52543869931134
H          -10.42100076521801        3.00341126339275       -1.07755225980339
H           -7.51661663733917        3.86888991106763        1.49969482708036
H           -5.20615773665851        4.64673451153160        1.87233224973449
H           -3.28342760688757        3.15812717337006        1.39232209469412
H           -4.91417629669985       -2.58981600798107       -0.79862568043396
H           -2.51395605544483       -3.05004834207010       -0.80340150965558
H           -0.60251710775271       -3.10337707121933       -1.42254019898985
H            1.76140729024669       -3.58143457313718       -1.42523801152000
H            3.47249254482830        0.08161201554246       -1.36723443671310
H            4.98206653377216        2.02126413849408       -1.36694034982287
H            9.01489183408694        0.15695607381703       -0.60740958647798
H           11.41677927097320        0.59567760108658       -0.94652661726284
H           12.32616353062841        2.86287098291073       -0.76062399885471
H           10.84996662003972        4.77845571285541       -0.24691868920600
H            8.71070676285689        6.41217560335817        0.35093949237767
H            6.47306336458083        7.33256921836423        0.86009346722870
H            4.52000164660232        5.86257961465866        1.01462709821104
H            4.72393151547151        3.43387454404507        0.64790389490186
H            7.56203007986061        0.00348495330397        1.37912591486192
H            6.07739143161905       -1.95258920846194        1.33501551099882
H            4.10353724788893       -1.82871547914335       -2.92471695681287
H            4.91317226193766       -3.53640899730161       -4.51196769626101
H            5.49576157694525       -5.79054759230825       -3.73485573246723
H            5.28509794807185       -6.38945164816149       -1.34773161526328
H            4.84568187419227       -6.51476493903686        1.20455656648372
H            4.35273622990609       -6.11836995153176        3.59264750416801
H            3.58919533713186       -3.91466149757994        4.35980408158107
H            3.27797642611238       -2.06385243064568        2.76026346604366
H            2.46828586944070       -0.25051234358820        1.17711983769733
H            0.10638266993984        0.23458815968620        1.22903531492099
H           -1.69534834451532        0.95270064526278        0.65529240234529

          :  Hamiltonian                  GFN2-xTB          :
         :: gradient norm              0.000051397745 Eh/a0 ::
         :: HOMO-LUMO gap              0.179351503340 eV    ::
         :: SCC energy              -167.690479256274 Eh    ::
         :: -> dispersion             -0.155932682287 Eh    ::
         :: -> Gsolv                  -0.074976333835 Eh    ::
         :: repulsion energy           3.021182335159 Eh    ::

    * Orbital Energies and Occupations

         #    Occupation            Energy/Eh            Energy/eV
      -------------------------------------------------------------
         1        2.0000           -0.7431187             -20.2213
       ...           ...                  ...                  ...
       142        2.0000           -0.4095839             -11.1453
       143        2.0000           -0.4083552             -11.1119
       144        2.0000           -0.4055394             -11.0353
       145        2.0000           -0.4027192             -10.9585
       146        2.0000           -0.4012599             -10.9188
       147        2.0000           -0.3993425             -10.8667
       148        2.0000           -0.3960175             -10.7762
       149        2.0000           -0.3918181             -10.6619
       150        2.0000           -0.3874263             -10.5424
       151        2.0000           -0.3823836             -10.4052
       152        1.8827           -0.3709519             -10.0941
       153        1.1173           -0.3671164              -9.9897
       154        0.9696           -0.2658759              -7.2349 (HOMO)
       155        0.0300           -0.2592850              -7.0555 (LUMO)
       156        0.0004           -0.2550964              -6.9415
       157        0.0001           -0.2533437              -6.8938
       158                         -0.2458546              -6.6900
       159                         -0.2414375              -6.5699
       160                         -0.2408786              -6.5546
       161                         -0.2368465              -6.4449
       162                         -0.2327169              -6.3326
       163                         -0.2310893              -6.2883
       164                         -0.2300609              -6.2603
       165                         -0.2297650              -6.2522
       ...                                ...                  ...
       305                          1.1937992              32.4849
      -------------------------------------------------------------
                  HL-Gap            0.0065909 Eh            0.1793 eV

     #   Z          covCN         q      C6AA      α(0)
     1   8 O        0.808    -0.403    21.767     6.254
     2  15 P        4.044     0.037   158.596    22.622
     3   6 C        2.921     0.019    27.575     8.611
     4   6 C        2.980    -0.022    28.542     8.763
     5   6 C        2.920    -0.027    28.667     8.780
     6   6 C        2.920    -0.025    28.636     8.775
     7   6 C        2.919    -0.027    28.669     8.780
     8   6 C        3.013    -0.017    28.413     8.744
     9   6 C        2.920     0.011    27.768     8.641
    10   6 C        2.978    -0.027    28.676     8.784
    11   6 C        2.919    -0.028    28.706     8.786
    12   6 C        2.920    -0.027    28.687     8.783
    13   6 C        2.918    -0.029    28.715     8.787
    14   6 C        3.020    -0.021    28.515     8.759
    15   6 C        2.907    -0.023    28.583     8.767
    16   6 C        3.003    -0.030    28.733     8.793
    17   6 C        2.916    -0.042    29.032     8.836
    18   6 C        2.912    -0.042    29.052     8.838
    19   6 C        3.041    -0.023    28.537     8.762
    20   6 C        3.149     0.127    24.971     8.174
    21   8 O        1.714    -0.224    17.708     5.682
    22   6 C        3.085     0.113    25.421     8.265
    23   6 C        2.900    -0.049    29.219     8.863
    24   6 C        2.923    -0.047    29.159     8.855
    25   6 C        2.966     0.003    27.954     8.672
    26   6 C        2.966     0.006    27.879     8.661
    27   6 C        2.915    -0.038    28.940     8.822
    28   6 C        2.911    -0.035    28.860     8.809
    29   6 C        2.983     0.010    27.776     8.645
    30   6 C        3.946     0.012    20.300     6.402
    31   6 C        2.978     0.020    27.560     8.611
    32   6 C        2.923    -0.030    28.743     8.792
    33   6 C        2.920    -0.041    29.017     8.834
    34   6 C        2.913     0.061    26.641     8.464
    35   7 N        2.802    -0.024    21.710     6.920
    36   6 C        3.073     0.047    26.864     8.498
    37   6 C        2.909    -0.046    29.137     8.851
    38   6 C        2.923    -0.032    28.795     8.800
    39   6 C        2.920    -0.036    28.899     8.815
    40   6 C        2.912    -0.031    28.768     8.795
    41   6 C        3.066    -0.014    28.286     8.721
    42   6 C        3.066    -0.014    28.286     8.721
    43   6 C        2.912    -0.031    28.766     8.795
    44   6 C        2.920    -0.036    28.898     8.815
    45   6 C        2.923    -0.032    28.797     8.800
    46   6 C        2.909    -0.046    29.138     8.851
    47   6 C        3.073     0.047    26.863     8.498
    48   6 C        2.921    -0.040    29.000     8.831
    49   6 C        2.923    -0.032    28.795     8.800
    50   6 C        3.055     0.004    27.878     8.659
    51   6 C        2.914    -0.035    28.863     8.810
    52   6 C        2.922    -0.033    28.834     8.806
    53   6 C        2.920    -0.033    28.817     8.803
    54   6 C        2.914    -0.035    28.876     8.812
    55   6 C        3.033     0.001    27.979     8.676
    56   6 C        3.033    -0.000    28.005     8.680
    57   6 C        2.914    -0.034    28.856     8.809
    58   6 C        2.920    -0.034    28.835     8.806
    59   6 C        2.922    -0.034    28.840     8.807
    60   6 C        2.913    -0.034    28.844     8.807
    61   6 C        3.061     0.004    27.864     8.656
    62   6 C        2.912    -0.034    28.850     8.808
    63   6 C        2.915    -0.038    28.955     8.824
    64   6 C        2.911    -0.039    28.971     8.826
    65   6 C        3.041    -0.019    28.432     8.746
    66   1 H        0.925     0.036     2.502     2.473
    67   1 H        0.926     0.045     2.388     2.416
    68   1 H        0.926     0.047     2.364     2.404
    69   1 H        0.926     0.042     2.418     2.432
    70   1 H        0.925     0.031     2.579     2.511
    71   1 H        0.926     0.046     2.377     2.411
    72   1 H        0.926     0.042     2.426     2.436
    73   1 H        0.926     0.044     2.402     2.424
    74   1 H        0.926     0.041     2.435     2.440
    75   1 H        0.925     0.045     2.380     2.412
    76   1 H        0.926     0.046     2.375     2.410
    77   1 H        0.926     0.042     2.419     2.432
    78   1 H        0.926     0.045     2.388     2.416
    79   1 H        0.926     0.042     2.417     2.431
    80   1 H        0.926     0.045     2.377     2.411
    81   1 H        0.926     0.035     2.517     2.481
    82   1 H        0.926     0.030     2.586     2.515
    83   1 H        0.926     0.047     2.354     2.399
    84   1 H        0.926     0.048     2.339     2.392
    85   1 H        0.926     0.039     2.468     2.457
    86   1 H        0.926     0.037     2.483     2.464
    87   1 H        0.926     0.036     2.503     2.474
    88   1 H        0.926     0.038     2.471     2.458
    89   1 H        0.926     0.038     2.472     2.459
    90   1 H        0.926     0.036     2.507     2.476
    91   1 H        0.926     0.037     2.485     2.465
    92   1 H        0.926     0.039     2.465     2.455
    93   1 H        0.926     0.048     2.346     2.395
    94   1 H        0.926     0.044     2.393     2.419
    95   1 H        0.926     0.033     2.547     2.496
    96   1 H        0.926     0.033     2.549     2.497
    97   1 H        0.926     0.032     2.558     2.501
    98   1 H        0.926     0.033     2.544     2.494
    99   1 H        0.926     0.034     2.536     2.491
   100   1 H        0.926     0.032     2.559     2.502
   101   1 H        0.926     0.032     2.554     2.499
   102   1 H        0.926     0.033     2.546     2.495
   103   1 H        0.926     0.033     2.543     2.494
   104   1 H        0.926     0.036     2.509     2.477
   105   1 H        0.926     0.047     2.362     2.403

molecular dipole:
                 x           y           z       tot (Debye)
 q only:        6.271      -1.138      -1.038
   full:        6.195      -1.260      -1.088      16.305

 projected vibrational frequencies (cm⁻¹)
eigval :       -0.00    -0.00    -0.00     0.00     0.00     0.00
eigval :        4.53     9.64    10.71    15.75    19.70    23.45
eigval :       27.28    31.39    34.10    37.62    40.92    44.13
eigval :       49.36    58.25    60.31    63.53    66.38    81.74
eigval :       83.42    92.45   100.44   106.47   111.98   121.21
eigval :      131.68   139.91   146.02   152.05   165.45   176.25
eigval :      179.86   190.78   198.30   210.72   216.67   234.63
eigval :      237.80   241.71   245.62   259.75   266.83   271.57
eigval :      275.44   277.78   283.00   314.43   319.42   326.24
eigval :      352.00   355.69   362.07   365.91   369.02   370.03
eigval :      384.10   385.37   389.10   391.27   407.00   408.73
eigval :      411.22   413.16   423.14   431.29   435.91   442.77
eigval :      453.21   455.96   470.82   479.21   495.01   502.65
eigval :      504.41   516.11   518.70   526.02   534.04   537.23
eigval :      539.15   541.89   563.43   570.25   579.89   585.44
eigval :      585.53   585.80   587.38   593.73   599.03   602.26
eigval :      618.51   622.46   640.57   649.40   653.57   660.92
eigval :      663.18   670.51   675.91   677.01   687.06   690.29
eigval :      691.10   710.15   715.05   718.02   722.27   733.57
eigval :      740.16   741.73   752.29   755.67   761.82   765.55
eigval :      769.35   775.94   778.25   778.86   783.86   788.46
eigval :      805.40   818.19   821.20   827.54   854.08   858.39
eigval :      865.22   866.24   871.49   871.66   877.66   879.35
eigval :      880.20   885.26   886.92   888.69   897.56   899.02
eigval :      901.27   902.39   903.14   903.43   905.03   905.39
eigval :      906.35   908.63   913.46   920.18   921.96   922.25
eigval :      923.12   926.42   927.07   927.54   929.14   933.02
eigval :      936.33   951.12   969.50   970.90   974.89   986.41
eigval :      999.86  1010.58  1011.91  1019.96  1064.88  1067.77
eigval :     1071.47  1072.66  1074.48  1077.37  1078.29  1085.40
eigval :     1102.15  1110.85  1111.87  1112.76  1115.54  1123.53
eigval :     1125.80  1137.75  1140.01  1145.77  1146.85  1167.24
eigval :     1168.84  1171.77  1174.52  1177.26  1177.79  1178.34
eigval :     1179.11  1181.53  1183.41  1189.30  1189.89  1195.21
eigval :     1199.16  1201.96  1207.18  1213.28  1219.45  1223.20
eigval :     1230.67  1235.12  1235.74  1245.30  1248.43  1253.40
eigval :     1264.48  1266.22  1268.89  1271.41  1280.79  1288.29
eigval :     1289.68  1292.89  1306.17  1315.35  1318.55  1321.88
eigval :     1322.40  1326.28  1336.79  1344.11  1354.42  1358.45
eigval :     1360.26  1364.82  1368.48  1378.97  1404.57  1406.19
eigval :     1412.71  1414.50  1420.35  1421.10  1423.60  1424.21
eigval :     1428.77  1434.09  1446.54  1455.10  1456.30  1462.30
eigval :     1463.45  1468.54  1475.16  1481.81  1482.42  1500.89
eigval :     1521.79  1553.99  1558.79  1563.31  1564.07  1566.39
eigval :     1567.41  1571.38  1579.46  1581.45  1581.89  1584.26
eigval :     1586.18  1587.20  1588.78  1594.14  1604.52  3040.77
eigval :     3058.09  3066.43  3068.36  3070.09  3071.10  3072.30
eigval :     3073.02  3073.74  3074.01  3076.55  3077.05  3077.41
eigval :     3078.01  3078.08  3078.38  3080.94  3083.68  3083.70
eigval :     3084.36  3084.46  3084.61  3087.26  3087.83  3088.27
eigval :     3090.09  3090.43  3091.17  3091.61  3092.28  3094.54
eigval :     3094.96  3096.99  3097.83  3098.24  3099.56  3100.51
eigval :     3103.34  3112.39  3121.40

   temp. (K)  partition function   enthalpy   heat capacity  entropy
                                   cal/mol     cal/K/mol   cal/K/mol   J/K/mol
 298.15  VIB  0.513E+26            31342.404    195.244    197.039
         ROT  0.308E+09              888.752      2.981     41.820
         INT  0.158E+35            32231.156    198.225    238.859
         TR   0.240E+29             1481.254      4.968     46.076
         TOT                       33712.4103   203.1934   284.9352  1192.1689

       T/K    H(0)-H(T)+PV         H(T)/Eh          T*S/Eh         G(T)/Eh
   ------------------------------------------------------------------------
    298.15    0.537241E-01    0.848945E+00    0.135382E+00    0.713563E+00
   ------------------------------------------------------------------------

         :::::::::::::::::::::::::::::::::::::::::::::::::::::
         ::                  THERMODYNAMIC                  ::
         :::::::::::::::::::::::::::::::::::::::::::::::::::::
         :: total free energy        -163.955733601872 Eh   ::
         ::.................................................::
         :: total energy             -164.669296922489 Eh   ::
         :: zero point energy           0.795221081710 Eh   ::
         :: G(RRHO) w/o ZPVE           -0.081657761093 Eh   ::
         :: G(RRHO) contrib.            0.713563320617 Eh   ::
         :::::::::::::::::::::::::::::::::::::::::::::::::::::

           -------------------------------------------------
          | TOTAL ENERGY             -164.669296922489 Eh   |
          | TOTAL ENTHALPY           -163.820351695240 Eh   |
          | TOTAL FREE ENERGY        -163.955733601872 Eh   |
          | GRADIENT NORM               0.000053710207 Eh/α |
          | HOMO-LUMO GAP               0.179347555736 eV   |
           -------------------------------------------------

 * finished run on 2025/07/17 at 14:57:08.827
