   * xtb version 6.7.1 (edcfbbe) compiled by 'albert@albert-system' on 2024-07-22

   ID    Z sym.   atoms
    1    8 O      1, 21
    2   15 P      2
    3    6 C      3-20, 22-34, 36-65
    4    7 N      35
    5    1 H      66-105

          program call               : xtb data2507/toluene/9CzFDBFSPO/9CzFDBFSPO_toluene_S0_crest.xyz --gfn 2 --gbsa toluene --ohess vtight --parallel 40 --molden --ceasefiles --namespace data2507/toluene/9CzFDBFSPO/9CzFDBFSPO_toluene_S0_finalOpt
      * Solvation model:               GBSA
        Solvent                        toluene
        Solvent mass                       9.2140E+01 g/mol
          :  Hamiltonian                  GFN2-xTB          :
 * total energy  :  -164.7788739 Eh     change       -0.3192042E-08 Eh
 * total energy  :  -164.7789778 Eh     change       -0.1038627E-03 Eh
 * total energy  :  -164.7790204 Eh     change       -0.4262075E-04 Eh
 * total energy  :  -164.7790302 Eh     change       -0.9835574E-05 Eh
 * total energy  :  -164.7790428 Eh     change       -0.1256727E-04 Eh
 * total energy  :  -164.7790520 Eh     change       -0.9220543E-05 Eh
 * total energy  :  -164.7790575 Eh     change       -0.5437683E-05 Eh
 * total energy  :  -164.7790614 Eh     change       -0.3994516E-05 Eh
 * total energy  :  -164.7790646 Eh     change       -0.3165250E-05 Eh
 * total energy  :  -164.7790671 Eh     change       -0.2512897E-05 Eh
 * total energy  :  -164.7790986 Eh     change       -0.5058546E-06 Eh
 * total energy  :  -164.7790990 Eh     change       -0.4762043E-06 Eh
 * total energy  :  -164.7790994 Eh     change       -0.3933371E-06 Eh
 * total energy  :  -164.7790998 Eh     change       -0.3699725E-06 Eh
 * total energy  :  -164.7791003 Eh     change       -0.4680961E-06 Eh
 * total energy  :  -164.7791009 Eh     change       -0.6319597E-06 Eh
 * total energy  :  -164.7791016 Eh     change       -0.7245024E-06 Eh
 * total energy  :  -164.7791022 Eh     change       -0.6025758E-06 Eh
 * total energy  :  -164.7791022 Eh     change       -0.6734354E-08 Eh
   *** GEOMETRY OPTIMIZATION CONVERGED AFTER 44 ITERATIONS ***

 final structure:
================
105
 xtb: 6.7.1 (edcfbbe)
O          -10.05549916370401        0.66666832944070        1.47470345589596
P           -8.86560923449837        0.72696234131049        0.60314982828215
C           -8.80375469236983       -0.63328201089785       -0.60921987783954
C           -8.51020046040267       -1.90070560562498       -0.12315980492196
C           -8.48658520707206       -2.98321455243792       -0.98302953309549
C           -8.76537514071335       -2.80034662956279       -2.32882309393914
C           -9.07715738809009       -1.53944189247093       -2.81018422932411
C           -9.09889631533173       -0.45305997633094       -1.95159520780502
C           -8.72125452294788        2.29174622698624       -0.31070476353794
C           -9.66355865348881        3.27717775601568       -0.05061603345324
C           -9.58412992103707        4.49861101190167       -0.69701538099135
C           -8.56068089386040        4.73406345495544       -1.60079142193671
C           -7.61831605998719        3.74988463333867       -1.86055806135718
C           -7.69384156584987        2.52820842024601       -1.21714246426006
C           -7.31688019354182        0.57363749117363        1.54597190319288
C           -7.32459185393443        0.82846516971473        2.91085646631611
C           -6.16938722201382        0.72292713335810        3.67761803536733
C           -4.96536706503665        0.35236844919373        3.10667934779096
C           -4.93160525512408        0.08640530151420        1.74342242626980
C           -6.10720636925102        0.20663983120597        0.97698837853976
O           -5.89346029748412       -0.09107353293053       -0.33040411122100
C           -4.57105762874040       -0.41905114073117       -0.43439830450182
C           -3.90409008241428       -0.79968516734949       -1.58439179469126
C           -2.55747580942270       -1.08855457312490       -1.46875096690873
C           -1.87825362681055       -0.99894042960899       -0.24630690349851
C           -0.44122057042783       -1.31045057122665       -0.18105590965077
C            0.08488898670611       -2.40834760469331       -0.85644604643178
C            1.43463021778271       -2.69887771880586       -0.79458084601068
C            2.30179454126041       -1.89152533832890       -0.06950247999644
C            3.77430884692782       -2.23111216982724        0.04909559404281
C            4.65651224943747       -0.99878314074722        0.05930020785766
C            4.36429119506875        0.07683339880359       -0.77326320241570
C            5.19332452954594        1.18009437579661       -0.82379662683150
C            6.33724447650400        1.23079460797478       -0.03322213738335
N            7.17598294586183        2.35629781891399       -0.07341911767426
C            8.53915160602662        2.34183740934550       -0.28761152501025
C            9.38099298348432        1.27011708769350       -0.55133020737048
C           10.72087082538574        1.53737373215482       -0.75754546771661
C           11.21902155015075        2.83831415718983       -0.71179032137554
C           10.38330436068536        3.91048594856158       -0.46979492970691
C            9.03174346650920        3.66759120376716       -0.25925899424674
C            7.90132940186187        4.51692372549904       -0.00677307400822
C            7.75094559754683        5.88919951835632        0.14948057956740
C            6.49197086785435        6.39182959768403        0.41204971308297
C            5.39215264730340        5.54383153815534        0.53041163936428
C            5.51616803473269        4.17597639871002        0.37928183129110
C            6.77586492259282        3.66618548930031        0.09607097279325
C            6.64006407865064        0.15553115096109        0.79518771758790
C            5.81109118181983       -0.94997206868401        0.83040540737760
C            4.27769997520849       -3.14581894381586       -1.05326767001221
C            4.38353551717737       -2.88954542251033       -2.40389177386301
C            4.89395667525263       -3.88031050951829       -3.23256774245265
C            5.29487914817898       -5.10289277081175       -2.71481771694524
C            5.19880011234267       -5.36316384413351       -1.35700586445382
C            4.68914752436446       -4.37833778825786       -0.52623168121793
C            4.47312941749875       -4.36308236348636        0.91192543284236
C            4.70095365850673       -5.33389919829629        1.87385811525925
C            4.39588060763020       -5.04527549111133        3.19450523229247
C            3.86994803904254       -3.81145258257175        3.54725217717662
C            3.63907940184673       -2.83533126967017        2.58674801294821
C            3.94823427266736       -3.11366198067025        1.27218854486882
C            1.77700412298426       -0.80142477532309        0.61682572231913
C            0.42730945952458       -0.51500104440573        0.56267400878476
C           -2.56206565361077       -0.61378082771607        0.90082377273771
C           -3.91536508747176       -0.32533224333935        0.80809633433002
H           -8.30111953842363       -2.02340098699035        0.93263178770750
H           -8.25044139522147       -3.96766507080800       -0.60577851068919
H           -8.74379952178619       -3.64447528672376       -3.00234613981123
H           -9.30319557982745       -1.40000607823951       -3.85735637519760
H           -9.34113535631368        0.53432862524158       -2.32005032229840
H          -10.45199751049512        3.06519868069173        0.65841103717576
H          -10.31868739386014        5.26461752189977       -0.49579321060753
H           -8.49635544785385        5.68681088215627       -2.10554106916809
H           -6.82271478744254        3.93638398345469       -2.56721220587673
H           -6.96911496102475        1.75327247645550       -1.41703444971032
H           -8.26592448503233        1.10204587030012        3.36637231061008
H           -6.21929224645630        0.92975287980618        4.73601365266171
H           -4.07082180408738        0.26510877375538        3.70343881245085
H           -4.42098577371610       -0.86580426631950       -2.52860850058525
H           -2.00494000315724       -1.37435849980483       -2.35092166430213
H           -0.57309335131089       -3.05514153779386       -1.41826416713159
H            1.81691208429418       -3.56345991601204       -1.31728125387333
H            3.47613647012684        0.05435263034023       -1.38724905343043
H            4.96435016093860        2.00349467370522       -1.48406084280615
H            9.00143426056584        0.26061068622804       -0.60400692279971
H           11.39700644219792        0.71993507477087       -0.96269312881108
H           12.27345082087168        3.00602105785523       -0.87647545805184
H           10.76777229837629        4.91949261089153       -0.44803134530591
H            8.60491371212554        6.54562872155822        0.07089685629434
H            6.35369907395250        7.45611573293965        0.53545637065277
H            4.42163539628767        5.96558337277368        0.74885592851140
H            4.66091989894697        3.52603875381970        0.48734642111073
H            7.52129853901093        0.19314988428814        1.41810723223117
H            6.06219168619439       -1.77914115434585        1.47501356945778
H            4.07352137487246       -1.94029652528833       -2.81478637238260
H            4.97917235722317       -3.69576273496335       -4.29371156831610
H            5.68901677056969       -5.85967454636278       -3.37789662085820
H            5.51467452704110       -6.31485075148945       -0.95593450754997
H            5.10746243555454       -6.29663667709598        1.60141020739959
H            4.56739394515073       -5.79000968591177        3.95844773665913
H            3.63689287080014       -3.60657394231702        4.58216918950400
H            3.22930814574600       -1.87720219397807        2.86964772688372
H            2.43352907198878       -0.16241494466974        1.18957006329288
H            0.04405764427029        0.34914916650280        1.08570383234822
H           -2.05518924038437       -0.55929510070212        1.85163780738683

          :  Hamiltonian                  GFN2-xTB          :
         :: gradient norm              0.000079906467 Eh/a0 ::
         :: HOMO-LUMO gap              2.518696260642 eV    ::
         :: SCC energy              -167.823115892640 Eh    ::
         :: -> dispersion             -0.155925205788 Eh    ::
         :: -> Gsolv                  -0.072033632237 Eh    ::
         :: repulsion energy           3.044013646180 Eh    ::

    * Orbital Energies and Occupations

         #    Occupation            Energy/Eh            Energy/eV
      -------------------------------------------------------------
         1        2.0000           -0.7476602             -20.3449
       ...           ...                  ...                  ...
       141        2.0000           -0.4113008             -11.1921
       142        2.0000           -0.4079757             -11.1016
       143        2.0000           -0.4068485             -11.0709
       144        2.0000           -0.4063185             -11.0565
       145        2.0000           -0.4042957             -11.0014
       146        2.0000           -0.4014879             -10.9250
       147        2.0000           -0.3994607             -10.8699
       148        2.0000           -0.3977070             -10.8222
       149        2.0000           -0.3965212             -10.7899
       150        2.0000           -0.3844761             -10.4621
       151        2.0000           -0.3798358             -10.3359
       152        2.0000           -0.3776324             -10.2759
       153        2.0000           -0.3608317              -9.8187 (HOMO)
       154                         -0.2682714              -7.3000 (LUMO)
       155                         -0.2549613              -6.9378
       156                         -0.2534230              -6.8960
       157                         -0.2484435              -6.7605
       158                         -0.2450916              -6.6693
       159                         -0.2446448              -6.6571
       160                         -0.2363685              -6.4319
       161                         -0.2353711              -6.4048
       162                         -0.2345374              -6.3821
       163                         -0.2343643              -6.3774
       164                         -0.2310556              -6.2873
       ...                                ...                  ...
       305                          1.1902244              32.3877
      -------------------------------------------------------------
                  HL-Gap            0.0925604 Eh            2.5187 eV

     #   Z          covCN         q      C6AA      α(0)
     1   8 O        0.808    -0.402    21.736     6.250
     2  15 P        4.052     0.070   157.169    22.520
     3   6 C        2.921     0.017    27.623     8.619
     4   6 C        3.023    -0.017    28.407     8.743
     5   6 C        2.919    -0.026    28.648     8.777
     6   6 C        2.920    -0.024    28.609     8.771
     7   6 C        2.920    -0.026    28.644     8.777
     8   6 C        2.976    -0.022    28.547     8.764
     9   6 C        2.921     0.011    27.778     8.643
    10   6 C        3.021    -0.020    28.474     8.753
    11   6 C        2.918    -0.027    28.665     8.780
    12   6 C        2.920    -0.023    28.589     8.768
    13   6 C        2.919    -0.027    28.666     8.780
    14   6 C        2.979    -0.026    28.639     8.778
    15   6 C        2.908    -0.017    28.445     8.745
    16   6 C        3.009    -0.025    28.613     8.775
    17   6 C        2.919    -0.037    28.931     8.820
    18   6 C        2.913    -0.030    28.753     8.793
    19   6 C        3.053    -0.020    28.449     8.747
    20   6 C        3.156     0.132    24.844     8.150
    21   8 O        1.714    -0.231    17.824     5.700
    22   6 C        3.102     0.125    25.133     8.215
    23   6 C        2.907    -0.051    29.276     8.872
    24   6 C        2.932    -0.035    28.875     8.813
    25   6 C        2.977     0.007    27.864     8.659
    26   6 C        2.977     0.008    27.832     8.654
    27   6 C        2.924    -0.035    28.876     8.812
    28   6 C        2.922    -0.036    28.888     8.814
    29   6 C        2.979     0.016    27.646     8.625
    30   6 C        3.946     0.008    20.373     6.414
    31   6 C        2.979     0.016    27.653     8.626
    32   6 C        2.924    -0.033    28.818     8.803
    33   6 C        2.921    -0.043    29.075     8.842
    34   6 C        2.912     0.061    26.627     8.462
    35   7 N        2.802    -0.047    22.146     6.989
    36   6 C        3.076     0.048    26.853     8.496
    37   6 C        2.909    -0.052    29.290     8.874
    38   6 C        2.924    -0.035    28.878     8.813
    39   6 C        2.919    -0.043    29.071     8.842
    40   6 C        2.912    -0.035    28.876     8.812
    41   6 C        3.067    -0.019    28.417     8.741
    42   6 C        3.067    -0.019    28.416     8.741
    43   6 C        2.912    -0.035    28.874     8.811
    44   6 C        2.919    -0.043    29.073     8.842
    45   6 C        2.924    -0.035    28.881     8.813
    46   6 C        2.909    -0.052    29.293     8.875
    47   6 C        3.076     0.048    26.852     8.496
    48   6 C        2.921    -0.043    29.069     8.842
    49   6 C        2.923    -0.034    28.859     8.810
    50   6 C        3.056     0.004    27.890     8.661
    51   6 C        2.914    -0.035    28.860     8.809
    52   6 C        2.922    -0.033    28.824     8.804
    53   6 C        2.921    -0.033    28.832     8.805
    54   6 C        2.914    -0.035    28.867     8.810
    55   6 C        3.034     0.000    27.988     8.677
    56   6 C        3.034     0.000    27.989     8.678
    57   6 C        2.914    -0.035    28.867     8.810
    58   6 C        2.921    -0.033    28.831     8.805
    59   6 C        2.922    -0.033    28.824     8.804
    60   6 C        2.914    -0.034    28.858     8.809
    61   6 C        3.056     0.003    27.892     8.661
    62   6 C        2.922    -0.035    28.860     8.810
    63   6 C        2.924    -0.035    28.881     8.813
    64   6 C        2.918    -0.038    28.935     8.821
    65   6 C        3.053    -0.019    28.419     8.743
    66   1 H        0.925     0.033     2.542     2.493
    67   1 H        0.926     0.044     2.396     2.421
    68   1 H        0.926     0.048     2.346     2.395
    69   1 H        0.926     0.047     2.363     2.404
    70   1 H        0.925     0.039     2.458     2.452
    71   1 H        0.925     0.050     2.320     2.382
    72   1 H        0.926     0.045     2.382     2.413
    73   1 H        0.926     0.048     2.349     2.397
    74   1 H        0.926     0.046     2.369     2.407
    75   1 H        0.926     0.051     2.309     2.376
    76   1 H        0.926     0.055     2.253     2.347
    77   1 H        0.926     0.051     2.302     2.373
    78   1 H        0.926     0.055     2.258     2.350
    79   1 H        0.926     0.050     2.319     2.381
    80   1 H        0.926     0.051     2.306     2.375
    81   1 H        0.926     0.036     2.507     2.476
    82   1 H        0.926     0.032     2.552     2.498
    83   1 H        0.926     0.041     2.429     2.437
    84   1 H        0.926     0.042     2.419     2.432
    85   1 H        0.926     0.029     2.602     2.523
    86   1 H        0.926     0.029     2.600     2.521
    87   1 H        0.926     0.027     2.631     2.536
    88   1 H        0.926     0.029     2.597     2.520
    89   1 H        0.926     0.029     2.600     2.521
    90   1 H        0.926     0.027     2.632     2.537
    91   1 H        0.926     0.029     2.594     2.519
    92   1 H        0.926     0.030     2.589     2.516
    93   1 H        0.926     0.041     2.435     2.440
    94   1 H        0.926     0.038     2.473     2.459
    95   1 H        0.926     0.032     2.557     2.500
    96   1 H        0.926     0.032     2.555     2.500
    97   1 H        0.926     0.032     2.562     2.503
    98   1 H        0.926     0.033     2.548     2.496
    99   1 H        0.926     0.033     2.548     2.496
   100   1 H        0.926     0.032     2.563     2.503
   101   1 H        0.926     0.032     2.556     2.500
   102   1 H        0.926     0.032     2.556     2.500
   103   1 H        0.926     0.034     2.529     2.487
   104   1 H        0.926     0.036     2.500     2.473
   105   1 H        0.926     0.049     2.337     2.391

molecular dipole:
                 x           y           z       tot (Debye)
 q only:        1.681      -0.531      -1.075
   full:        1.712      -0.574      -1.125       5.408

 projected vibrational frequencies (cm⁻¹)
eigval :       -0.00    -0.00    -0.00     0.00     0.00     0.00
eigval :        6.76     8.29    12.69    15.01    17.09    25.60
eigval :       27.70    28.85    35.13    38.47    44.98    46.42
eigval :       52.91    53.97    66.36    66.92    69.90    86.81
eigval :       88.52    91.74   102.08   106.60   117.67   125.22
eigval :      137.82   144.99   150.76   154.82   169.98   174.57
eigval :      184.90   196.47   199.08   220.71   223.04   236.33
eigval :      238.12   243.99   251.81   264.50   270.06   270.85
eigval :      275.57   288.28   302.38   313.83   325.76   351.01
eigval :      358.59   363.84   368.18   377.96   385.57   386.60
eigval :      390.34   391.02   396.91   404.32   406.67   412.61
eigval :      414.84   423.70   427.19   436.73   449.78   457.89
eigval :      465.01   476.33   481.50   497.56   505.89   516.29
eigval :      519.19   521.93   532.98   535.00   539.98   541.59
eigval :      545.39   546.99   575.74   581.70   585.24   586.12
eigval :      588.25   595.24   596.00   603.33   612.28   618.52
eigval :      622.45   627.56   651.54   657.89   662.48   672.64
eigval :      673.82   679.97   686.99   692.03   695.13   703.82
eigval :      708.17   713.33   721.20   725.42   729.50   742.17
eigval :      743.68   749.57   754.88   758.37   769.45   771.95
eigval :      780.42   786.89   797.91   806.20   818.78   830.01
eigval :      835.68   844.87   866.63   869.91   873.67   877.89
eigval :      878.92   880.13   880.31   881.66   882.66   882.94
eigval :      891.30   896.29   900.92   901.69   903.01   903.40
eigval :      905.99   907.30   910.99   911.57   913.18   918.97
eigval :      919.99   921.74   922.25   927.24   928.92   929.03
eigval :      930.09   930.60   932.80   933.71   934.56   935.19
eigval :      936.52   955.40   971.32   975.65  1006.61  1009.54
eigval :     1011.09  1024.66  1035.19  1068.67  1071.61  1073.28
eigval :     1075.29  1075.94  1077.14  1080.32  1092.74  1107.20
eigval :     1111.22  1112.96  1117.42  1120.29  1129.04  1133.96
eigval :     1139.43  1143.33  1146.35  1151.82  1161.15  1173.59
eigval :     1175.46  1176.17  1176.23  1177.01  1177.57  1181.74
eigval :     1183.04  1184.52  1188.33  1190.84  1201.16  1202.89
eigval :     1204.01  1206.62  1218.98  1222.69  1226.33  1234.49
eigval :     1235.45  1239.98  1242.40  1248.98  1254.36  1262.18
eigval :     1268.56  1269.91  1271.44  1275.71  1284.18  1299.84
eigval :     1303.20  1306.34  1313.43  1318.46  1319.96  1320.69
eigval :     1325.09  1337.60  1351.57  1355.53  1360.90  1364.17
eigval :     1365.71  1384.63  1398.95  1406.31  1416.12  1420.60
eigval :     1423.49  1427.09  1427.51  1429.65  1430.99  1449.76
eigval :     1454.34  1455.11  1460.68  1470.72  1471.24  1474.85
eigval :     1487.45  1490.68  1499.24  1561.85  1566.08  1569.66
eigval :     1574.34  1580.48  1583.75  1584.10  1584.52  1585.04
eigval :     1586.78  1587.40  1588.45  1592.72  1596.88  1597.12
eigval :     1597.84  1602.19  1602.83  1611.81  1613.19  3042.55
eigval :     3063.40  3068.89  3069.29  3069.89  3070.25  3070.66
eigval :     3071.71  3073.83  3074.87  3075.21  3075.50  3075.68
eigval :     3076.07  3076.35  3076.68  3080.04  3080.38  3080.60
eigval :     3082.96  3083.24  3083.42  3084.13  3084.48  3085.46
eigval :     3088.00  3089.00  3089.67  3090.18  3090.37  3090.88
eigval :     3091.19  3091.50  3092.17  3092.67  3096.46  3096.65
eigval :     3097.75  3100.99  3104.45

   temp. (K)  partition function   enthalpy   heat capacity  entropy
                                   cal/mol     cal/K/mol   cal/K/mol   J/K/mol
 298.15  VIB  0.128E+26            30800.509    192.596    193.330
         ROT  0.309E+09              888.752      2.981     41.829
         INT  0.397E+34            31689.262    195.577    235.159
         TR   0.240E+29             1481.254      4.968     46.076
         TOT                       33170.5157   200.5449   281.2355  1176.6892

       T/K    H(0)-H(T)+PV         H(T)/Eh          T*S/Eh         G(T)/Eh
   ------------------------------------------------------------------------
    298.15    0.528606E-01    0.854281E+00    0.133624E+00    0.720657E+00
   ------------------------------------------------------------------------

         :::::::::::::::::::::::::::::::::::::::::::::::::::::
         ::                  THERMODYNAMIC                  ::
         :::::::::::::::::::::::::::::::::::::::::::::::::::::
         :: total free energy        -164.058445672128 Eh   ::
         ::.................................................::
         :: total energy             -164.779102245655 Eh   ::
         :: zero point energy           0.801420036715 Eh   ::
         :: G(RRHO) w/o ZPVE           -0.080763463187 Eh   ::
         :: G(RRHO) contrib.            0.720656573528 Eh   ::
         :::::::::::::::::::::::::::::::::::::::::::::::::::::

           -------------------------------------------------
          | TOTAL ENERGY             -164.779102245655 Eh   |
          | TOTAL ENTHALPY           -163.924821627447 Eh   |
          | TOTAL FREE ENERGY        -164.058445672128 Eh   |
          | GRADIENT NORM               0.000079724279 Eh/α |
          | HOMO-LUMO GAP               2.518695653113 eV   |
           -------------------------------------------------

 * finished run on 2025/07/17 at 14:37:19.518
