   * xtb version 6.7.1 (edcfbbe) compiled by 'albert@albert-system' on 2024-07-22

   ID    Z sym.   atoms
    1    8 O      1, 21
    2   15 P      2
    3    6 C      3-20, 22-34, 36-65
    4    7 N      35
    5    1 H      66-105

          program call               : xtb data2507/toluene/9CzFDBFSPO/9CzFDBFSPO.xyz --gfn 2 --gbsa toluene --ohess vtight --parallel 40 --molden --ceasefiles --namespace data2507/toluene/9CzFDBFSPO/9CzFDBFSPO_toluene_S0_preOpt
      * Solvation model:               GBSA
        Solvent                        toluene
        Solvent mass                       9.2140E+01 g/mol
          :  Hamiltonian                  GFN2-xTB          :
 * total energy  :  -164.7493846 Eh     change       -0.1036454E-08 Eh
 * total energy  :  -164.7679835 Eh     change       -0.1859893E-01 Eh
 * total energy  :  -164.7730485 Eh     change       -0.5064980E-02 Eh
 * total energy  :  -164.7744712 Eh     change       -0.1422668E-02 Eh
 * total energy  :  -164.7755927 Eh     change       -0.1121595E-02 Eh
 * total energy  :  -164.7760987 Eh     change       -0.5059945E-03 Eh
 * total energy  :  -164.7763588 Eh     change       -0.2600695E-03 Eh
 * total energy  :  -164.7765384 Eh     change       -0.1796107E-03 Eh
 * total energy  :  -164.7766842 Eh     change       -0.1457430E-03 Eh
 * total energy  :  -164.7768238 Eh     change       -0.1396380E-03 Eh
 * total energy  :  -164.7786809 Eh     change       -0.3089804E-06 Eh
 * total energy  :  -164.7786811 Eh     change       -0.2184838E-06 Eh
 * total energy  :  -164.7786814 Eh     change       -0.2241398E-06 Eh
 * total energy  :  -164.7786817 Eh     change       -0.3246498E-06 Eh
 * total energy  :  -164.7786821 Eh     change       -0.4484542E-06 Eh
 * total energy  :  -164.7786827 Eh     change       -0.5449760E-06 Eh
 * total energy  :  -164.7786832 Eh     change       -0.5143155E-06 Eh
 * total energy  :  -164.7786836 Eh     change       -0.4479344E-06 Eh
 * total energy  :  -164.7786837 Eh     change       -0.3098791E-08 Eh
   *** GEOMETRY OPTIMIZATION CONVERGED AFTER 185 ITERATIONS ***

 final structure:
================
105
 xtb: 6.7.1 (edcfbbe)
O           -9.27721385998868       -1.30678314673573       -0.72641040918875
P           -8.92442421084244       -0.03572322313268       -0.06468776496621
C           -8.41801968394457        1.27223010874191       -1.22328955712530
C           -8.86494694218463        1.16517420677819       -2.53264467027383
C           -8.51674878272016        2.12610423832272       -3.46528150995304
C           -7.71980308026491        3.19491766973318       -3.08790798676165
C           -7.27061570001249        3.30157972457436       -1.78071850269597
C           -7.61981538342292        2.34406397923203       -0.84569396965316
C          -10.29024718458624        0.65656367393548        0.91650349902651
C          -11.47731571653916       -0.06097219798156        0.95838771102142
C          -12.55581531411808        0.42404667422320        1.67767970486018
C          -12.44659635135193        1.62856227132757        2.35349170544549
C          -11.26182360739927        2.34842612027920        2.30945590827003
C          -10.18257605006498        1.86667152808605        1.59158936125384
C           -7.52044168031385       -0.21592144424758        1.08242369454066
C           -7.59964569038554       -0.25969833885996        2.46678370777250
C           -6.46834053508852       -0.49565608393867        3.24339185907889
C           -5.22614855716271       -0.70134938289685        2.67060479523507
C           -5.12191663830090       -0.66938819009447        1.28527561139765
C           -6.27506047074059       -0.43188029499691        0.51410628511078
O           -6.01277755765952       -0.42844186764499       -0.81640717449515
C           -4.67210636055423       -0.66858411903852       -0.93547944537885
C           -3.94902351046407       -0.75580940405420       -2.11123620168163
C           -2.59441939003353       -1.00992617885342       -2.00601504543943
C           -1.95931479282717       -1.16699493284549       -0.76686675216046
C           -0.51365391693330       -1.43884580511829       -0.70969199350554
C            0.07627743648027       -2.35777322014333       -1.57320288917747
C            1.43151730544681       -2.62162561709103       -1.50920721442802
C            2.24083994644694       -1.96071794977211       -0.59397810811930
C            3.71516260708006       -2.29144236007848       -0.46802614734276
C            4.56329806404203       -1.07109847205267       -0.17202369070279
C            4.29099717470384        0.13810489252091       -0.80388754006460
C            5.08977693380069        1.24441861925200       -0.59157713600551
C            6.19282982199166        1.15799313958630        0.25230165147769
N            7.00669338344112        2.28144919440167        0.47102174577341
C            7.58541862664377        3.06210970472945       -0.50856081946890
C            7.56191175244481        2.90966923394980       -1.88805577574364
C            8.25358788291188        3.83090219288304       -2.65099753162534
C            8.96085378838832        4.87828098420693       -2.06310026563696
C            9.00684883104373        5.02182656961296       -0.69058978789417
C            8.31985944030510        4.10766613452784        0.09841967649560
C            8.16690785764771        3.94228662552195        1.51697854353643
C            8.62895598552427        4.65094797967587        2.61902841038064
C            8.26926350420023        4.22150043201645        3.88109987760099
C            7.44842550906252        3.10810443675823        4.05232997832809
C            6.97647700750141        2.38680418182143        2.97240665768061
C            7.35163832908937        2.80109606293339        1.70185415380646
C            6.47961120654707       -0.05156902894783        0.87571423024359
C            5.67092538850386       -1.15220877015541        0.66270990349993
C            4.29334408631380       -2.96706724393016       -1.69863434962233
C            4.46274635001379       -2.45065792105316       -2.96575938463882
C            5.03395624918374       -3.25530706818208       -3.94303851161492
C            5.43160061643726       -4.55192492711231       -3.65307089674539
C            5.27051944026536       -5.07411128579466       -2.37956475426969
C            4.70162496446311       -4.27508311949410       -1.40095497646821
C            4.41480685048470       -4.54314345605343       -0.00056736474655
C            4.61507399702364       -5.68055108619846        0.76491854781704
C            4.24141942280682       -5.65787758079164        2.09920941971393
C            3.67514742154236       -4.52166969434494        2.65751865237566
C            3.47174524608763       -3.37939425796427        1.89429940003905
C            3.84914423167637       -3.39305677692693        0.56816580998876
C            1.65364234144938       -1.04426469476521        0.27204743597091
C            0.29784601088101       -0.78835065549002        0.21683746730189
C           -2.69663336522547       -1.06994303592797        0.40721792573081
C           -4.05893602497711       -0.82398827619612        0.32423746340460
H           -9.47330900886884        0.31318504297706       -2.80417685123456
H           -8.86283061425531        2.03931648354509       -4.48494946028696
H           -7.44277724444197        3.94426847771617       -3.81480805477419
H           -6.64280478947666        4.13152696529195       -1.49052446806997
H           -7.25868582146128        2.41705591830137        0.17079593766197
H          -11.53438286102278       -0.99765865252230        0.42131627536291
H          -13.47855086471677       -0.13656566629218        1.71055415485267
H          -13.28678789222579        2.00916090182475        2.91543256264732
H          -11.18056568966962        3.28773059924249        2.83655204204317
H           -9.25763806679759        2.42264299171936        1.55317180942594
H           -8.55748016505015       -0.10435996458929        2.94224091214384
H           -6.56958948398709       -0.51983388452814        4.31800693569296
H           -4.35657007177326       -0.88476572194646        3.28224162217343
H           -4.43255524266586       -0.62973839578243       -3.06699563789838
H           -2.00145930395284       -1.07176474296593       -2.90598363152630
H           -0.53638849531801       -2.89017145639057       -2.28605643466792
H            1.86327809574207       -3.35026859223370       -2.17972647952498
H            3.43327856286691        0.22174749701624       -1.45482396408134
H            4.85696343395730        2.18400744964104       -1.07040552597908
H            7.02939334369285        2.09247406470639       -2.35106844282579
H            8.24893139079435        3.73588385425348       -3.72727391578714
H            9.48666357705451        5.57998768082881       -2.69415443031834
H            9.56765073959856        5.82478822742694       -0.23551799701907
H            9.25347075514894        5.52208520630019        2.48692168809472
H            8.61968893410676        4.75789901601721        4.75087511072688
H            7.17317692918169        2.80403187201026        5.05197182192656
H            6.33003822395368        1.53366751978319        3.11370386328158
H            7.34530556530982       -0.12975770149102        1.51660034713921
H            5.91023633426134       -2.08628705385769        1.14885608102478
H            4.15432082228807       -1.44267899788319       -3.20008027999843
H            5.16995156341256       -2.86589422810370       -4.94164911755614
H            5.87321599334798       -5.16044881201691       -4.42918259484977
H            5.58328520089649       -6.08329504561223       -2.15573381175120
H            5.05261480747786       -6.56792702532439        0.33199139359892
H            4.39065083089035       -6.53563753681299        2.71153330776171
H            3.38774596039014       -4.52497575240572        3.69901694508342
H            3.02951442807192       -2.49903994777142        2.33631178730182
H            2.26550865363156       -0.51733585893130        0.98987202432548
H           -0.13584866997874       -0.06053479701153        0.88712339347553
H           -2.22297851418800       -1.20521740448522        1.36713241578306

          :  Hamiltonian                  GFN2-xTB          :
         :: gradient norm              0.000043139346 Eh/a0 ::
         :: HOMO-LUMO gap              2.590008313688 eV    ::
         :: SCC energy              -167.822982170360 Eh    ::
         :: -> dispersion             -0.155342980203 Eh    ::
         :: -> Gsolv                  -0.073156863553 Eh    ::
         :: repulsion energy           3.044298519661 Eh    ::

    * Orbital Energies and Occupations

         #    Occupation            Energy/Eh            Energy/eV
      -------------------------------------------------------------
         1        2.0000           -0.7453579             -20.2822
       ...           ...                  ...                  ...
       141        2.0000           -0.4101094             -11.1596
       142        2.0000           -0.4062990             -11.0560
       143        2.0000           -0.4061456             -11.0518
       144        2.0000           -0.4049133             -11.0183
       145        2.0000           -0.4041035             -10.9962
       146        2.0000           -0.4021717             -10.9437
       147        2.0000           -0.3994281             -10.8690
       148        2.0000           -0.3969721             -10.8022
       149        2.0000           -0.3959120             -10.7733
       150        2.0000           -0.3838131             -10.4441
       151        2.0000           -0.3794429             -10.3252
       152        2.0000           -0.3774376             -10.2706
       153        2.0000           -0.3606497              -9.8138 (HOMO)
       154                         -0.2654687              -7.2238 (LUMO)
       155                         -0.2568221              -6.9885
       156                         -0.2540185              -6.9122
       157                         -0.2496899              -6.7944
       158                         -0.2449068              -6.6643
       159                         -0.2407094              -6.5500
       160                         -0.2359053              -6.4193
       161                         -0.2355077              -6.4085
       162                         -0.2346870              -6.3862
       163                         -0.2340260              -6.3682
       164                         -0.2307519              -6.2791
       ...                                ...                  ...
       305                          1.1909561              32.4076
      -------------------------------------------------------------
                  HL-Gap            0.0951810 Eh            2.5900 eV

     #   Z          covCN         q      C6AA      α(0)
     1   8 O        0.808    -0.399    21.684     6.242
     2  15 P        4.067     0.073   157.033    22.510
     3   6 C        2.921     0.015    27.683     8.628
     4   6 C        3.026    -0.018    28.442     8.748
     5   6 C        2.919    -0.026    28.656     8.778
     6   6 C        2.920    -0.024    28.604     8.770
     7   6 C        2.920    -0.027    28.666     8.780
     8   6 C        2.976    -0.023    28.564     8.767
     9   6 C        2.921     0.008    27.843     8.653
    10   6 C        3.022    -0.020    28.472     8.753
    11   6 C        2.918    -0.026    28.662     8.779
    12   6 C        2.920    -0.023    28.589     8.768
    13   6 C        2.919    -0.026    28.662     8.779
    14   6 C        2.978    -0.026    28.636     8.778
    15   6 C        2.908    -0.016    28.409     8.740
    16   6 C        2.964    -0.029    28.726     8.791
    17   6 C        2.920    -0.038    28.937     8.821
    18   6 C        2.913    -0.031    28.773     8.796
    19   6 C        3.051    -0.021    28.492     8.754
    20   6 C        3.222     0.137    24.339     8.019
    21   8 O        1.714    -0.231    17.827     5.701
    22   6 C        3.105     0.127    25.102     8.209
    23   6 C        2.907    -0.051    29.260     8.870
    24   6 C        2.931    -0.035    28.871     8.812
    25   6 C        2.977     0.007    27.867     8.659
    26   6 C        2.977     0.008    27.826     8.653
    27   6 C        2.924    -0.035    28.872     8.812
    28   6 C        2.922    -0.036    28.889     8.814
    29   6 C        2.979     0.016    27.646     8.625
    30   6 C        3.946     0.008    20.372     6.414
    31   6 C        2.978     0.016    27.651     8.626
    32   6 C        2.924    -0.033    28.816     8.803
    33   6 C        2.921    -0.043    29.073     8.842
    34   6 C        2.912     0.061    26.627     8.461
    35   7 N        2.802    -0.047    22.147     6.990
    36   6 C        3.077     0.048    26.852     8.496
    37   6 C        2.909    -0.052    29.290     8.874
    38   6 C        2.924    -0.035    28.879     8.813
    39   6 C        2.919    -0.043    29.073     8.842
    40   6 C        2.912    -0.035    28.876     8.812
    41   6 C        3.067    -0.019    28.418     8.741
    42   6 C        3.067    -0.019    28.417     8.741
    43   6 C        2.912    -0.035    28.876     8.812
    44   6 C        2.919    -0.043    29.074     8.842
    45   6 C        2.924    -0.035    28.880     8.813
    46   6 C        2.909    -0.052    29.293     8.875
    47   6 C        3.077     0.048    26.852     8.496
    48   6 C        2.921    -0.043    29.065     8.841
    49   6 C        2.923    -0.034    28.858     8.810
    50   6 C        3.056     0.004    27.890     8.661
    51   6 C        2.914    -0.035    28.861     8.809
    52   6 C        2.922    -0.033    28.826     8.804
    53   6 C        2.921    -0.033    28.832     8.805
    54   6 C        2.914    -0.035    28.866     8.810
    55   6 C        3.034     0.000    27.987     8.677
    56   6 C        3.034     0.000    27.989     8.678
    57   6 C        2.914    -0.035    28.866     8.810
    58   6 C        2.921    -0.033    28.832     8.805
    59   6 C        2.922    -0.033    28.826     8.804
    60   6 C        2.914    -0.035    28.860     8.809
    61   6 C        3.056     0.003    27.892     8.661
    62   6 C        2.922    -0.035    28.861     8.810
    63   6 C        2.924    -0.035    28.880     8.813
    64   6 C        2.918    -0.038    28.939     8.822
    65   6 C        3.056    -0.019    28.419     8.743
    66   1 H        0.925     0.046     2.366     2.405
    67   1 H        0.926     0.044     2.390     2.417
    68   1 H        0.926     0.047     2.352     2.398
    69   1 H        0.926     0.046     2.373     2.409
    70   1 H        0.926     0.038     2.475     2.460
    71   1 H        0.925     0.049     2.335     2.390
    72   1 H        0.926     0.045     2.387     2.416
    73   1 H        0.926     0.048     2.347     2.396
    74   1 H        0.926     0.048     2.349     2.397
    75   1 H        0.926     0.047     2.361     2.403
    76   1 H        0.926     0.047     2.353     2.399
    77   1 H        0.926     0.053     2.283     2.363
    78   1 H        0.926     0.055     2.259     2.351
    79   1 H        0.926     0.048     2.345     2.395
    80   1 H        0.926     0.051     2.305     2.374
    81   1 H        0.926     0.035     2.517     2.481
    82   1 H        0.926     0.032     2.552     2.498
    83   1 H        0.926     0.041     2.430     2.438
    84   1 H        0.926     0.042     2.419     2.432
    85   1 H        0.926     0.029     2.597     2.520
    86   1 H        0.926     0.029     2.597     2.520
    87   1 H        0.926     0.027     2.632     2.537
    88   1 H        0.926     0.029     2.599     2.521
    89   1 H        0.926     0.029     2.599     2.521
    90   1 H        0.926     0.027     2.631     2.537
    91   1 H        0.926     0.029     2.596     2.520
    92   1 H        0.926     0.029     2.596     2.520
    93   1 H        0.926     0.041     2.433     2.439
    94   1 H        0.926     0.038     2.470     2.458
    95   1 H        0.926     0.032     2.560     2.502
    96   1 H        0.926     0.032     2.556     2.500
    97   1 H        0.926     0.032     2.562     2.503
    98   1 H        0.926     0.033     2.547     2.496
    99   1 H        0.926     0.033     2.548     2.496
   100   1 H        0.926     0.032     2.562     2.503
   101   1 H        0.926     0.032     2.554     2.499
   102   1 H        0.926     0.032     2.553     2.499
   103   1 H        0.926     0.035     2.518     2.481
   104   1 H        0.926     0.037     2.493     2.469
   105   1 H        0.926     0.050     2.319     2.382

molecular dipole:
                 x           y           z       tot (Debye)
 q only:        0.542       1.055       0.804
   full:        0.446       1.070       0.788       3.563

 projected vibrational frequencies (cm⁻¹)
eigval :       -0.00    -0.00     0.00     0.00     0.00     0.00
eigval :        5.97     8.31    12.30    15.38    17.95    21.36
eigval :       21.70    28.71    32.21    34.66    42.36    46.94
eigval :       48.06    54.22    63.26    64.00    72.17    74.11
eigval :       84.30    91.83   100.75   106.68   117.50   125.49
eigval :      137.87   146.94   149.15   153.52   167.09   170.65
eigval :      182.27   195.67   199.09   209.63   222.11   229.08
eigval :      238.97   246.36   250.24   265.11   271.77   274.21
eigval :      285.30   287.26   305.12   319.84   325.78   346.04
eigval :      361.26   365.72   366.13   375.67   382.42   386.93
eigval :      388.30   393.53   395.96   405.52   411.78   412.73
eigval :      415.67   424.19   425.93   435.22   437.04   455.57
eigval :      461.72   479.21   492.09   497.40   503.34   508.77
eigval :      518.38   522.10   528.35   534.98   538.88   541.99
eigval :      543.57   550.20   574.83   582.03   584.83   586.10
eigval :      588.12   593.57   595.59   610.27   611.04   616.66
eigval :      622.26   626.93   651.09   655.58   659.13   671.53
eigval :      674.27   678.43   685.55   691.89   695.96   703.86
eigval :      707.78   711.14   714.45   725.14   729.04   736.66
eigval :      741.59   749.63   755.03   758.62   768.58   771.36
eigval :      779.63   786.52   795.96   806.89   820.98   829.35
eigval :      835.36   846.14   868.57   870.59   873.65   873.74
eigval :      876.78   877.56   878.33   880.87   883.14   884.25
eigval :      889.43   897.50   900.27   900.89   901.99   903.05
eigval :      903.82   905.61   910.06   910.50   912.99   915.14
eigval :      920.43   921.21   921.39   923.01   926.61   928.03
eigval :      928.47   928.59   929.35   933.37   933.95   934.92
eigval :      938.09   955.08   972.30   974.69  1006.73  1009.26
eigval :     1011.21  1024.57  1033.51  1068.48  1071.83  1072.87
eigval :     1075.10  1075.80  1077.94  1080.90  1092.38  1106.94
eigval :     1109.10  1115.57  1116.88  1122.48  1125.17  1132.51
eigval :     1139.45  1142.50  1144.64  1150.20  1164.97  1174.16
eigval :     1175.53  1175.88  1177.00  1178.51  1180.47  1180.66
eigval :     1181.53  1183.83  1187.39  1192.37  1200.88  1202.46
eigval :     1203.31  1205.21  1220.34  1225.37  1230.45  1235.01
eigval :     1235.56  1239.99  1241.78  1248.67  1255.95  1262.10
eigval :     1265.63  1269.79  1271.98  1274.04  1284.63  1299.41
eigval :     1302.42  1305.02  1313.12  1319.61  1320.52  1321.50
eigval :     1325.08  1336.61  1349.95  1355.40  1360.65  1364.31
eigval :     1365.71  1384.95  1398.70  1406.08  1415.61  1421.39
eigval :     1423.18  1427.16  1427.72  1429.81  1431.12  1450.66
eigval :     1452.71  1453.90  1460.83  1470.84  1474.14  1474.56
eigval :     1486.92  1490.61  1498.72  1561.15  1565.78  1569.55
eigval :     1574.00  1581.32  1583.00  1584.30  1584.62  1585.93
eigval :     1586.24  1587.32  1588.07  1592.67  1596.82  1597.07
eigval :     1597.70  1602.19  1602.79  1611.74  1613.18  3062.26
eigval :     3066.16  3069.19  3069.63  3070.09  3070.20  3070.86
eigval :     3072.87  3075.32  3075.62  3075.69  3075.77  3075.91
eigval :     3076.22  3076.47  3076.60  3079.98  3080.81  3080.93
eigval :     3083.04  3083.17  3083.58  3084.29  3084.49  3084.80
eigval :     3086.33  3087.92  3088.69  3089.96  3090.32  3090.34
eigval :     3091.39  3091.82  3092.43  3092.76  3093.50  3095.18
eigval :     3096.76  3101.24  3103.47

   temp. (K)  partition function   enthalpy   heat capacity  entropy
                                   cal/mol     cal/K/mol   cal/K/mol   J/K/mol
 298.15  VIB  0.380E+26            30893.010    192.283    194.378
         ROT  0.329E+09              888.752      2.981     41.952
         INT  0.125E+35            31781.762    195.264    236.329
         TR   0.240E+29             1481.254      4.968     46.076
         TOT                       33263.0158   200.2325   282.4052  1181.5834

       T/K    H(0)-H(T)+PV         H(T)/Eh          T*S/Eh         G(T)/Eh
   ------------------------------------------------------------------------
    298.15    0.530080E-01    0.854147E+00    0.134180E+00    0.719967E+00
   ------------------------------------------------------------------------

         :::::::::::::::::::::::::::::::::::::::::::::::::::::
         ::                  THERMODYNAMIC                  ::
         :::::::::::::::::::::::::::::::::::::::::::::::::::::
         :: total free energy        -164.058716601976 Eh   ::
         ::.................................................::
         :: total energy             -164.778683652680 Eh   ::
         :: zero point energy           0.801138888855 Eh   ::
         :: G(RRHO) w/o ZPVE           -0.081171838151 Eh   ::
         :: G(RRHO) contrib.            0.719967050704 Eh   ::
         :::::::::::::::::::::::::::::::::::::::::::::::::::::

           -------------------------------------------------
          | TOTAL ENERGY             -164.778683652680 Eh   |
          | TOTAL ENTHALPY           -163.924536774077 Eh   |
          | TOTAL FREE ENERGY        -164.058716601976 Eh   |
          | GRADIENT NORM               0.000043141902 Eh/α |
          | HOMO-LUMO GAP               2.590008154549 eV   |
           -------------------------------------------------

 * finished run on 2025/07/17 at 14:19:14.922
