   * xtb version 6.7.1 (edcfbbe) compiled by 'albert@albert-system' on 2024-07-22

   ID    Z sym.   atoms
    1    6 C      1-9, 11-28, 30-36, 38, 39, 41-62
    2    7 N      10, 29, 37, 40
    3    1 H      63-108

          program call               : xtb data2507/gas/DMAC-BPP/DMAC-BPP_gas_S0_finalOpt.xtbopt.xyz --gfn 2 --spinpol --tblite --uhf 2 --ohess vtight --parallel 40 --molden --ceasefiles --namespace data2507/gas/DMAC-BPP/DMAC-BPP_gas_T1_preOpt
 * total energy  :  -159.3464938 Eh     change       -0.3790794E-07 Eh
 * total energy  :  -159.3506457 Eh     change       -0.4151901E-02 Eh
 * total energy  :  -159.3520137 Eh     change       -0.1367981E-02 Eh
 * total energy  :  -159.3521191 Eh     change       -0.1053587E-03 Eh
 * total energy  :  -159.3522482 Eh     change       -0.1291029E-03 Eh
 * total energy  :  -159.3523030 Eh     change       -0.5480701E-04 Eh
 * total energy  :  -159.3523788 Eh     change       -0.7578155E-04 Eh
 * total energy  :  -159.3524298 Eh     change       -0.5103198E-04 Eh
 * total energy  :  -159.3524743 Eh     change       -0.4449911E-04 Eh
 * total energy  :  -159.3525305 Eh     change       -0.5617583E-04 Eh
 * total energy  :  -159.3547413 Eh     change       -0.7225266E-06 Eh
 * total energy  :  -159.3547415 Eh     change       -0.1885280E-06 Eh
 * total energy  :  -159.3547417 Eh     change       -0.2325086E-06 Eh
 * total energy  :  -159.3547417 Eh     change        0.5318373E-07 Eh
 * total energy  :  -159.3547419 Eh     change       -0.2111804E-06 Eh
 * total energy  :  -159.3547422 Eh     change       -0.2503282E-06 Eh
 * total energy  :  -159.3547424 Eh     change       -0.2114920E-06 Eh
 * total energy  :  -159.3547425 Eh     change       -0.1206455E-06 Eh
 * total energy  :  -159.3547426 Eh     change       -0.9590786E-07 Eh
   *** GEOMETRY OPTIMIZATION CONVERGED AFTER 228 ITERATIONS ***

 final structure:
================
108
 xtb: 6.7.1 (edcfbbe)
C           -3.13624124380445        6.67101552835185        1.13025607441497
C           -1.83103348647353        5.85402473876636        1.10418877778578
C           -0.62866256370382        6.76157595721782        1.42436164989732
C           -1.64731211895371        5.27743279446577       -0.28559616578302
C           -1.55878029725714        6.12968338853380       -1.37739772979929
C           -1.39329965650630        5.65566370591480       -2.66584609109141
C           -1.31265189647096        4.29046125892737       -2.88327262026495
C           -1.39546907399136        3.42093030172040       -1.81836334591827
C           -1.56115349714598        3.89752938638680       -0.51243356111529
N           -1.63675176613700        3.00087477361085        0.53403984397789
C           -1.55469751653902        1.60461846060036        0.25388409780263
C           -0.32250644202507        0.99034653343645        0.21177910987310
C           -0.21266549303768       -0.38908297796849       -0.06141886455234
C            1.03440978759131       -1.08352047670476       -0.12115334563028
C            2.29577067611752       -0.47304403604216       -0.00814885237691
C            3.42682562627760       -1.26395230228768       -0.09529966444750
C            4.78365996972594       -0.76586801207644       -0.00561134217829
C            5.84645756742522       -1.68178118750283        0.01252000583736
C            7.15152779650012       -1.25880404286088        0.09584082788201
C            7.46440210496619        0.10120619453849        0.15428502600167
C            8.85599910678598        0.55461490177952        0.23343666762874
C            9.78825028381946       -0.13482931897712        1.00854570814986
C           11.09982637624227        0.29337615597415        1.08284671371574
C           11.50857605403691        1.41557028082709        0.38130581164112
C           10.59322411933168        2.10806574422739       -0.39397390690319
C            9.28006650633102        1.68429909311302       -0.46601516137132
C            6.40940429334730        1.01591651637589        0.13106348766233
C            5.10047944973523        0.59711981948083        0.05755166143460
N            3.28001691470840       -2.60922544802218       -0.27343230463382
C            2.08081347488755       -3.15179402969283       -0.37477458609138
C            1.97365901264184       -4.59933781557240       -0.56476438315591
C            0.72551030974923       -5.21692285617191       -0.57929813746830
C            0.62841014933355       -6.58333268444113       -0.75610883457809
C            1.77391026633967       -7.34634716458425       -0.92041957882893
C            3.01899564860433       -6.73783522602668       -0.90741218911650
C            3.12062012867877       -5.37155544453294       -0.73032444215154
N            0.98701281102190       -2.43480725136940       -0.30967761456452
C           -1.41224290847922       -1.10217056701952       -0.28472016107801
C           -2.63300012424369       -0.47188060375127       -0.24054707667975
N           -3.82596599445036       -1.21791969630425       -0.47603731418936
C           -4.34114038964905       -1.26461685759947       -1.75516071048034
C           -3.67672589870539       -0.59715834321037       -2.79124782361369
C           -4.16739991721585       -0.62240282718423       -4.07778615417142
C           -5.33169899470137       -1.31805587564728       -4.35766452796354
C           -5.98739884410758       -1.98319807288277       -3.33797025852415
C           -5.51760407141767       -1.97364262388704       -2.03208731331942
C           -6.27516963851705       -2.72554299676186       -0.95596838308477
C           -7.70411205721118       -2.15772399016258       -0.86886649197710
C           -6.31735973850052       -4.21741400871855       -1.33607909322983
C           -5.61529435699045       -2.58950827295176        0.40175987565816
C           -6.18218224819476       -3.20880666315979        1.50686871031142
C           -5.62245241215148       -3.11366111983295        2.76773599953847
C           -4.46097152855068       -2.38003855582979        2.94294652638197
C           -3.87502441775616       -1.75642738754862        1.86388282622053
C           -4.43769507017908       -1.85255856570967        0.58538451005544
C           -2.73287824773079        0.89376332643043        0.02944478001877
C           -1.81455403643188        3.41022271068955        1.84008614132053
C           -1.89087031587942        2.45252413603011        2.85840013074929
C           -2.06776733093073        2.82918258257589        4.17133147634673
C           -2.16972471685084        4.17166793863962        4.49519413009898
C           -2.09070827683303        5.12034692346983        3.49223595046939
C           -1.91466679797747        4.77038306660678        2.16080327035548
H           -3.98204008377643        6.02493415192680        0.90250738082217
H           -3.10786555095111        7.47074057584973        0.39559050611435
H           -3.29680197871766        7.11415948403711        2.10899710230258
H            0.29040292049364        6.17888950110377        1.40572341570804
H           -0.54225199877207        7.56194456366288        0.69483983470715
H           -0.73167882264510        7.20785002289408        2.40948170396978
H           -1.61993136682257        7.19656620662114       -1.22492967100817
H           -1.32821552318828        6.34676497384982       -3.49217073564808
H           -1.18437753962778        3.90228199703007       -3.88242411498116
H           -1.32952179415190        2.35790403806213       -1.98887370372052
H            0.55457956924453        1.58908521321696        0.39901814772911
H            2.37634867359514        0.58974548355799        0.14108401547129
H            5.61524965424965       -2.73483011426857       -0.03971025124641
H            7.94959620547975       -1.98740973832387        0.09020703845991
H            9.47356980977619       -1.00010557507081        1.57389116885060
H           11.80786838591796       -0.24896248349012        1.69321301730582
H           12.53461002127418        1.74838051714499        0.43817963379457
H           10.90660511857694        2.98160270926293       -0.94786517253872
H            8.57745287531888        2.21901533665332       -1.08877273021158
H            6.62423327447723        2.07327985922418        0.19436571329375
H            4.31871000632527        1.34137508248032        0.04273972177908
H           -0.15735729968610       -4.61037152452923       -0.44686126149315
H           -0.34189236469320       -7.05846786684604       -0.76551343558201
H            1.69607616579447       -8.41496735021407       -1.05837221498516
H            3.91135351175368       -7.33295924879922       -1.03605179679802
H            4.08278701152383       -4.88293599407219       -0.72017724668108
H           -1.35511215643455       -2.15774774689551       -0.49732642740236
H           -2.76647138905091       -0.06037604763285       -2.57602182818226
H           -3.64032151854824       -0.10041913915214       -4.86206888828552
H           -5.72555639433369       -1.34529795868443       -5.36206732343787
H           -6.89116028892193       -2.52439862545360       -3.57368911551552
H           -8.21699747669142       -2.25026709025552       -1.82199862704955
H           -7.66795718210816       -1.10392900210768       -0.59893327034837
H           -8.28564949210882       -2.68445409588079       -0.11757179678603
H           -6.86540866560791       -4.79090639955375       -0.59376330771813
H           -6.79912938497715       -4.35808079020868       -2.29960331935440
H           -5.30502031408106       -4.61229037794588       -1.39716662874303
H           -7.08765662108485       -3.78420434519370        1.38731361398450
H           -6.08977998724075       -3.60798137798595        3.60556276512599
H           -4.01071405067213       -2.29413510187487        3.92032301109943
H           -2.96846302032032       -1.18851199605059        2.00093818730374
H           -3.69190307522849        1.38523377349510        0.06381774014814
H           -1.80678033588980        1.40676182121129        2.60817118229307
H           -2.12476674783882        2.07479836303823        4.94143219425746
H           -2.30783202000812        4.47889279906773        5.52047772180966
H           -2.16872865265256        6.16268244237664        3.76181575052181

 projected vibrational frequencies (cm⁻¹)
eigval :       -0.00    -0.00    -0.00     0.00     0.00     0.00
eigval :        2.27     4.12     6.09     8.98    12.90    14.60
eigval :       16.54    22.75    26.46    29.92    36.22    41.53
eigval :       57.32    59.32    62.60    71.39    85.39    90.39
eigval :       93.50    95.31    97.72    99.38   115.61   119.46
eigval :      129.70   129.80   130.94   149.19   173.17   190.02
eigval :      191.04   191.87   192.01   210.28   210.96   218.22
eigval :      218.65   225.26   235.24   242.86   247.42   258.53
eigval :      262.73   275.45   300.33   305.69   307.67   328.39
eigval :      328.55   330.21   338.06   345.17   357.94   365.26
eigval :      366.41   367.00   372.11   372.41   376.29   384.22
eigval :      385.86   397.02   408.39   410.39   413.12   419.13
eigval :      449.65   450.71   452.24   468.69   489.07   496.62
eigval :      510.23   510.73   516.83   520.31   521.04   540.65
eigval :      544.35   544.90   546.59   554.98   564.12   580.48
eigval :      583.73   584.89   586.85   588.82   589.99   598.61
eigval :      607.57   610.51   623.33   637.91   648.09   649.60
eigval :      659.31   664.50   664.75   668.16   677.75   685.07
eigval :      685.12   686.68   697.15   697.35   710.47   742.81
eigval :      754.81   765.93   768.11   772.01   773.71   774.72
eigval :      776.47   779.69   805.19   809.55   823.26   824.69
eigval :      825.71   836.85   840.00   853.41   856.35   862.20
eigval :      862.88   866.75   867.30   875.16   875.97   896.55
eigval :      904.60   910.26   912.98   913.72   913.87   914.23
eigval :      914.65   915.73   919.66   920.55   920.69   921.40
eigval :      921.52   928.04   928.96   930.31   930.94   932.08
eigval :      937.77   938.32   957.44   957.49   961.30   967.13
eigval :      984.06   993.60  1001.80  1013.67  1013.69  1021.65
eigval :     1071.36  1074.66  1075.52  1076.76  1077.35  1078.50
eigval :     1088.19  1090.43  1095.59  1108.09  1110.06  1110.57
eigval :     1115.62  1116.31  1122.32  1133.86  1138.82  1140.04
eigval :     1146.88  1152.11  1155.93  1156.29  1165.82  1175.76
eigval :     1180.54  1180.94  1182.81  1183.77  1184.79  1186.48
eigval :     1186.68  1193.14  1198.43  1208.59  1211.83  1224.57
eigval :     1237.23  1241.77  1244.13  1246.75  1258.82  1260.28
eigval :     1265.84  1269.29  1280.46  1283.25  1292.16  1294.37
eigval :     1294.48  1295.30  1301.29  1320.29  1324.60  1324.87
eigval :     1325.03  1326.70  1331.04  1333.02  1335.47  1336.04
eigval :     1337.29  1338.46  1355.95  1378.86  1386.00  1401.84
eigval :     1402.00  1407.14  1418.87  1419.56  1420.26  1433.47
eigval :     1433.83  1434.51  1434.96  1435.93  1437.48  1441.63
eigval :     1464.59  1464.93  1465.98  1468.56  1484.82  1485.31
eigval :     1488.40  1488.55  1488.70  1489.41  1489.48  1498.12
eigval :     1499.17  1499.22  1502.84  1503.08  1503.24  1535.11
eigval :     1556.80  1564.20  1564.99  1578.05  1578.54  1580.33
eigval :     1584.52  1584.77  1585.31  1586.10  1595.58  1595.83
eigval :     1597.47  1601.96  3027.92  3028.26  3029.94  3030.41
eigval :     3041.28  3041.34  3043.86  3043.93  3050.20  3050.32
eigval :     3053.82  3054.09  3067.39  3068.57  3071.39  3072.61
eigval :     3073.64  3078.03  3079.86  3081.68  3081.78  3081.84
eigval :     3082.02  3083.20  3086.48  3086.68  3086.91  3087.09
eigval :     3087.10  3087.98  3089.77  3094.24  3096.96  3097.28
eigval :     3097.33  3097.65  3098.21  3099.86  3101.90  3105.47
eigval :     3106.12  3106.38  3108.23  3108.63  3110.81  3118.34

   temp. (K)  partition function   enthalpy   heat capacity  entropy
                                   cal/mol     cal/K/mol   cal/K/mol   J/K/mol
 298.15  VIB  0.696E+28            31628.622    194.185    202.468
         ROT  0.206E+09              888.752      2.981     41.020
         INT  0.143E+37            32517.374    197.166    243.487
         TR   0.219E+29             1481.254      4.968     45.892
         TOT                       33998.6279   202.1345   289.3792  1210.7628

       T/K    H(0)-H(T)+PV         H(T)/Eh          T*S/Eh         G(T)/Eh
   ------------------------------------------------------------------------
    298.15    0.541803E-01    0.906634E+00    0.137493E+00    0.769141E+00
   ------------------------------------------------------------------------

         :::::::::::::::::::::::::::::::::::::::::::::::::::::
         ::                  THERMODYNAMIC                  ::
         :::::::::::::::::::::::::::::::::::::::::::::::::::::
         :: total free energy        -158.585601981590 Eh   ::
         ::.................................................::
         :: total energy             -159.354742585629 Eh   ::
         :: zero point energy           0.852453758783 Eh   ::
         :: G(RRHO) w/o ZPVE           -0.083313154744 Eh   ::
         :: G(RRHO) contrib.            0.769140604038 Eh   ::
         :::::::::::::::::::::::::::::::::::::::::::::::::::::

           -------------------------------------------------
          | TOTAL ENERGY             -159.354742585629 Eh   |
          | TOTAL ENTHALPY           -158.448108564586 Eh   |
          | TOTAL FREE ENERGY        -158.585601981590 Eh   |
          | GRADIENT NORM               0.000049356674 Eh/α |
           -------------------------------------------------

 * finished run on 2025/07/17 at 23:40:50.302
