   * xtb version 6.7.1 (edcfbbe) compiled by 'albert@albert-system' on 2024-07-22

   ID    Z sym.   atoms
    1    6 C      1-9, 11-28, 30-36, 38, 39, 41-62
    2    7 N      10, 29, 37, 40
    3    1 H      63-108

          program call               : xtb data2507/gas/DMAC-BPP/DMAC-BPP_gas_S0_crest.xyz --gfn 2 --ohess vtight --parallel 40 --molden --ceasefiles --namespace data2507/gas/DMAC-BPP/DMAC-BPP_gas_S0_finalOpt
          :  Hamiltonian                  GFN2-xTB          :
 * total energy  :  -159.4223235 Eh     change       -0.2313328E-08 Eh
 * total energy  :  -159.4223244 Eh     change       -0.9221756E-06 Eh
 * total energy  :  -159.4223255 Eh     change       -0.1109319E-05 Eh
 * total energy  :  -159.4223287 Eh     change       -0.3220057E-05 Eh
 * total energy  :  -159.4223325 Eh     change       -0.3809137E-05 Eh
 * total energy  :  -159.4223344 Eh     change       -0.1882717E-05 Eh
 * total energy  :  -159.4223359 Eh     change       -0.1498343E-05 Eh
 * total energy  :  -159.4223382 Eh     change       -0.2302584E-05 Eh
 * total energy  :  -159.4223413 Eh     change       -0.3118812E-05 Eh
 * total energy  :  -159.4223439 Eh     change       -0.2625017E-05 Eh
 * total energy  :  -159.4223623 Eh     change       -0.3773779E-06 Eh
 * total energy  :  -159.4223626 Eh     change       -0.3114307E-06 Eh
 * total energy  :  -159.4223629 Eh     change       -0.2404109E-06 Eh
 * total energy  :  -159.4223631 Eh     change       -0.2169303E-06 Eh
 * total energy  :  -159.4223633 Eh     change       -0.1981942E-06 Eh
 * total energy  :  -159.4223635 Eh     change       -0.2045004E-06 Eh
 * total energy  :  -159.4223637 Eh     change       -0.2066271E-06 Eh
 * total energy  :  -159.4223639 Eh     change       -0.2169210E-06 Eh
 * total energy  :  -159.4223639 Eh     change       -0.2345701E-08 Eh
   *** GEOMETRY OPTIMIZATION CONVERGED AFTER 44 ITERATIONS ***

 final structure:
================
108
 xtb: 6.7.1 (edcfbbe)
C           -3.14882271412261        6.68812876111066        1.03750777566561
C           -1.88065470482373        5.83509465992775        1.22243027249474
C           -0.73109910610829        6.70081306786878        1.76969913646402
C           -1.46982596028355        5.27874874567739       -0.12794479910649
C           -1.16839556599770        6.15061067978834       -1.16493485288127
C           -0.79815507535367        5.70095011267070       -2.41905158176950
C           -0.72847694018659        4.34032397074459       -2.65630101811578
C           -1.02112324870720        3.45156637190756       -1.64348916337654
C           -1.38737053545279        3.90406628872275       -0.37251704873488
N           -1.67277929791040        2.98703264934242        0.62555592795846
C           -1.57316488699701        1.60074466336552        0.32978315396255
C           -0.33741458120138        0.97101150703512        0.38668588801061
C           -0.23683060503559       -0.38501616108955        0.09445016933369
C            1.04050851554384       -1.10744253153336        0.17744007680933
C            2.27326624617631       -0.50014731404965       -0.04323342673601
C            3.40646267284034       -1.30956505401520        0.06610101831613
C            4.76656460101887       -0.80790995457259       -0.15352190371066
C            5.84068961488152       -1.48171577573208        0.42752776756820
C            7.13248366751128       -1.03803985721225        0.24388356693643
C            7.39487056520529        0.08566386588259       -0.53914190196575
C            8.77224398531535        0.55505479723613       -0.74241524996211
C            9.67818874091472        0.57599995935855        0.31584058119916
C           10.97352601997273        1.01881946647786        0.12413836702006
C           11.38738992558936        1.44091690270904       -1.12826280000493
C           10.49618112764868        1.42098907497539       -2.18809279436201
C            9.19831239072785        0.98530702261732       -1.99716054424884
C            6.32116214684433        0.74938500383249       -1.13002397638620
C            5.02582008961358        0.31434994785029       -0.93786910918718
N            3.29581658775842       -2.59426410463760        0.39547904785905
C            2.07971727958342       -3.09180260893573        0.58544867248576
C            1.96726712839431       -4.50781667781112        0.94464428712806
C            0.72549230157537       -5.05043289906633        1.27026997190361
C            0.62119671658668       -6.38478869210562        1.61200762314740
C            1.75040707405933       -7.18838935303964        1.63238798341063
C            2.98769497212202       -6.65382310042693        1.30871996504281
C            3.09887829972894       -5.32018551989163        0.96596630534344
N            0.95121871684168       -2.40010946857921        0.47507883125150
C           -1.37853213043497       -1.09620687035344       -0.26085726091123
C           -2.61502110841111       -0.46858079311077       -0.31047998044780
N           -3.77127378774218       -1.20492855787820       -0.66109430363600
C           -4.41415287585799       -0.92481985423261       -1.86036241746045
C           -3.89082142432480        0.04293562175334       -2.72332093244558
C           -4.51937540264778        0.35584951702648       -3.90977419182434
C           -5.68230609315119       -0.30141770944858       -4.26719827790875
C           -6.18205871160114       -1.28495151709770       -3.43481044616280
C           -5.56706351218796       -1.62161106075309       -2.23632375661710
C           -6.14673313290974       -2.74162898110034       -1.39460543501855
C           -7.58394342352204       -2.36623186561258       -0.98962298838268
C           -6.14789300908450       -4.03233580154752       -2.23419269211341
C           -5.33797896030172       -2.97898620257002       -0.13409344720836
C           -5.73127745494860       -3.97901875879103        0.74546151246595
C           -5.05837064455761       -4.22541249951477        1.92701382168332
C           -3.97130968463199       -3.43784996926947        2.25931560947371
C           -3.56048988959547       -2.43739867865734        1.40428537771497
C           -4.21629493231647       -2.20948886129393        0.19053295861569
C           -2.71353848562043        0.88581076978167       -0.00963229635863
C           -2.06158971376465        3.37936639390369        1.89639503765736
C           -2.32908752368008        2.40975379581354        2.86670668572354
C           -2.71805516418179        2.76985012676881        4.13962732523599
C           -2.84295228125348        4.10734517991410        4.46859467879207
C           -2.56931900068760        5.06787476423031        3.51242074922332
C           -2.17675938867221        4.73411285296237        2.22355781815191
H           -3.95672861480483        6.07020870489858        0.64991793045770
H           -2.97246031917769        7.50022126824826        0.33761700007093
H           -3.46898545968438        7.11760272374932        1.98274032813772
H            0.16116816148828        6.09125211581262        1.90085715571407
H           -0.49525745391088        7.51097881379894        1.08516291924148
H           -0.99451849411655        7.13330563268644        2.73094071501300
H           -1.22320652929549        7.21543945147687       -0.99575978026481
H           -0.57027076681350        6.40729169050752       -3.20267227748152
H           -0.44771141642971        3.96700365847191       -3.63004011875864
H           -0.96659773070085        2.39084820893616       -1.83694541386341
H            0.52918563831484        1.54332336377378        0.68111487907269
H            2.34666842274034        0.54544318198745       -0.29007152196640
H            5.63580948080267       -2.35543207411420        1.02651149228406
H            7.95434307445747       -1.57761150709163        0.69142547142167
H            9.35594392553778        0.26343074256473        1.29855456171858
H           11.66354539911968        1.03604513264189        0.95525944965904
H           12.40048347638983        1.78376658343032       -1.27783533045475
H           10.81502322844095        1.74491022015329       -3.16820943623048
H            8.51258413060070        0.95521398672045       -2.83150520522739
H            6.50544492639414        1.62707845770544       -1.73246397079735
H            4.21601301393885        0.84048133822430       -1.42152622046871
H           -0.14383073616075       -4.41156321752953        1.25320464971143
H           -0.34296731717903       -6.80186614549160        1.86408534196028
H            1.66636787433350       -8.23165545079388        1.90024893540805
H            3.86673927461514       -7.28171756716255        1.32387454354757
H            4.05312581431139       -4.88864055713371        0.70720703922182
H           -1.29117113226491       -2.14702084553331       -0.48905564829947
H           -2.97567992912689        0.55300028750300       -2.46652884809114
H           -4.09577532871681        1.11228547477055       -4.55348063219318
H           -6.18880308784144       -0.06132742606108       -5.18948388761968
H           -7.07907755940410       -1.80546891542386       -3.73439013997236
H           -8.20406215788789       -2.20156126426080       -1.86646582626859
H           -7.57467753754886       -1.45207206202496       -0.39881660066545
H           -8.03818696019582       -3.15372517200692       -0.39467590051048
H           -6.57112808698921       -4.86085547932267       -1.67321905820111
H           -6.73025557604061       -3.90520178240680       -3.14247812823579
H           -5.12847522237450       -4.29192241703051       -2.51379425363928
H           -6.59102765198215       -4.58656835423691        0.50657448878345
H           -5.38761421334424       -5.01514471015028        2.58493827818160
H           -3.44124398784548       -3.59681243526854        3.18658439994239
H           -2.71968877124654       -1.82283308893783        1.68497565949898
H           -3.67208308596873        1.38215789519239       -0.03954940206777
H           -2.22785881252523        1.36427260415578        2.61830299512793
H           -2.92140967720896        2.00335148598825        4.87247405140615
H           -3.14714882963262        4.40239902729423        5.46122556743533
H           -2.66556162753586        6.10795147468148        3.78535129433134

          :  Hamiltonian                  GFN2-xTB          :
         :: gradient norm              0.000035735349 Eh/a0 ::
         :: HOMO-LUMO gap              1.663683586723 eV    ::
         :: SCC energy              -162.349299524925 Eh    ::
         :: -> dispersion             -0.150669298191 Eh    ::
         :: repulsion energy           2.926935597613 Eh    ::

    * Orbital Energies and Occupations

         #    Occupation            Energy/Eh            Energy/eV
      -------------------------------------------------------------
         1        2.0000           -0.6766686             -18.4131
       ...           ...                  ...                  ...
       137        2.0000           -0.4035580             -10.9814
       138        2.0000           -0.4013106             -10.9202
       139        2.0000           -0.4006208             -10.9014
       140        2.0000           -0.3969745             -10.8022
       141        2.0000           -0.3961259             -10.7791
       142        2.0000           -0.3958017             -10.7703
       143        2.0000           -0.3949337             -10.7467
       144        2.0000           -0.3907542             -10.6330
       145        2.0000           -0.3897362             -10.6053
       146        2.0000           -0.3877878             -10.5522
       147        2.0000           -0.3604109              -9.8073
       148        2.0000           -0.3459306              -9.4133
       149        2.0000           -0.3437910              -9.3550 (HOMO)
       150                         -0.2826517              -7.6913 (LUMO)
       151                         -0.2726562              -7.4194
       152                         -0.2492536              -6.7825
       153                         -0.2438068              -6.6343
       154                         -0.2282118              -6.2100
       155                         -0.2264447              -6.1619
       156                         -0.2256392              -6.1400
       157                         -0.2220637              -6.0427
       158                         -0.2216859              -6.0324
       159                         -0.2215673              -6.0292
       160                         -0.2173439              -5.9142
       ...                                ...                  ...
       294                          0.6948976              18.9091
      -------------------------------------------------------------
                  HL-Gap            0.0611392 Eh            1.6637 eV

     #   Z          covCN         q      C6AA      α(0)
     1   6 C        3.761    -0.103    22.509     6.763
     2   6 C        3.909     0.022    20.155     6.381
     3   6 C        3.761    -0.102    22.504     6.763
     4   6 C        2.979    -0.014    28.360     8.735
     5   6 C        2.928    -0.036    28.894     8.815
     6   6 C        2.917    -0.045    29.120     8.849
     7   6 C        2.919    -0.033    28.823     8.804
     8   6 C        2.924    -0.059    29.457     8.900
     9   6 C        2.929     0.058    26.694     8.473
    10   7 N        2.755    -0.072    22.644     7.067
    11   6 C        2.927     0.072    26.388     8.424
    12   6 C        2.924    -0.046    29.133     8.851
    13   6 C        2.981     0.007    27.859     8.658
    14   6 C        2.972     0.110    25.567     8.294
    15   6 C        2.911    -0.066    29.635     8.927
    16   6 C        2.968     0.111    25.543     8.290
    17   6 C        2.980     0.002    27.985     8.677
    18   6 C        2.924    -0.025    28.627     8.774
    19   6 C        2.923    -0.033    28.817     8.803
    20   6 C        2.977     0.014    27.700     8.633
    21   6 C        2.977     0.010    27.783     8.646
    22   6 C        2.925    -0.033    28.822     8.804
    23   6 C        2.918    -0.029    28.723     8.789
    24   6 C        2.920    -0.030    28.749     8.793
    25   6 C        2.918    -0.029    28.724     8.789
    26   6 C        2.925    -0.033    28.821     8.804
    27   6 C        2.923    -0.034    28.845     8.808
    28   6 C        2.921    -0.032    28.788     8.799
    29   7 N        1.850    -0.268    27.818     7.817
    30   6 C        2.946     0.182    24.103     8.052
    31   6 C        2.985     0.002    27.985     8.678
    32   6 C        2.924    -0.026    28.655     8.779
    33   6 C        2.918    -0.028    28.705     8.786
    34   6 C        2.920    -0.026    28.644     8.777
    35   6 C        2.918    -0.028    28.711     8.787
    36   6 C        2.924    -0.026    28.661     8.779
    37   7 N        1.852    -0.270    27.869     7.824
    38   6 C        2.930    -0.039    28.973     8.827
    39   6 C        2.925     0.072    26.382     8.423
    40   7 N        2.754    -0.068    22.555     7.054
    41   6 C        2.927     0.058    26.706     8.475
    42   6 C        2.924    -0.058    29.448     8.899
    43   6 C        2.920    -0.033    28.817     8.803
    44   6 C        2.917    -0.044    29.100     8.846
    45   6 C        2.928    -0.036    28.898     8.816
    46   6 C        2.980    -0.013    28.338     8.732
    47   6 C        3.909     0.021    20.156     6.381
    48   6 C        3.761    -0.103    22.510     6.763
    49   6 C        3.761    -0.103    22.515     6.764
    50   6 C        2.980    -0.013    28.337     8.732
    51   6 C        2.928    -0.036    28.898     8.816
    52   6 C        2.917    -0.044    29.095     8.845
    53   6 C        2.920    -0.032    28.805     8.801
    54   6 C        2.924    -0.057    29.427     8.896
    55   6 C        2.927     0.058    26.702     8.474
    56   6 C        2.924    -0.048    29.200     8.862
    57   6 C        2.928     0.058    26.699     8.474
    58   6 C        2.924    -0.058    29.453     8.900
    59   6 C        2.920    -0.033    28.813     8.802
    60   6 C        2.917    -0.045    29.110     8.848
    61   6 C        2.928    -0.036    28.898     8.816
    62   6 C        2.979    -0.014    28.365     8.736
    63   1 H        0.925     0.031     2.567     2.506
    64   1 H        0.925     0.039     2.465     2.455
    65   1 H        0.925     0.039     2.463     2.454
    66   1 H        0.925     0.030     2.580     2.512
    67   1 H        0.925     0.039     2.466     2.456
    68   1 H        0.925     0.039     2.463     2.454
    69   1 H        0.926     0.029     2.594     2.519
    70   1 H        0.926     0.025     2.652     2.546
    71   1 H        0.926     0.026     2.641     2.541
    72   1 H        0.926     0.019     2.752     2.594
    73   1 H        0.926     0.046     2.371     2.408
    74   1 H        0.926     0.034     2.527     2.486
    75   1 H        0.926     0.054     2.268     2.355
    76   1 H        0.926     0.037     2.487     2.466
    77   1 H        0.926     0.032     2.553     2.499
    78   1 H        0.926     0.031     2.571     2.507
    79   1 H        0.926     0.031     2.573     2.508
    80   1 H        0.926     0.031     2.572     2.508
    81   1 H        0.926     0.032     2.558     2.501
    82   1 H        0.926     0.035     2.513     2.479
    83   1 H        0.926     0.033     2.546     2.495
    84   1 H        0.926     0.055     2.264     2.353
    85   1 H        0.926     0.035     2.517     2.481
    86   1 H        0.926     0.034     2.533     2.489
    87   1 H        0.926     0.034     2.529     2.487
    88   1 H        0.926     0.053     2.277     2.359
    89   1 H        0.926     0.067     2.124     2.279
    90   1 H        0.926     0.023     2.692     2.566
    91   1 H        0.926     0.028     2.621     2.532
    92   1 H        0.926     0.026     2.644     2.543
    93   1 H        0.926     0.030     2.586     2.515
    94   1 H        0.925     0.039     2.463     2.454
    95   1 H        0.925     0.031     2.568     2.506
    96   1 H        0.925     0.039     2.461     2.453
    97   1 H        0.925     0.039     2.459     2.452
    98   1 H        0.925     0.039     2.464     2.455
    99   1 H        0.925     0.032     2.562     2.503
   100   1 H        0.926     0.030     2.591     2.517
   101   1 H        0.926     0.026     2.646     2.544
   102   1 H        0.926     0.028     2.612     2.527
   103   1 H        0.926     0.027     2.633     2.537
   104   1 H        0.926     0.053     2.287     2.365
   105   1 H        0.926     0.022     2.708     2.573
   106   1 H        0.926     0.027     2.622     2.532
   107   1 H        0.926     0.026     2.647     2.544
   108   1 H        0.926     0.029     2.595     2.519

molecular dipole:
                 x           y           z       tot (Debye)
 q only:        0.484      -0.105      -0.010
   full:        0.540       0.304      -0.119       1.604

 projected vibrational frequencies (cm⁻¹)
eigval :       -0.00    -0.00     0.00     0.00     0.00     0.00
eigval :        3.90     6.10     9.95    12.07    13.82    15.76
eigval :       21.25    23.69    32.24    32.63    36.48    39.48
eigval :       54.62    63.25    66.22    73.35    82.39    87.50
eigval :       95.99    96.97    98.51   103.29   117.09   123.23
eigval :      127.98   129.49   137.34   148.06   168.05   188.17
eigval :      189.44   190.86   204.33   213.35   216.92   219.91
eigval :      225.45   234.23   241.48   242.56   250.81   260.30
eigval :      269.68   277.56   298.99   307.13   309.91   330.64
eigval :      330.93   332.85   338.53   346.74   354.88   365.83
eigval :      366.95   367.66   369.95   371.95   376.12   383.56
eigval :      386.16   397.90   410.53   411.83   417.86   427.32
eigval :      450.61   453.66   455.57   479.72   486.78   499.97
eigval :      507.16   514.90   515.52   525.91   530.51   543.01
eigval :      547.37   547.55   548.69   554.48   583.75   586.09
eigval :      586.84   588.65   594.63   599.28   603.63   616.05
eigval :      621.97   622.47   640.73   654.41   657.11   669.46
eigval :      671.99   674.01   678.26   681.56   682.32   683.32
eigval :      693.08   694.11   702.41   715.77   740.18   746.14
eigval :      758.10   769.34   775.37   776.74   777.27   778.22
eigval :      780.35   818.65   822.91   825.13   832.26   838.64
eigval :      846.13   851.16   863.83   864.56   866.74   867.82
eigval :      869.52   879.12   880.03   890.32   902.09   902.59
eigval :      911.77   912.74   913.27   913.66   914.47   916.65
eigval :      918.50   918.77   920.81   920.96   921.44   922.21
eigval :      927.35   932.12   932.34   932.90   934.40   938.34
eigval :      938.54   950.64   957.18   957.33   968.75   990.52
eigval :      998.78  1007.81  1014.33  1014.62  1027.00  1028.23
eigval :     1075.39  1076.53  1077.25  1077.55  1087.53  1088.07
eigval :     1094.02  1102.91  1108.64  1111.89  1113.11  1115.77
eigval :     1119.27  1120.94  1121.94  1140.83  1141.03  1141.93
eigval :     1153.19  1160.31  1160.64  1162.47  1177.56  1180.99
eigval :     1182.52  1183.78  1186.88  1187.35  1188.24  1189.82
eigval :     1190.58  1196.64  1202.49  1209.61  1222.61  1229.45
eigval :     1239.16  1249.18  1249.87  1251.73  1255.50  1266.92
eigval :     1269.79  1270.61  1271.79  1281.69  1292.20  1294.49
eigval :     1294.78  1295.65  1308.34  1318.64  1321.63  1324.73
eigval :     1326.41  1327.19  1330.27  1334.33  1335.49  1340.30
eigval :     1346.70  1366.01  1382.62  1394.68  1402.88  1403.13
eigval :     1404.62  1420.97  1421.35  1432.33  1433.68  1434.55
eigval :     1437.60  1438.27  1443.58  1445.51  1452.82  1466.66
eigval :     1472.99  1479.35  1482.64  1490.11  1490.25  1491.24
eigval :     1491.24  1494.25  1497.80  1500.81  1500.83  1501.26
eigval :     1505.35  1505.69  1521.10  1533.78  1562.27  1569.16
eigval :     1571.73  1576.13  1576.52  1582.77  1585.44  1591.03
eigval :     1591.41  1593.08  1593.25  1593.97  1596.24  1602.33
eigval :     1602.91  1603.61  3025.95  3026.60  3028.50  3028.79
eigval :     3038.98  3039.33  3041.76  3042.16  3048.02  3048.44
eigval :     3052.15  3052.75  3072.19  3072.38  3073.11  3075.88
eigval :     3076.59  3078.28  3078.39  3078.59  3078.81  3080.61
eigval :     3081.80  3082.39  3082.74  3083.54  3083.76  3085.81
eigval :     3087.87  3088.16  3090.66  3092.89  3093.31  3094.80
eigval :     3095.28  3095.71  3097.27  3097.49  3099.68  3103.49
eigval :     3103.77  3103.86  3104.83  3105.79  3109.51  3110.18

   temp. (K)  partition function   enthalpy   heat capacity  entropy
                                   cal/mol     cal/K/mol   cal/K/mol   J/K/mol
 298.15  VIB  0.446E+27            31322.368    192.583    198.646
         ROT  0.205E+09              888.752      2.981     41.015
         INT  0.915E+35            32211.120    195.564    239.661
         TR   0.219E+29             1481.254      4.968     45.892
         TOT                       33692.3742   200.5323   285.5533  1194.7551

       T/K    H(0)-H(T)+PV         H(T)/Eh          T*S/Eh         G(T)/Eh
   ------------------------------------------------------------------------
    298.15    0.536922E-01    0.909861E+00    0.135676E+00    0.774185E+00
   ------------------------------------------------------------------------

         :::::::::::::::::::::::::::::::::::::::::::::::::::::
         ::                  THERMODYNAMIC                  ::
         :::::::::::::::::::::::::::::::::::::::::::::::::::::
         :: total free energy        -158.648178611027 Eh   ::
         ::.................................................::
         :: total energy             -159.422363927320 Eh   ::
         :: zero point energy           0.856168698049 Eh   ::
         :: G(RRHO) w/o ZPVE           -0.081983381756 Eh   ::
         :: G(RRHO) contrib.            0.774185316293 Eh   ::
         :::::::::::::::::::::::::::::::::::::::::::::::::::::

           -------------------------------------------------
          | TOTAL ENERGY             -159.422363927320 Eh   |
          | TOTAL ENTHALPY           -158.512503013392 Eh   |
          | TOTAL FREE ENERGY        -158.648178611027 Eh   |
          | GRADIENT NORM               0.000035739694 Eh/α |
          | HOMO-LUMO GAP               1.663683406757 eV   |
           -------------------------------------------------

 * finished run on 2025/07/17 at 23:39:58.192
