   * xtb version 6.7.1 (edcfbbe) compiled by 'albert@albert-system' on 2024-07-22

   ID    Z sym.   atoms
    1    6 C      1-9, 11-28, 30-36, 38, 39, 41-62
    2    7 N      10, 29, 37, 40
    3    1 H      63-108

          program call               : xtb data2507/gas/DMAC-BPP/DMAC-BPP.xyz --gfn 2 --ohess vtight --parallel 40 --molden --ceasefiles --namespace data2507/gas/DMAC-BPP/DMAC-BPP_gas_S0_preOpt
          :  Hamiltonian                  GFN2-xTB          :
 * total energy  :  -159.3879411 Eh     change       -0.2979164E-08 Eh
 * total energy  :  -159.4084905 Eh     change       -0.2054937E-01 Eh
 * total energy  :  -159.4161712 Eh     change       -0.7680656E-02 Eh
 * total energy  :  -159.4184710 Eh     change       -0.2299842E-02 Eh
 * total energy  :  -159.4200273 Eh     change       -0.1556293E-02 Eh
 * total energy  :  -159.4206885 Eh     change       -0.6611646E-03 Eh
 * total energy  :  -159.4208774 Eh     change       -0.1889015E-03 Eh
 * total energy  :  -159.4209631 Eh     change       -0.8576541E-04 Eh
 * total energy  :  -159.4210514 Eh     change       -0.8829455E-04 Eh
 * total energy  :  -159.4211001 Eh     change       -0.4870861E-04 Eh
 * total energy  :  -159.4222859 Eh     change       -0.3854371E-06 Eh
 * total energy  :  -159.4222862 Eh     change       -0.3001232E-06 Eh
 * total energy  :  -159.4222865 Eh     change       -0.2965225E-06 Eh
 * total energy  :  -159.4222868 Eh     change       -0.2863245E-06 Eh
 * total energy  :  -159.4222871 Eh     change       -0.3377197E-06 Eh
 * total energy  :  -159.4222876 Eh     change       -0.4424737E-06 Eh
 * total energy  :  -159.4222880 Eh     change       -0.4531294E-06 Eh
 * total energy  :  -159.4222884 Eh     change       -0.3518442E-06 Eh
 * total energy  :  -159.4222884 Eh     change       -0.4135558E-08 Eh
   *** GEOMETRY OPTIMIZATION CONVERGED AFTER 152 ITERATIONS ***

 final structure:
================
108
 xtb: 6.7.1 (edcfbbe)
C           -2.09196008340827        6.95143565943892        0.28082531105427
C           -0.86927625749742        6.01603256636897        0.27292848451658
C            0.43091029073890        6.83800660616866        0.33871140681032
C           -0.87368620398939        5.22020968235617       -1.01875876972646
C           -0.81087024273799        5.88643493962212       -2.23475136877913
C           -0.79902533659122        5.21256042359606       -3.44218528394790
C           -0.83877197540800        3.83021240342359       -3.44587648761180
C           -0.90053761092240        3.14322180878026       -2.25208386209918
C           -0.93154466535004        3.82290304227856       -1.03112978857654
N           -1.00526008802950        3.10420849678288        0.15072700910470
C           -1.11571161369619        1.68868278365806        0.08459647635565
C            0.01764979582964        0.89908438992040        0.22121471907072
C           -0.09165531850592       -0.48620434742302        0.15789206400573
C            1.06792639594288       -1.36832118028225        0.35077929423635
C            2.37259079455285       -0.98942679834602        0.04808069145829
C            3.37856773955894       -1.92556336141681        0.29895291497641
C            4.79477406133993       -1.65851422377477        0.02890556076792
C            5.66145322816342       -2.73036371269948       -0.18287215154064
C            6.99854559859887       -2.51471614480790       -0.43850915289859
C            7.51421279516081       -1.22008564426827       -0.48811249428205
C            8.93909376829489       -0.98716226399999       -0.76114125458322
C            9.91442833113306       -1.79134163297983       -0.17560531754441
C           11.25481872821386       -1.56869210314508       -0.42959833137071
C           11.64253542204442       -0.54490320902287       -1.27784427711804
C           10.68112615207678        0.25820857239815       -1.86825414291110
C            9.34048385759745        0.04220007321800       -1.60978818145215
C            6.64827078099940       -0.15069114947831       -0.26678293664665
C            5.30935156338084       -0.36409064475870       -0.01063108780020
N            3.08436851182676       -3.12677776650504        0.79024176902534
C            1.81096699887034       -3.40812506789220        1.04021140301054
C            1.49432571696096       -4.73321066503146        1.57970121814657
C            0.17545376908759       -5.07000083351622        1.87941049982533
C           -0.12215815667304       -6.31982781382043        2.38679026544922
C            0.88924251129217       -7.24326682631100        2.60030690359910
C            2.20299197694715       -6.91247987387075        2.30701574657164
C            2.50725112410775       -5.66417466371153        1.79954729497990
N            0.79667846762773       -2.57432223941881        0.84056050631209
C           -1.33750461983850       -1.06576840963320       -0.06046503781198
C           -2.47233072974774       -0.27736776559189       -0.18836732178582
N           -3.73683301761891       -0.87938098982923       -0.38717255237080
C           -4.40268204802979       -0.67569181255311       -1.58978248495949
C           -3.79392907753778        0.06444916231893       -2.60781915198880
C           -4.44051067611319        0.30455622109865       -3.80134940002491
C           -5.70925153617425       -0.20379784388423       -4.01109375002530
C           -6.29736806923632       -0.97177647095813       -3.02408793905682
C           -5.66700240509315       -1.22979125251331       -1.81404701960709
C           -6.35298455948204       -2.11922002270060       -0.79587186074411
C           -7.69274998017425       -1.47517032810677       -0.39493761920228
C           -6.59339455085120       -3.49823173077858       -1.43724780306346
C           -5.51356720205338       -2.29989809006922        0.45388391157272
C           -5.99710662699244       -3.09506637035694        1.48466570495257
C           -5.30094263598283       -3.27281711762587        2.66494585367804
C           -4.09466710451297       -2.61945959408378        2.83915994767282
C           -3.59240509568963       -1.82329452868679        1.83188970153796
C           -4.27474416534153       -1.67263140128221        0.62064165776359
C           -2.36126859323716        1.10689870475145       -0.10706156755492
C           -1.01366063399849        3.72451331449797        1.38960358243336
C           -1.10205564944238        2.94954355083964        2.54931703498828
C           -1.10351485093513        3.53820873975293        3.79624903474200
C           -1.01959129525660        4.91414640088360        3.90786118382063
C           -0.94268112682083        5.68273816613983        2.76103282090209
C           -0.93999274493430        5.11726822823806        1.49341160738338
H           -3.00709716529144        6.36413620044185        0.23208366947672
H           -2.07108988853116        7.62497049268780       -0.57149131152230
H           -2.11693580799234        7.55008527187853        1.18718114933067
H            1.29098392308851        6.17082062587694        0.33471380650840
H            0.51166275414701        7.50613701581574       -0.51425855876410
H            0.46627491272643        7.43710631621252        1.24437648566353
H           -0.76985472219709        6.96518236950333       -2.24722798558706
H           -0.75341260524340        5.76294006386860       -4.36949540086321
H           -0.81964318454384        3.28314287058083       -4.37676654304333
H           -0.91818894985666        2.06402178451134       -2.26142282696578
H            0.96869763663243        1.37555571862559        0.40418054991523
H            2.58980466676238       -0.03321640347582       -0.39704773351613
H            5.25952484185626       -3.73106658053366       -0.15005131622250
H            7.65239899717564       -3.35468035635759       -0.62234963352265
H            9.61808048494031       -2.58051695648749        0.50006018267502
H           12.00097916502220       -2.19529730920974        0.03705246677161
H           12.68984868798817       -0.37345847071432       -1.47789658527147
H           10.97789947122363        1.05561141084095       -2.53406178799657
H            8.59389928653617        0.66126568150392       -2.08594892973488
H            7.03684120279389        0.85739676795341       -0.27237224550010
H            4.66876287916268        0.48301490718408        0.18566158259092
H           -0.60083438691381       -4.33967612702744        1.71206222514214
H           -1.14574796320197       -6.57681146243302        2.61776068979760
H            0.65404623415249       -8.22029467279487        2.99693393873910
H            2.99060541967374       -7.63235304780672        2.47630668387968
H            3.52457342717539       -5.38881196375029        1.56976104783680
H           -1.41151378532739       -2.14046179150571       -0.11776586008424
H           -2.79740879396493        0.45158967211700       -2.46722234489565
H           -3.94836361756602        0.88720974025213       -4.56566449274290
H           -6.23069669907831       -0.01738498754806       -4.93743976446256
H           -7.27846887686607       -1.38269982567896       -3.20825095568812
H           -8.22239792659074       -2.09499873345169        0.32319454757880
H           -8.33238868999145       -1.33718892506597       -1.26230044485330
H           -7.51388296549272       -0.50181383479449        0.05828863027253
H           -7.09689619587499       -4.16695004809351       -0.74475059323325
H           -7.20612918678781       -3.41053108893090       -2.33008629118951
H           -5.64168164551663       -3.94632016357363       -1.71696634482842
H           -6.94852175833143       -3.59173473124248        1.36863162168531
H           -5.70315169553553       -3.90325064014119        3.44322113623464
H           -3.54157709712098       -2.72408652055411        3.76063741180585
H           -2.65807419119370       -1.30869751070420        1.99105571982513
H           -3.23837701223450        1.73013556804771       -0.19828492104314
H           -1.17251319209270        1.87546174583614        2.46896006353625
H           -1.17159067354175        2.91943450358738        4.67855432379936
H           -1.01831865579694        5.38708165129917        4.87803645255254
H           -0.88494849095873        6.75590173177738        2.86357630245223

          :  Hamiltonian                  GFN2-xTB          :
         :: gradient norm              0.000045976738 Eh/a0 ::
         :: HOMO-LUMO gap              1.659530956802 eV    ::
         :: SCC energy              -162.349303314985 Eh    ::
         :: -> dispersion             -0.151142820633 Eh    ::
         :: repulsion energy           2.927014930929 Eh    ::

    * Orbital Energies and Occupations

         #    Occupation            Energy/Eh            Energy/eV
      -------------------------------------------------------------
         1        2.0000           -0.6765276             -18.4093
       ...           ...                  ...                  ...
       137        2.0000           -0.4036055             -10.9827
       138        2.0000           -0.4012363             -10.9182
       139        2.0000           -0.4006600             -10.9025
       140        2.0000           -0.3967946             -10.7973
       141        2.0000           -0.3961401             -10.7795
       142        2.0000           -0.3958381             -10.7713
       143        2.0000           -0.3949114             -10.7461
       144        2.0000           -0.3907019             -10.6315
       145        2.0000           -0.3897048             -10.6044
       146        2.0000           -0.3879788             -10.5574
       147        2.0000           -0.3603940              -9.8068
       148        2.0000           -0.3460234              -9.4158
       149        2.0000           -0.3437346              -9.3535 (HOMO)
       150                         -0.2827480              -7.6940 (LUMO)
       151                         -0.2728995              -7.4260
       152                         -0.2497405              -6.7958
       153                         -0.2437445              -6.6326
       154                         -0.2282750              -6.2117
       155                         -0.2263984              -6.1606
       156                         -0.2256836              -6.1412
       157                         -0.2219749              -6.0402
       158                         -0.2217487              -6.0341
       159                         -0.2216251              -6.0307
       160                         -0.2171322              -5.9085
       ...                                ...                  ...
       294                          0.6947508              18.9051
      -------------------------------------------------------------
                  HL-Gap            0.0609866 Eh            1.6595 eV

     #   Z          covCN         q      C6AA      α(0)
     1   6 C        3.761    -0.103    22.506     6.763
     2   6 C        3.909     0.022    20.155     6.381
     3   6 C        3.761    -0.103    22.505     6.763
     4   6 C        2.979    -0.014    28.363     8.736
     5   6 C        2.928    -0.036    28.896     8.816
     6   6 C        2.917    -0.045    29.116     8.848
     7   6 C        2.919    -0.033    28.813     8.802
     8   6 C        2.925    -0.058    29.440     8.898
     9   6 C        2.929     0.058    26.697     8.473
    10   7 N        2.755    -0.073    22.650     7.068
    11   6 C        2.927     0.072    26.391     8.425
    12   6 C        2.924    -0.046    29.134     8.852
    13   6 C        2.981     0.007    27.864     8.659
    14   6 C        2.971     0.110    25.569     8.294
    15   6 C        2.911    -0.066    29.631     8.926
    16   6 C        2.968     0.111    25.541     8.290
    17   6 C        2.980     0.002    27.982     8.677
    18   6 C        2.924    -0.025    28.620     8.773
    19   6 C        2.923    -0.033    28.816     8.803
    20   6 C        2.977     0.014    27.699     8.633
    21   6 C        2.977     0.010    27.784     8.646
    22   6 C        2.925    -0.033    28.820     8.804
    23   6 C        2.918    -0.029    28.722     8.788
    24   6 C        2.920    -0.030    28.748     8.793
    25   6 C        2.918    -0.029    28.725     8.789
    26   6 C        2.925    -0.033    28.823     8.804
    27   6 C        2.923    -0.034    28.844     8.807
    28   6 C        2.921    -0.031    28.782     8.798
    29   7 N        1.850    -0.268    27.817     7.817
    30   6 C        2.945     0.182    24.103     8.052
    31   6 C        2.985     0.002    27.985     8.678
    32   6 C        2.924    -0.026    28.653     8.778
    33   6 C        2.918    -0.028    28.705     8.786
    34   6 C        2.920    -0.026    28.643     8.776
    35   6 C        2.918    -0.028    28.712     8.787
    36   6 C        2.924    -0.026    28.660     8.779
    37   7 N        1.852    -0.270    27.866     7.824
    38   6 C        2.930    -0.039    28.975     8.828
    39   6 C        2.925     0.072    26.384     8.424
    40   7 N        2.753    -0.068    22.550     7.053
    41   6 C        2.926     0.058    26.709     8.475
    42   6 C        2.925    -0.058    29.443     8.898
    43   6 C        2.920    -0.033    28.813     8.802
    44   6 C        2.917    -0.044    29.098     8.846
    45   6 C        2.928    -0.036    28.899     8.816
    46   6 C        2.980    -0.013    28.338     8.732
    47   6 C        3.909     0.021    20.156     6.381
    48   6 C        3.761    -0.103    22.510     6.763
    49   6 C        3.761    -0.103    22.515     6.764
    50   6 C        2.980    -0.013    28.338     8.732
    51   6 C        2.928    -0.036    28.900     8.816
    52   6 C        2.917    -0.044    29.094     8.845
    53   6 C        2.920    -0.032    28.805     8.801
    54   6 C        2.924    -0.058    29.431     8.897
    55   6 C        2.926     0.058    26.705     8.475
    56   6 C        2.924    -0.048    29.199     8.861
    57   6 C        2.928     0.058    26.699     8.474
    58   6 C        2.924    -0.059    29.458     8.901
    59   6 C        2.920    -0.033    28.814     8.803
    60   6 C        2.917    -0.045    29.113     8.848
    61   6 C        2.928    -0.036    28.899     8.816
    62   6 C        2.979    -0.014    28.368     8.737
    63   1 H        0.925     0.031     2.569     2.506
    64   1 H        0.925     0.039     2.464     2.455
    65   1 H        0.925     0.039     2.464     2.455
    66   1 H        0.925     0.030     2.582     2.513
    67   1 H        0.925     0.039     2.465     2.455
    68   1 H        0.925     0.039     2.464     2.455
    69   1 H        0.926     0.029     2.595     2.519
    70   1 H        0.926     0.026     2.650     2.546
    71   1 H        0.926     0.027     2.636     2.539
    72   1 H        0.926     0.019     2.752     2.594
    73   1 H        0.926     0.045     2.377     2.411
    74   1 H        0.926     0.034     2.527     2.486
    75   1 H        0.926     0.053     2.278     2.360
    76   1 H        0.926     0.037     2.488     2.467
    77   1 H        0.926     0.033     2.544     2.494
    78   1 H        0.926     0.031     2.568     2.506
    79   1 H        0.926     0.031     2.572     2.508
    80   1 H        0.926     0.031     2.573     2.508
    81   1 H        0.926     0.032     2.563     2.504
    82   1 H        0.926     0.035     2.515     2.480
    83   1 H        0.926     0.032     2.557     2.501
    84   1 H        0.926     0.054     2.266     2.354
    85   1 H        0.926     0.035     2.517     2.481
    86   1 H        0.926     0.034     2.533     2.489
    87   1 H        0.926     0.034     2.529     2.487
    88   1 H        0.926     0.053     2.277     2.360
    89   1 H        0.926     0.066     2.125     2.279
    90   1 H        0.926     0.023     2.684     2.562
    91   1 H        0.926     0.028     2.618     2.530
    92   1 H        0.926     0.026     2.643     2.542
    93   1 H        0.926     0.030     2.587     2.515
    94   1 H        0.925     0.039     2.461     2.453
    95   1 H        0.925     0.039     2.463     2.454
    96   1 H        0.925     0.031     2.569     2.506
    97   1 H        0.925     0.039     2.460     2.452
    98   1 H        0.925     0.039     2.464     2.455
    99   1 H        0.925     0.032     2.563     2.503
   100   1 H        0.926     0.030     2.590     2.517
   101   1 H        0.926     0.026     2.645     2.543
   102   1 H        0.926     0.029     2.607     2.525
   103   1 H        0.926     0.028     2.619     2.531
   104   1 H        0.926     0.052     2.292     2.367
   105   1 H        0.926     0.022     2.710     2.574
   106   1 H        0.926     0.027     2.626     2.534
   107   1 H        0.926     0.026     2.649     2.545
   108   1 H        0.926     0.029     2.596     2.520

molecular dipole:
                 x           y           z       tot (Debye)
 q only:        0.440      -0.218      -0.087
   full:        0.550       0.173      -0.223       1.572

 projected vibrational frequencies (cm⁻¹)
eigval :       -0.00    -0.00    -0.00    -0.00    -0.00     0.00
eigval :        4.03     6.19     9.16    12.09    13.02    15.69
eigval :       21.96    25.19    27.11    30.51    37.87    40.97
eigval :       55.52    61.69    65.75    71.87    83.74    92.04
eigval :       95.98    97.31   100.82   101.70   110.77   121.03
eigval :      127.80   129.44   135.56   150.14   177.79   189.14
eigval :      189.96   190.75   201.96   210.48   217.58   220.07
eigval :      223.81   231.38   238.94   241.79   252.33   261.48
eigval :      272.81   280.43   306.61   307.57   310.26   328.22
eigval :      330.70   332.72   338.78   346.19   350.58   356.55
eigval :      366.29   366.94   370.43   371.95   375.64   384.61
eigval :      387.04   407.39   410.42   412.99   422.11   425.39
eigval :      450.61   453.98   456.95   473.92   487.34   496.66
eigval :      504.28   514.78   515.50   531.42   531.72   542.81
eigval :      547.19   547.53   548.85   556.32   582.71   586.14
eigval :      586.82   587.60   593.21   597.96   604.71   615.66
eigval :      622.44   623.95   640.94   653.97   657.03   668.64
eigval :      671.81   674.23   678.30   681.05   682.30   683.37
eigval :      693.07   694.21   702.65   715.91   739.50   746.36
eigval :      758.52   769.28   774.09   776.60   777.53   778.54
eigval :      780.44   818.54   822.94   825.13   832.76   839.76
eigval :      844.77   851.38   861.33   864.60   867.87   868.10
eigval :      869.25   878.84   879.45   889.70   902.18   902.98
eigval :      911.27   912.35   913.16   913.70   914.56   916.42
eigval :      918.50   918.76   920.34   921.01   921.52   922.48
eigval :      926.76   931.77   932.20   932.84   934.34   938.32
eigval :      938.61   950.70   957.15   957.32   968.76   990.44
eigval :      998.79  1007.82  1014.29  1014.63  1027.05  1028.25
eigval :     1075.46  1076.47  1077.21  1077.63  1087.55  1088.01
eigval :     1094.12  1102.88  1108.43  1111.61  1112.84  1115.83
eigval :     1119.01  1121.06  1121.90  1140.55  1140.87  1141.97
eigval :     1153.13  1160.31  1160.69  1161.92  1177.53  1180.92
eigval :     1182.54  1183.18  1185.41  1187.38  1188.12  1190.09
eigval :     1190.71  1196.28  1202.01  1209.55  1222.51  1228.80
eigval :     1239.18  1248.06  1250.05  1251.99  1255.33  1266.04
eigval :     1269.60  1270.54  1271.53  1281.60  1292.08  1294.37
eigval :     1294.61  1295.72  1308.56  1318.68  1321.52  1324.57
eigval :     1326.44  1327.18  1330.22  1334.35  1335.60  1339.41
eigval :     1346.59  1365.59  1382.41  1394.70  1402.81  1403.13
eigval :     1404.46  1420.89  1421.41  1432.11  1433.64  1434.46
eigval :     1437.52  1438.04  1444.00  1444.91  1452.61  1466.85
eigval :     1472.87  1478.87  1482.58  1490.08  1490.18  1491.21
eigval :     1491.31  1493.94  1497.76  1500.81  1500.88  1501.34
eigval :     1505.31  1505.67  1520.80  1533.86  1562.42  1568.93
eigval :     1571.57  1576.05  1576.52  1582.93  1585.46  1590.96
eigval :     1591.44  1593.23  1593.44  1594.12  1596.26  1602.35
eigval :     1603.03  1603.73  3025.95  3026.55  3028.46  3028.70
eigval :     3038.94  3039.35  3041.75  3042.17  3047.95  3048.47
eigval :     3052.12  3052.93  3072.12  3072.37  3073.30  3075.89
eigval :     3077.21  3078.17  3078.55  3078.73  3079.26  3080.74
eigval :     3081.96  3082.35  3082.56  3083.98  3084.32  3086.00
eigval :     3087.93  3088.21  3091.57  3092.68  3093.39  3095.24
eigval :     3095.96  3096.52  3097.28  3098.05  3099.50  3104.08
eigval :     3104.73  3106.19  3106.82  3108.28  3109.35  3110.92

   temp. (K)  partition function   enthalpy   heat capacity  entropy
                                   cal/mol     cal/K/mol   cal/K/mol   J/K/mol
 298.15  VIB  0.522E+27            31324.817    192.558    198.737
         ROT  0.205E+09              888.752      2.981     41.017
         INT  0.107E+36            32213.569    195.539    239.754
         TR   0.219E+29             1481.254      4.968     45.892
         TOT                       33694.8230   200.5068   285.6462  1195.1435

       T/K    H(0)-H(T)+PV         H(T)/Eh          T*S/Eh         G(T)/Eh
   ------------------------------------------------------------------------
    298.15    0.536961E-01    0.909862E+00    0.135720E+00    0.774142E+00
   ------------------------------------------------------------------------

         :::::::::::::::::::::::::::::::::::::::::::::::::::::
         ::                  THERMODYNAMIC                  ::
         :::::::::::::::::::::::::::::::::::::::::::::::::::::
         :: total free energy        -158.648146030758 Eh   ::
         ::.................................................::
         :: total energy             -159.422288384056 Eh   ::
         :: zero point energy           0.856165940925 Eh   ::
         :: G(RRHO) w/o ZPVE           -0.082023587627 Eh   ::
         :: G(RRHO) contrib.            0.774142353298 Eh   ::
         :::::::::::::::::::::::::::::::::::::::::::::::::::::

           -------------------------------------------------
          | TOTAL ENERGY             -159.422288384056 Eh   |
          | TOTAL ENTHALPY           -158.512426324772 Eh   |
          | TOTAL FREE ENERGY        -158.648146030758 Eh   |
          | GRADIENT NORM               0.000045972695 Eh/α |
          | HOMO-LUMO GAP               1.659530731304 eV   |
           -------------------------------------------------

 * finished run on 2025/07/17 at 23:31:25.018
