   * xtb version 6.7.1 (edcfbbe) compiled by 'albert@albert-system' on 2024-07-22

   ID    Z sym.   atoms
    1    6 C      1-9, 11-28, 30-36, 38, 39, 41-62
    2    7 N      10, 29, 37, 40
    3    1 H      63-108

          program call               : xtb data2507/gas/DMAC-BPP/DMAC-BPP_gas_T1_crest.xyz --gfn 2 --spinpol --tblite --uhf 2 --ohess vtight --parallel 40 --molden --ceasefiles --namespace data2507/gas/DMAC-BPP/DMAC-BPP_gas_T1_finalOpt
 * total energy  :  -159.3546648 Eh     change       -0.4452491E-07 Eh
 * total energy  :  -159.3547048 Eh     change       -0.4000634E-04 Eh
 * total energy  :  -159.3547200 Eh     change       -0.1514418E-04 Eh
 * total energy  :  -159.3547215 Eh     change       -0.1557198E-05 Eh
 * total energy  :  -159.3547233 Eh     change       -0.1793449E-05 Eh
 * total energy  :  -159.3547250 Eh     change       -0.1708265E-05 Eh
 * total energy  :  -159.3547277 Eh     change       -0.2678516E-05 Eh
 * total energy  :  -159.3547294 Eh     change       -0.1645616E-05 Eh
 * total energy  :  -159.3547301 Eh     change       -0.7870754E-06 Eh
 * total energy  :  -159.3547308 Eh     change       -0.6687387E-06 Eh
 * total energy  :  -159.3547509 Eh     change       -0.2700766E-06 Eh
 * total energy  :  -159.3547512 Eh     change       -0.3105699E-06 Eh
 * total energy  :  -159.3547517 Eh     change       -0.4854191E-06 Eh
 * total energy  :  -159.3547524 Eh     change       -0.7585292E-06 Eh
 * total energy  :  -159.3547533 Eh     change       -0.9178810E-06 Eh
 * total energy  :  -159.3547541 Eh     change       -0.7473351E-06 Eh
 * total energy  :  -159.3547548 Eh     change       -0.7506689E-06 Eh
 * total energy  :  -159.3547556 Eh     change       -0.7942415E-06 Eh
 * total energy  :  -159.3547556 Eh     change       -0.5950682E-08 Eh
   *** GEOMETRY OPTIMIZATION CONVERGED AFTER 68 ITERATIONS ***

 final structure:
================
108
 xtb: 6.7.1 (edcfbbe)
C           -2.91031589731107        6.86243329211051        0.14001132319048
C           -1.62518040668885        6.01427425717801        0.16989028216128
C           -0.38717793257486        6.92682443631075        0.24932385622073
C           -1.54973653782544        5.20350724842857       -1.10866678994816
C           -1.51984608211795        5.85365703551692       -2.33446794415524
C           -1.45271717411873        5.16164914860289       -3.52979810647334
C           -1.41296209199130        3.77755686777405       -3.51328096826596
C           -1.43957862794600        3.10560228983162       -2.31131707744872
C           -1.50757715124022        3.80311311729896       -1.09935700917215
N           -1.53023442066783        3.10093400241723        0.08856217588878
C           -1.49596476370577        1.67542074395619        0.04838868775999
C           -0.28269753627833        1.02346215344829        0.06537847727489
C           -0.21947733138155       -0.38520959170006        0.02912173509614
C            1.00572846741742       -1.11970698318268        0.04459841012219
C            2.28629364980559       -0.53935124482766        0.03679625455599
C            3.39212633080435       -1.36963166544153        0.04426573510516
C            4.76387142556305       -0.90591065441258        0.01966491226096
C            5.79951077120160       -1.84542140132466       -0.09632157469041
C            7.11705745000787       -1.45514732815702       -0.12574823914521
C            7.46929657408172       -0.10581106859984       -0.04770495882387
C            8.87328542325640        0.31332762094446       -0.08640127937741
C            9.85742244834560       -0.42652034103537        0.56876325520692
C           11.18057264198309       -0.03022465070596        0.53212553227593
C           11.54883218464824        1.10973806943585       -0.16315850605986
C           10.58151798747049        1.85229353951456       -0.81997077516127
C            9.25709670327725        1.46046768885425       -0.78063898842990
C            6.44125324851089        0.83213133185740        0.06910775654340
C            5.12090683772047        0.44577719549459        0.10723323439967
N            3.20344531770177       -2.72128293072709        0.06351971253784
C            1.98721169481463       -3.23491183087170        0.07086937477851
C            1.83415285668536       -4.69058868467994        0.09369806369380
C            0.56553252987033       -5.26514857762745        0.08634937417221
C            0.42447314496266       -6.63890670590811        0.10920065618925
C            1.54621316945843       -7.45260449299836        0.13989026406351
C            2.81152900891616       -6.88729718653313        0.14834314458028
C            2.95698001341927       -5.51371348150320        0.12550666643085
N            0.91605486297018       -2.48178689868609        0.06010702564411
C           -1.44539771684782       -1.08654888005452       -0.02264712749351
C           -2.64671022078946       -0.41883759874705       -0.04126738907569
N           -3.86720917778301       -1.15535164096571       -0.09885733193797
C           -4.41450618487384       -1.44365723495690       -1.33210860985803
C           -3.75763803543244       -1.02097717908573       -2.49411360305111
C           -4.27913334597967       -1.29224830208293       -3.73952857930577
C           -5.46793781616404       -1.99384777495479       -3.85085314598761
C           -6.11800354107175       -2.41514818928864       -2.70539187226391
C           -5.61741470824926       -2.15457574200932       -1.43746376744192
C           -6.37271205354711       -2.64189571224075       -0.21704847228281
C           -7.78027455117283       -2.01691423824543       -0.22595863931887
C           -6.47171034413002       -4.17752267368090       -0.27989650823841
C           -5.67683479425832       -2.25388749103261        1.07237037759802
C           -6.23594061067347       -2.61330912106720        2.29070472129873
C           -5.64178496953388       -2.28435063228063        3.49525482161764
C           -4.45158193725561       -1.57629241816570        3.49599514172220
C           -3.87268346457377       -1.20799159070607        2.30192677094623
C           -4.47187301384189       -1.53870888257435        1.08048019891828
C           -2.70038776108108        0.97531370096158       -0.00630237206226
C           -1.60856585279351        3.73248550976536        1.31326359758337
C           -1.63773311886093        2.96534277507171        2.48400229402269
C           -1.71342690494921        3.56595088017187        3.72113863359082
C           -1.75965423445198        4.94675376565187        3.81495962885020
C           -1.72946646345971        5.70746732276551        2.66058670172144
C           -1.65563802381445        5.13001886541215        1.40070939049424
H           -3.78131612823181        6.21260941653508        0.07871992738534
H           -2.91659580036131        7.52658900981480       -0.71962971428979
H           -2.99642189433849        7.46764768549850        1.03801965232249
H            0.51748577685352        6.32227349562932        0.27442005685922
H           -0.33550254179537        7.58571089087607       -0.61290062400110
H           -0.41477531598864        7.54008717002996        1.14563272917048
H           -1.54951044238770        6.93228351487209       -2.36465938632007
H           -1.43135362941846        5.69914339556303       -4.46537875212426
H           -1.36038756487511        3.22072631014325       -4.43664291559916
H           -1.40517582139258        2.02760138225380       -2.29967815413636
H            0.61638192929718        1.61700618456352        0.11159635040378
H            2.40052042346888        0.53041946052589        0.00902697312825
H            5.53692850538194       -2.88974880870976       -0.17037758549120
H            7.89166747244087       -2.20044644499326       -0.23675206575911
H            9.57618537440240       -1.30640331403686        1.12914597846571
H           11.92966116869503       -0.61151574667904        1.05074413286016
H           12.58374236760707        1.41765395287256       -0.19309380647148
H           10.86270603619021        2.74014478938454       -1.36835920646953
H            8.51182809209996        2.03474989789562       -1.31188202659644
H            6.68905943675234        1.88042346529667        0.15783379037519
H            4.36206489835137        1.20564865115978        0.21687410907578
H           -0.29862257710757       -4.61902989787049        0.06326585892561
H           -0.56173464569461       -7.08014303483889        0.10344945622248
H            1.43405114172839       -8.52691027584753        0.15783012040641
H            3.68537446188239       -7.52196154972180        0.17320565010351
H            3.93550544344864       -5.05878544950997        0.13382441668637
H           -1.42450466972825       -2.16421671533815       -0.05054380144309
H           -2.82902223797203       -0.47921699889646       -2.40888525179805
H           -3.75719468327350       -0.95712716842688       -4.62307496672388
H           -5.88582964260248       -2.21300484294965       -4.82143606097230
H           -7.04229027645641       -2.96294766644329       -2.80963124849719
H           -8.31968575603210       -2.28910235441365       -1.12875203813176
H           -7.70389230970860       -0.93194168702797       -0.18515447009221
H           -8.35905562759981       -2.35239874504405        0.62992638073733
H           -7.02498997173581       -4.56504778270488        0.57097256056735
H           -6.97546452511403       -4.49636994068944       -1.18809886611282
H           -5.47445078796935       -4.61322978173545       -0.26893804592198
H           -7.16254868607049       -3.16681775414478        2.30757800674402
H           -6.10421499823781       -2.57934776529649        4.42467856406225
H           -3.97332035689080       -1.31169614208115        4.42691969989730
H           -2.94329898004764       -0.66084796729739        2.30356266828717
H           -3.64428430973246        1.49616891441589       -0.02032871245386
H           -1.59744909417319        1.88988181822906        2.41255739273025
H           -1.73517367178832        2.95612112284454        4.61166890640067
H           -1.81775573208206        5.42869767528213        4.77881927651474
H           -1.76446499894886        6.78255613839739        2.75110212870088

 projected vibrational frequencies (cm⁻¹)
eigval :       -0.00     0.00     0.00     0.00     0.00     0.00
eigval :        1.60     3.44     5.93     6.71    12.97    14.65
eigval :       16.57    20.64    27.18    28.57    36.32    41.67
eigval :       57.52    58.62    62.35    70.31    86.66    90.57
eigval :       93.39    95.60    98.20    99.04   112.59   119.40
eigval :      129.81   129.92   131.55   149.44   176.50   189.34
eigval :      191.90   192.01   192.75   205.95   210.39   218.20
eigval :      218.68   224.30   234.90   242.86   247.27   258.77
eigval :      263.30   275.01   302.69   305.61   307.77   328.32
eigval :      328.47   330.07   338.12   345.13   357.77   359.71
eigval :      366.14   366.96   371.86   372.87   376.22   384.68
eigval :      385.89   402.15   408.39   410.30   413.04   418.43
eigval :      449.60   450.68   454.01   463.04   490.97   496.63
eigval :      510.23   510.71   516.20   520.70   520.89   540.44
eigval :      544.26   544.95   546.48   555.75   563.36   580.46
eigval :      583.32   584.88   586.76   589.20   590.04   597.80
eigval :      607.16   610.38   623.41   637.66   648.02   649.47
eigval :      659.19   664.32   664.73   667.69   677.59   685.05
eigval :      685.10   686.80   697.11   697.31   710.24   742.93
eigval :      754.91   765.71   767.92   771.95   773.64   774.69
eigval :      776.39   779.14   804.93   809.25   822.83   824.61
eigval :      825.65   837.19   839.44   852.78   855.36   862.13
eigval :      862.72   866.74   867.19   874.62   875.93   896.48
eigval :      904.07   910.25   912.93   913.71   913.75   914.20
eigval :      914.59   915.72   919.47   920.56   920.65   921.35
eigval :      921.47   927.67   929.23   930.36   930.55   931.92
eigval :      937.81   938.34   957.50   957.57   961.56   968.74
eigval :      985.28   993.84  1001.76  1013.75  1013.77  1021.76
eigval :     1071.02  1073.71  1075.04  1076.74  1077.06  1079.21
eigval :     1088.03  1090.42  1095.79  1107.89  1109.65  1110.07
eigval :     1115.43  1116.15  1122.16  1131.93  1138.72  1139.95
eigval :     1147.34  1151.77  1155.97  1156.29  1165.24  1175.65
eigval :     1180.44  1180.86  1182.79  1183.68  1184.89  1186.56
eigval :     1186.60  1193.10  1198.46  1209.05  1211.73  1224.16
eigval :     1237.30  1241.66  1244.00  1246.64  1259.21  1260.78
eigval :     1265.66  1268.94  1279.50  1283.14  1292.32  1294.38
eigval :     1294.49  1294.86  1301.76  1320.31  1324.52  1324.77
eigval :     1324.96  1326.78  1331.24  1333.02  1335.31  1335.67
eigval :     1337.38  1338.52  1355.33  1378.89  1385.81  1401.86
eigval :     1401.97  1406.90  1418.92  1419.83  1420.24  1433.32
eigval :     1433.57  1434.40  1434.85  1435.79  1437.23  1441.21
eigval :     1464.58  1464.71  1465.89  1468.58  1484.70  1485.25
eigval :     1488.50  1488.61  1488.90  1489.54  1489.62  1497.69
eigval :     1499.30  1499.37  1502.95  1503.04  1503.12  1535.08
eigval :     1556.49  1564.18  1564.95  1578.16  1578.57  1580.12
eigval :     1584.57  1584.79  1585.34  1586.26  1595.24  1595.94
eigval :     1597.44  1602.08  3027.77  3028.03  3029.85  3030.21
eigval :     3041.21  3041.23  3043.70  3043.78  3050.00  3050.03
eigval :     3053.44  3053.58  3067.07  3068.38  3071.05  3072.35
eigval :     3073.42  3077.79  3079.28  3081.44  3081.56  3081.57
eigval :     3081.73  3082.68  3086.18  3086.32  3086.57  3086.67
eigval :     3086.81  3087.56  3089.34  3094.05  3096.96  3097.02
eigval :     3097.29  3097.37  3097.74  3099.80  3101.84  3105.73
eigval :     3106.01  3106.38  3107.92  3108.33  3111.25  3118.13

   temp. (K)  partition function   enthalpy   heat capacity  entropy
                                   cal/mol     cal/K/mol   cal/K/mol   J/K/mol
 298.15  VIB  0.181E+29            31643.734    194.178    203.423
         ROT  0.205E+09              888.752      2.981     41.019
         INT  0.373E+37            32532.486    197.159    244.442
         TR   0.219E+29             1481.254      4.968     45.892
         TOT                       34013.7398   202.1268   290.3338  1214.7568

       T/K    H(0)-H(T)+PV         H(T)/Eh          T*S/Eh         G(T)/Eh
   ------------------------------------------------------------------------
    298.15    0.542043E-01    0.906573E+00    0.137947E+00    0.768626E+00
   ------------------------------------------------------------------------

         :::::::::::::::::::::::::::::::::::::::::::::::::::::
         ::                  THERMODYNAMIC                  ::
         :::::::::::::::::::::::::::::::::::::::::::::::::::::
         :: total free energy        -158.586129887112 Eh   ::
         ::.................................................::
         :: total energy             -159.354755589435 Eh   ::
         :: zero point energy           0.852368335220 Eh   ::
         :: G(RRHO) w/o ZPVE           -0.083742632896 Eh   ::
         :: G(RRHO) contrib.            0.768625702323 Eh   ::
         :::::::::::::::::::::::::::::::::::::::::::::::::::::

           -------------------------------------------------
          | TOTAL ENERGY             -159.354755589435 Eh   |
          | TOTAL ENTHALPY           -158.448182909573 Eh   |
          | TOTAL FREE ENERGY        -158.586129887112 Eh   |
          | GRADIENT NORM               0.000067058629 Eh/α |
           -------------------------------------------------

 * finished run on 2025/07/17 at 23:51:13.963
