   * xtb version 6.7.1 (edcfbbe) compiled by 'albert@albert-system' on 2024-07-22

   ID    Z sym.   atoms
    1    6 C      1-12, 14-28, 32-34
    2    7 N      13, 29, 30
    3   16 S      31
    4    1 H      35-53

          program call               : xtb data2507/gas/CPBzFC/CPBzFC_gas_S0_finalOpt.xtbopt.xyz --gfn 2 --spinpol --tblite --uhf 2 --ohess vtight --parallel 40 --molden --ceasefiles --namespace data2507/gas/CPBzFC/CPBzFC_gas_T1_preOpt
 * total energy  :   -85.8806256 Eh     change        0.4275670E-07 Eh
 * total energy  :   -85.8843811 Eh     change       -0.3755417E-02 Eh
 * total energy  :   -85.8860922 Eh     change       -0.1711112E-02 Eh
 * total energy  :   -85.8864815 Eh     change       -0.3893498E-03 Eh
 * total energy  :   -85.8869397 Eh     change       -0.4581910E-03 Eh
 * total energy  :   -85.8872613 Eh     change       -0.3215612E-03 Eh
 * total energy  :   -85.8875393 Eh     change       -0.2780484E-03 Eh
 * total energy  :   -85.8877106 Eh     change       -0.1712455E-03 Eh
 * total energy  :   -85.8877789 Eh     change       -0.6832030E-04 Eh
 * total energy  :   -85.8878175 Eh     change       -0.3866171E-04 Eh
 * total energy  :   -85.8882336 Eh     change       -0.5125854E-06 Eh
 * total energy  :   -85.8882341 Eh     change       -0.5294348E-06 Eh
 * total energy  :   -85.8882347 Eh     change       -0.5878654E-06 Eh
 * total energy  :   -85.8882354 Eh     change       -0.6918460E-06 Eh
 * total energy  :   -85.8882362 Eh     change       -0.7805804E-06 Eh
 * total energy  :   -85.8882370 Eh     change       -0.8028371E-06 Eh
 * total energy  :   -85.8882377 Eh     change       -0.7071937E-06 Eh
 * total energy  :   -85.8882377 Eh     change        0.3593253E-07 Eh
 * total energy  :   -85.8882377 Eh     change       -0.3327226E-07 Eh
   *** GEOMETRY OPTIMIZATION CONVERGED AFTER 45 ITERATIONS ***

 final structure:
================
53
 xtb: 6.7.1 (edcfbbe)
C            8.82303014597631       -0.84685015685385       -0.26971836141051
C            8.23024768712762       -0.12936803371971        0.75772322245244
C            6.85619267553985       -0.05906517587437        0.85710162527956
C            6.03408151602207       -0.71013378026430       -0.07228957328303
C            4.59088057798326       -0.62974578229056        0.01250187197224
C            3.75629595270509       -1.70097615126220       -0.43598720111432
C            2.39811961444309       -1.61589118680439       -0.44805457543045
C            1.67859121305721       -0.46742982618001       -0.01271256238798
C            0.25740059661247       -0.40350921863759       -0.00476902249108
C           -0.54342654290698       -1.34252870048402       -0.70353858449266
C           -1.90959023188924       -1.25750399962187       -0.71204836579115
C           -2.56854138740426       -0.23124997536667       -0.02066550510520
N           -3.95681411286843       -0.14717716728588       -0.02943589634389
C           -4.83298723809755       -1.19559705441956        0.18006198302113
C           -4.56698237117954       -2.51998056813281        0.50002896074843
C           -5.64316760253391       -3.36735935058741        0.68819439319054
C           -6.95446005614791       -2.91304869445734        0.57590344280611
C           -7.22600258273441       -1.58743698073301        0.29067123903135
C           -6.16236391946199       -0.71953285075676        0.09652653482263
C           -6.07460137352719        0.68951149674869       -0.17978266951409
C           -7.02293785168669        1.67962174093960       -0.38697265610855
C           -6.58887782507726        2.96271759542051       -0.66525266451469
C           -5.23071354989530        3.25516779033459       -0.75783063687956
C           -4.26727177491831        2.28394080977581       -0.55734748576851
C           -4.69655048598491        1.00119010584112       -0.24513899139899
C           -1.79835607456882        0.70487105285377        0.68385992985956
C           -0.43313347236080        0.61573125002576        0.69790594284638
C            2.49962989387094        0.61648883920739        0.44962961538570
N            2.09667098098170        1.82860009168891        0.81394671399286
N            3.00078948502648        2.63775979892111        1.20309348518889
S            4.54169436499725        2.00931713192866        1.05771280337843
C            3.91734286946812        0.49040237050940        0.48400402804364
C            6.65007788526111       -1.44085448717702       -1.09873618467524
C            8.02363608904500       -1.50220372924735       -1.19562200005424
H            9.89860105797392       -0.89866061862933       -0.34737927993182
H            8.84503640229704        0.37304755505615        1.48999647434565
H            6.41035487939919        0.46926315079710        1.68650947381095
H            4.23345632771067       -2.61694093444324       -0.74766473553437
H            1.84020929179723       -2.48260993185904       -0.76563738328187
H           -0.07556431683367       -2.11560152799322       -1.29170651196267
H           -2.49168290929821       -1.95613303542579       -1.29522162303213
H           -3.55535632293291       -2.87705530750393        0.61584601554179
H           -5.46184583616761       -4.40305958319192        0.93374155501300
H           -7.76833670103659       -3.60598127271106        0.72757147929833
H           -8.24268779354265       -1.23092698377689        0.22585400440952
H           -8.07606282238192        1.44844286730496       -0.33696911190788
H           -7.31082071814961        3.74921123303207       -0.82580933741121
H           -4.92178752243796        4.26173626913283       -0.99643151686073
H           -3.21855263811777        2.51736306248840       -0.65548575611708
H           -2.29707498504464        1.47137773282603        1.25811605852315
H            0.14177628522754        1.32835742762697        1.26858944451293
H            6.04078550160264       -1.92871247163241       -1.84471868069743
H            8.47914833279383       -2.05900287225687       -2.00172733047148

 projected vibrational frequencies (cm⁻¹)
eigval :       -0.00    -0.00     0.00     0.00     0.00     0.00
eigval :       13.45    18.27    27.77    39.20    58.75    68.55
eigval :       80.20    85.74    99.36   111.96   131.10   141.07
eigval :      149.98   174.31   212.78   219.25   227.39   243.67
eigval :      271.49   294.57   300.65   316.02   346.44   372.17
eigval :      382.26   385.76   396.98   404.49   419.34   427.25
eigval :      438.84   441.65   462.04   489.27   515.93   530.36
eigval :      537.74   538.91   542.73   562.37   573.15   578.37
eigval :      590.24   590.76   613.76   629.77   659.40   660.79
eigval :      667.42   674.70   680.68   683.92   708.57   717.18
eigval :      743.42   749.74   756.39   770.25   779.85   792.97
eigval :      805.88   827.65   839.95   863.41   871.84   873.17
eigval :      888.74   893.76   895.93   902.16   903.34   914.70
eigval :      915.09   918.33   920.82   925.16   925.60   926.35
eigval :      928.84   986.86   988.56  1011.41  1022.89  1070.17
eigval :     1073.49  1082.46  1103.40  1115.27  1128.74  1140.85
eigval :     1148.37  1159.24  1172.37  1179.04  1179.20  1180.74
eigval :     1198.84  1207.84  1222.11  1231.50  1241.86  1255.45
eigval :     1269.80  1280.62  1283.52  1288.99  1294.18  1309.96
eigval :     1316.24  1324.50  1326.39  1349.80  1357.09  1362.65
eigval :     1387.91  1412.00  1417.11  1418.08  1425.00  1433.89
eigval :     1442.49  1460.82  1462.52  1466.84  1481.56  1483.46
eigval :     1515.45  1552.78  1556.08  1570.84  1581.25  1583.26
eigval :     1584.94  1604.24  3074.33  3077.09  3080.23  3081.96
eigval :     3082.85  3084.39  3086.09  3087.50  3088.34  3089.34
eigval :     3091.73  3094.02  3095.15  3095.91  3097.03  3100.49
eigval :     3101.07  3102.65  3108.17

   temp. (K)  partition function   enthalpy   heat capacity  entropy
                                   cal/mol     cal/K/mol   cal/K/mol   J/K/mol
 298.15  VIB  0.534E+11            14801.627     97.388     90.305
         ROT  0.369E+08              888.752      2.981     37.609
         INT  0.197E+19            15690.379    100.369    127.913
         TR   0.935E+28             1481.254      4.968     44.205
         TOT                       17171.6331   105.3369   172.1178   720.1410

       T/K    H(0)-H(T)+PV         H(T)/Eh          T*S/Eh         G(T)/Eh
   ------------------------------------------------------------------------
    298.15    0.273647E-01    0.420270E+00    0.817787E-01    0.338491E+00
   ------------------------------------------------------------------------

         :::::::::::::::::::::::::::::::::::::::::::::::::::::
         ::                  THERMODYNAMIC                  ::
         :::::::::::::::::::::::::::::::::::::::::::::::::::::
         :: total free energy         -85.549746590592 Eh   ::
         ::.................................................::
         :: total energy              -85.888237711254 Eh   ::
         :: zero point energy           0.392905117905 Eh   ::
         :: G(RRHO) w/o ZPVE           -0.054413997242 Eh   ::
         :: G(RRHO) contrib.            0.338491120663 Eh   ::
         :::::::::::::::::::::::::::::::::::::::::::::::::::::

           -------------------------------------------------
          | TOTAL ENERGY              -85.888237711254 Eh   |
          | TOTAL ENTHALPY            -85.467967854125 Eh   |
          | TOTAL FREE ENERGY         -85.549746590592 Eh   |
          | GRADIENT NORM               0.000106797400 Eh/α |
           -------------------------------------------------

 * finished run on 2025/08/30 at 07:07:20.827
