   * xtb version 6.7.1 (edcfbbe) compiled by 'albert@albert-system' on 2024-07-22

   ID    Z sym.   atoms
    1    6 C      1-12, 14-28, 32-34
    2    7 N      13, 29, 30
    3   16 S      31
    4    1 H      35-53

          program call               : xtb data2507/gas/CPBzFC/CPBzFC.xyz --gfn 2 --ohess vtight --parallel 40 --molden --ceasefiles --namespace data2507/gas/CPBzFC/CPBzFC_gas_S0_preOpt
          :  Hamiltonian                  GFN2-xTB          :
 * total energy  :   -85.9384891 Eh     change       -0.6073847E-08 Eh
 * total energy  :   -85.9536725 Eh     change       -0.1518333E-01 Eh
 * total energy  :   -85.9565005 Eh     change       -0.2828006E-02 Eh
 * total energy  :   -85.9569330 Eh     change       -0.4325386E-03 Eh
 * total energy  :   -85.9575745 Eh     change       -0.6415356E-03 Eh
 * total energy  :   -85.9578164 Eh     change       -0.2418440E-03 Eh
 * total energy  :   -85.9580333 Eh     change       -0.2169005E-03 Eh
 * total energy  :   -85.9582453 Eh     change       -0.2119762E-03 Eh
 * total energy  :   -85.9584183 Eh     change       -0.1730819E-03 Eh
 * total energy  :   -85.9585824 Eh     change       -0.1640259E-03 Eh
 * total energy  :   -85.9608947 Eh     change       -0.1526583E-05 Eh
 * total energy  :   -85.9608963 Eh     change       -0.1637469E-05 Eh
 * total energy  :   -85.9608983 Eh     change       -0.1984076E-05 Eh
 * total energy  :   -85.9609000 Eh     change       -0.1747033E-05 Eh
 * total energy  :   -85.9609012 Eh     change       -0.1163597E-05 Eh
 * total energy  :   -85.9609021 Eh     change       -0.8914574E-06 Eh
 * total energy  :   -85.9609028 Eh     change       -0.6636922E-06 Eh
 * total energy  :   -85.9609030 Eh     change       -0.2252880E-06 Eh
 * total energy  :   -85.9609031 Eh     change       -0.6356390E-07 Eh
   *** GEOMETRY OPTIMIZATION CONVERGED AFTER 56 ITERATIONS ***

 final structure:
================
53
 xtb: 6.7.1 (edcfbbe)
C            9.11162652608129        0.01913988934905       -0.24247276375936
C            8.45705100370055       -0.76497471344623        0.69250084741624
C            7.07587018991793       -0.77933345643703        0.74386069941930
C            6.32806722151928       -0.01190925794551       -0.14581065284859
C            4.86087400397938       -0.02116913105960       -0.10244948652095
C            4.09555497546059       -0.05161362082955       -1.26023216567549
C            2.70479989011091       -0.05817428784801       -1.23553633714091
C            1.98097083664806       -0.01800649262195       -0.05344947021417
C            0.51792585712972       -0.01869603671906       -0.03823374585565
C           -0.19865005058559       -0.73411093003050       -0.99853191712232
C           -1.57773923729620       -0.73130120784614       -1.00150751633439
C           -2.27891297212986       -0.01085068737656       -0.03729418197004
N           -3.67791354301178       -0.00407983893094       -0.04000928367656
C           -4.49263014116793       -1.11728584322335       -0.11882990699062
C           -4.15226303675867       -2.46198403002614       -0.15212466572547
C           -5.17825575429431       -3.38619222558959       -0.20207073220509
C           -6.51412745233470       -2.99126055788178       -0.20957826592584
C           -6.85937639602121       -1.65602375797240       -0.14962687858957
C           -5.84570598092193       -0.70839687059803       -0.09873934838143
C           -5.83806433081995        0.72493477312681       -0.00839904448499
C           -6.84142777430761        1.68406096298828        0.02936347516469
C           -6.48177615414525        3.01521640636081        0.09516238328612
C           -5.14150133820934        3.39476843805804        0.10730437208995
C           -4.12553208486535        2.45892797934213        0.07043364131454
C           -4.48077613377834        1.11828652599623        0.03019585483878
C           -1.57127582835476        0.69964073329460        0.92949670390248
C           -0.19217034299221        0.69483912476089        0.92757471568065
C            2.73328657327343        0.02872845092937        1.13630611966623
N            2.25977061539420        0.08048896468852        2.40516558574952
N            3.12722708444810        0.11698368243296        3.29523090646209
S            4.70522942764905        0.08595540996418        2.73527688650612
C            4.15135437370687        0.01164258574356        1.09871955663602
C            6.99546814382347        0.76899301360239       -1.08724364208862
C            8.37662737240694        0.78605161256328       -1.13128725086921
H           10.19066860295730        0.03275800643608       -0.27850852355080
H            9.02424524727050       -1.36938498063200        1.38473424123299
H            6.57370408430736       -1.40858432082972        1.46420571963582
H            4.60051641813569       -0.08832426361545       -2.21409307208122
H            2.17401941892847       -0.07091305756384       -2.17548228497758
H            0.32906463513788       -1.31494714559194       -1.74040909407054
H           -2.12092654764349       -1.27658384384070       -1.75885615329355
H           -3.12100256191268       -2.78017768208229       -0.12564222185151
H           -4.93865959756312       -4.43897644423191       -0.23158052570489
H           -7.28680218446167       -3.74442710553795       -0.25227488453550
H           -7.89455285936331       -1.34984094946933       -0.13696757454410
H           -7.87977098008760        1.38969976310315        0.00295705714611
H           -7.24630774720681        3.77711709896387        0.12833341174590
H           -4.89028940154921        4.44464612649020        0.14285953131600
H           -3.09036899458073        2.76524352908461        0.06180092070767
H           -2.11030604221435        1.24060172061682        1.69244400331041
H            0.34500744092433        1.24396890244475        1.68406026344901
H            6.42619757197108        1.38254345574754       -1.77036383582888
H            8.88195895369406        1.40228558369188       -1.86037946986021

          :  Hamiltonian                  GFN2-xTB          :
         :: gradient norm              0.000037718981 Eh/a0 ::
         :: HOMO-LUMO gap              1.740378751277 eV    ::
         :: SCC energy               -87.500838373678 Eh    ::
         :: -> dispersion             -0.072994610356 Eh    ::
         :: repulsion energy           1.539935318619 Eh    ::

    * Orbital Energies and Occupations

         #    Occupation            Energy/Eh            Energy/eV
      -------------------------------------------------------------
         1        2.0000           -0.7475214             -20.3411
       ...           ...                  ...                  ...
        68        2.0000           -0.4243130             -11.5461
        69        2.0000           -0.4206937             -11.4477
        70        2.0000           -0.4178167             -11.3694
        71        2.0000           -0.4173514             -11.3567
        72        2.0000           -0.4168182             -11.3422
        73        2.0000           -0.4157290             -11.3126
        74        2.0000           -0.4142629             -11.2727
        75        2.0000           -0.4127580             -11.2317
        76        2.0000           -0.4032372             -10.9726
        77        2.0000           -0.3879767             -10.5574
        78        2.0000           -0.3853751             -10.4866
        79        2.0000           -0.3766606             -10.2495
        80        2.0000           -0.3606404              -9.8135 (HOMO)
        81                         -0.2966826              -8.0731 (LUMO)
        82                         -0.2648101              -7.2058
        83                         -0.2437518              -6.6328
        84                         -0.2365679              -6.4373
        85                         -0.2347635              -6.3882
        86                         -0.2331332              -6.3439
        87                         -0.2259424              -6.1482
        88                         -0.2198989              -5.9838
        89                         -0.2172241              -5.9110
        90                         -0.2011300              -5.4730
        91                         -0.1867245              -5.0810
       ...                                ...                  ...
       160                          0.7479090              20.3516
      -------------------------------------------------------------
                  HL-Gap            0.0639578 Eh            1.7404 eV

     #   Z          covCN         q      C6AA      α(0)
     1   6 C        2.920    -0.028    28.699     8.785
     2   6 C        2.919    -0.027    28.679     8.782
     3   6 C        2.925    -0.032    28.800     8.801
     4   6 C        2.976     0.010    27.780     8.646
     5   6 C        2.981    -0.000    28.030     8.685
     6   6 C        2.928    -0.034    28.859     8.810
     7   6 C        2.924    -0.040    28.993     8.830
     8   6 C        2.969     0.006    27.892     8.663
     9   6 C        2.975     0.011    27.768     8.644
    10   6 C        2.924    -0.033    28.816     8.803
    11   6 C        2.920    -0.044    29.081     8.843
    12   6 C        2.913     0.066    26.524     8.445
    13   7 N        2.802    -0.042    22.053     6.975
    14   6 C        3.075     0.047    26.876     8.500
    15   6 C        2.910    -0.051    29.256     8.869
    16   6 C        2.924    -0.033    28.830     8.805
    17   6 C        2.920    -0.041    29.009     8.832
    18   6 C        2.913    -0.033    28.815     8.802
    19   6 C        3.068    -0.017    28.353     8.731
    20   6 C        3.068    -0.017    28.352     8.731
    21   6 C        2.913    -0.033    28.815     8.802
    22   6 C        2.920    -0.041    29.009     8.832
    23   6 C        2.924    -0.033    28.829     8.805
    24   6 C        2.910    -0.051    29.260     8.870
    25   6 C        3.075     0.047    26.878     8.500
    26   6 C        2.921    -0.041    29.021     8.834
    27   6 C        2.924    -0.029    28.717     8.788
    28   6 C        3.188     0.060    26.210     8.352
    29   7 N        2.127    -0.120    24.172     7.295
    30   7 N        1.977    -0.110    24.132     7.285
    31  16 S        2.317     0.054   138.862    19.833
    32   6 C        3.002     0.012    27.728     8.638
    33   6 C        2.925    -0.033    28.814     8.803
    34   6 C        2.919    -0.028    28.691     8.784
    35   1 H        0.926     0.035     2.521     2.483
    36   1 H        0.926     0.035     2.511     2.478
    37   1 H        0.926     0.036     2.509     2.477
    38   1 H        0.926     0.044     2.398     2.422
    39   1 H        0.926     0.043     2.409     2.427
    40   1 H        0.926     0.038     2.479     2.462
    41   1 H        0.926     0.042     2.417     2.431
    42   1 H        0.926     0.028     2.617     2.530
    43   1 H        0.926     0.029     2.600     2.521
    44   1 H        0.926     0.028     2.614     2.528
    45   1 H        0.926     0.031     2.572     2.508
    46   1 H        0.926     0.031     2.571     2.507
    47   1 H        0.926     0.028     2.613     2.528
    48   1 H        0.926     0.029     2.599     2.521
    49   1 H        0.926     0.028     2.621     2.532
    50   1 H        0.926     0.046     2.367     2.406
    51   1 H        0.926     0.058     2.228     2.334
    52   1 H        0.926     0.033     2.540     2.492
    53   1 H        0.926     0.034     2.528     2.486

molecular dipole:
                 x           y           z       tot (Debye)
 q only:        0.728       0.013      -0.895
   full:        1.066      -0.008      -1.340       4.352

 projected vibrational frequencies (cm⁻¹)
eigval :       -0.00    -0.00    -0.00    -0.00     0.00     0.00
eigval :       14.64    18.65    26.07    43.20    54.38    61.99
eigval :       82.86    87.78    95.82   105.80   123.80   145.77
eigval :      161.30   180.96   196.92   219.32   227.91   242.23
eigval :      271.79   279.21   303.35   329.89   371.57   378.95
eigval :      380.36   393.90   405.89   408.52   425.20   434.68
eigval :      441.52   479.21   497.14   507.64   518.68   534.06
eigval :      541.07   547.85   565.99   575.78   585.57   588.74
eigval :      602.60   614.31   623.36   635.22   655.57   670.76
eigval :      674.02   682.08   691.78   708.24   717.95   724.49
eigval :      756.77   759.21   769.83   772.44   781.02   817.52
eigval :      843.71   864.88   868.29   873.72   876.25   877.17
eigval :      897.85   902.27   902.41   903.04   914.79   918.61
eigval :      920.88   925.89   928.49   929.64   932.58   932.82
eigval :      940.24   997.86  1009.59  1012.07  1062.46  1070.63
eigval :     1074.41  1085.16  1118.26  1122.91  1132.28  1141.57
eigval :     1153.18  1167.52  1176.76  1181.34  1182.09  1184.67
eigval :     1201.65  1206.06  1236.58  1243.93  1255.21  1267.26
eigval :     1273.24  1282.35  1292.43  1300.49  1302.48  1312.37
eigval :     1319.57  1330.06  1339.15  1357.81  1361.81  1370.28
eigval :     1407.32  1428.04  1429.25  1430.62  1441.29  1462.73
eigval :     1476.03  1486.06  1488.22  1507.84  1545.83  1549.66
eigval :     1560.40  1575.30  1581.75  1589.17  1594.43  1598.43
eigval :     1599.05  1614.99  3075.27  3076.23  3076.59  3076.97
eigval :     3081.06  3081.68  3082.70  3083.37  3086.08  3088.62
eigval :     3088.89  3090.19  3093.79  3094.61  3095.52  3096.58
eigval :     3096.88  3097.71  3113.41

   temp. (K)  partition function   enthalpy   heat capacity  entropy
                                   cal/mol     cal/K/mol   cal/K/mol   J/K/mol
 298.15  VIB  0.460E+11            14599.985     95.821     89.334
         ROT  0.369E+08              888.752      2.981     37.606
         INT  0.170E+19            15488.737     98.802    126.939
         TR   0.935E+28             1481.254      4.968     44.205
         TOT                       16969.9910   103.7698   171.1442   716.0674

       T/K    H(0)-H(T)+PV         H(T)/Eh          T*S/Eh         G(T)/Eh
   ------------------------------------------------------------------------
    298.15    0.270434E-01    0.423068E+00    0.813161E-01    0.341752E+00
   ------------------------------------------------------------------------

         :::::::::::::::::::::::::::::::::::::::::::::::::::::
         ::                  THERMODYNAMIC                  ::
         :::::::::::::::::::::::::::::::::::::::::::::::::::::
         :: total free energy         -85.619151156136 Eh   ::
         ::.................................................::
         :: total energy              -85.960903055060 Eh   ::
         :: zero point energy           0.396024639731 Eh   ::
         :: G(RRHO) w/o ZPVE           -0.054272740808 Eh   ::
         :: G(RRHO) contrib.            0.341751898923 Eh   ::
         :::::::::::::::::::::::::::::::::::::::::::::::::::::

           -------------------------------------------------
          | TOTAL ENERGY              -85.960903055060 Eh   |
          | TOTAL ENTHALPY            -85.537835013229 Eh   |
          | TOTAL FREE ENERGY         -85.619151156136 Eh   |
          | GRADIENT NORM               0.000037863486 Eh/α |
          | HOMO-LUMO GAP               1.740379885095 eV   |
           -------------------------------------------------

 * finished run on 2025/08/30 at 07:05:13.491
