   * xtb version 6.7.1 (edcfbbe) compiled by 'albert@albert-system' on 2024-07-22

   ID    Z sym.   atoms
    1    6 C      1-12, 14-28, 32-34
    2    7 N      13, 29, 30
    3   16 S      31
    4    1 H      35-53

          program call               : xtb data2507/gas/CPBzFC/CPBzFC_gas_T1_crest.xyz --gfn 2 --spinpol --tblite --uhf 2 --ohess vtight --parallel 40 --molden --ceasefiles --namespace data2507/gas/CPBzFC/CPBzFC_gas_T1_finalOpt
 * total energy  :   -85.8881970 Eh     change        0.2465271E-07 Eh
 * total energy  :   -85.8882183 Eh     change       -0.2131716E-04 Eh
 * total energy  :   -85.8882301 Eh     change       -0.1180191E-04 Eh
 * total energy  :   -85.8882328 Eh     change       -0.2725391E-05 Eh
 * total energy  :   -85.8882347 Eh     change       -0.1919150E-05 Eh
 * total energy  :   -85.8882363 Eh     change       -0.1582798E-05 Eh
 * total energy  :   -85.8882378 Eh     change       -0.1508161E-05 Eh
 * total energy  :   -85.8882387 Eh     change       -0.8747168E-06 Eh
 * total energy  :   -85.8882388 Eh     change       -0.1347661E-06 Eh
 * total energy  :   -85.8882391 Eh     change       -0.2909679E-06 Eh
 * total energy  :   -85.8882392 Eh     change       -0.2370312E-07 Eh
 * total energy  :   -85.8882394 Eh     change       -0.2727062E-06 Eh
 * total energy  :   -85.8882397 Eh     change       -0.3190167E-06 Eh
 * total energy  :   -85.8882401 Eh     change       -0.3050903E-06 Eh
 * total energy  :   -85.8882403 Eh     change       -0.2609562E-06 Eh
 * total energy  :   -85.8882405 Eh     change       -0.1491622E-06 Eh
 * total energy  :   -85.8882405 Eh     change       -0.1514323E-07 Eh
   *** GEOMETRY OPTIMIZATION CONVERGED AFTER 17 ITERATIONS ***

 final structure:
================
53
 xtb: 6.7.1 (edcfbbe)
C            8.82146067489729       -0.84035127182954        0.38982639624118
C            8.23288495376536       -0.06526664950164       -0.59740709735588
C            6.85923373452828        0.01246413260851       -0.69685584800587
C            6.03354226896279       -0.68921276830513        0.19155864570395
C            4.59069141939998       -0.60282423373693        0.10548743612154
C            3.75323530510765       -1.69829050662250        0.48408437206845
C            2.39496335003983       -1.61437205430747        0.48918891238021
C            1.67776482932178       -0.44239742725878        0.11652547604443
C            0.25667810462553       -0.38114150761812        0.09259144374884
C           -0.42666709157181        0.68633568130810       -0.54263523239320
C           -1.79217444141740        0.77074219624555       -0.54460725026276
C           -2.57031193633875       -0.21896589949286        0.07248571199382
N           -3.95892493629802       -0.14087991560481        0.06113312175415
C           -4.82552003198928       -1.17168764412053       -0.25043680952434
C           -4.54634027880077       -2.46542839805724       -0.66913414319114
C           -5.61422133005573       -3.29811920369342       -0.94823721112303
C           -6.92973772870489       -2.85797482062367       -0.82895762797639
C           -7.21365042183798       -1.56034712589048       -0.44436752502376
C           -6.15856458912500       -0.70766730698756       -0.15796225719224
C           -6.08322686461586        0.67489761880101        0.23241221329458
C           -7.04006847510659        1.64256574379476        0.49823362790882
C           -6.61760765814347        2.90014694572009        0.88842797887371
C           -5.26301370722460        3.18798504108732        1.03326392613350
C           -4.29125388896274        2.23881426000412        0.77551374110371
C           -4.70831350837807        0.98423581194206        0.35216745067070
C           -1.91881885622681       -1.29254832693381        0.69558472127251
C           -0.55233697119146       -1.37204537310749        0.70533936478314
C            2.50247644957956        0.66894524922529       -0.26855968476782
N            2.10297010135022        1.90189113061374       -0.55943099614939
N            3.01006502132017        2.73292299969059       -0.89134904580478
S            4.54960902623155        2.09522193650475       -0.77503139911538
C            3.92032484210257        0.54432810691582       -0.30087131467222
C            6.64517856537575       -1.47751593388751        1.17704030429820
C            8.01838866495843       -1.54577957741025        1.27482039958247
H            9.89671939017766       -0.89783750812188        0.46783577250939
H            8.85061334914390        0.47680666793696       -1.29825351888935
H            6.41647821982159        0.58749490617363       -1.49632740370141
H            4.22841633731208       -2.63075586555742        0.74598612630398
H            1.83570885099206       -2.49854434056169        0.75126388961122
H            0.15471949575977        1.44169374530900       -1.04817887669207
H           -2.28435677915067        1.57767134071963       -1.06680378304560
H           -3.53068999928316       -2.80903968013051       -0.79043750864424
H           -5.42284021650351       -4.31029715450451       -1.27182105946035
H           -7.73689004479921       -3.53884140806339       -1.05364320906494
H           -8.23317709874604       -1.21320663560663       -0.37358307064574
H           -8.09088440842623        1.41343499663040        0.40714215986723
H           -7.34627676450905        3.66908668991629        1.09657160968651
H           -4.96374049977276        4.17284019841050        1.35890547780186
H           -3.24574432751020        2.46627077146905        0.91387786974013
H           -2.50796167388490       -2.03575355212774        1.21290083254773
H           -0.09198841795623       -2.18640070842271        1.24133305603578
H            6.03271788014258       -2.00613904652356        1.89204259876164
H            8.47071746571495       -2.14761345761703        2.04974213445876

 projected vibrational frequencies (cm⁻¹)
eigval :       -0.00    -0.00    -0.00    -0.00     0.00     0.00
eigval :       13.40    17.76    27.95    38.75    58.58    69.06
eigval :       80.09    85.94    99.19   112.13   131.09   140.14
eigval :      149.99   173.99   212.58   219.17   227.74   243.48
eigval :      271.41   294.56   300.92   315.41   346.41   372.18
eigval :      381.64   385.75   397.03   404.41   419.55   427.28
eigval :      438.82   441.40   462.02   489.51   515.94   530.23
eigval :      537.79   538.96   542.68   562.31   573.01   578.33
eigval :      590.28   590.76   613.76   629.74   659.62   660.94
eigval :      667.44   674.67   680.65   683.92   708.58   717.42
eigval :      743.67   749.82   756.34   770.17   779.77   792.69
eigval :      805.01   827.32   839.67   863.80   871.75   873.11
eigval :      888.54   893.80   895.92   902.14   903.36   914.56
eigval :      914.91   918.25   920.69   925.19   925.50   926.36
eigval :      928.81   986.97   988.71  1011.44  1022.40  1070.03
eigval :     1073.37  1082.34  1103.27  1114.83  1128.45  1141.33
eigval :     1148.40  1159.04  1172.18  1178.68  1179.22  1180.72
eigval :     1199.32  1207.74  1222.61  1231.45  1240.87  1255.57
eigval :     1270.54  1279.99  1283.68  1289.07  1294.14  1310.05
eigval :     1316.14  1324.27  1326.24  1349.78  1357.10  1362.76
eigval :     1388.11  1412.05  1417.12  1417.82  1425.11  1433.87
eigval :     1442.72  1461.15  1462.57  1466.80  1481.44  1483.55
eigval :     1515.60  1552.93  1556.19  1570.83  1581.34  1583.26
eigval :     1584.95  1604.05  3074.45  3077.12  3080.13  3081.98
eigval :     3082.88  3083.89  3085.99  3087.52  3088.37  3089.31
eigval :     3091.71  3093.24  3095.12  3095.94  3097.02  3100.35
eigval :     3100.98  3102.28  3108.78

   temp. (K)  partition function   enthalpy   heat capacity  entropy
                                   cal/mol     cal/K/mol   cal/K/mol   J/K/mol
 298.15  VIB  0.555E+11            14804.759     97.388     90.345
         ROT  0.369E+08              888.752      2.981     37.609
         INT  0.205E+19            15693.511    100.369    127.954
         TR   0.935E+28             1481.254      4.968     44.205
         TOT                       17174.7651   105.3371   172.1588   720.3126

       T/K    H(0)-H(T)+PV         H(T)/Eh          T*S/Eh         G(T)/Eh
   ------------------------------------------------------------------------
    298.15    0.273697E-01    0.420260E+00    0.817982E-01    0.338461E+00
   ------------------------------------------------------------------------

         :::::::::::::::::::::::::::::::::::::::::::::::::::::
         ::                  THERMODYNAMIC                  ::
         :::::::::::::::::::::::::::::::::::::::::::::::::::::
         :: total free energy         -85.549779152974 Eh   ::
         ::.................................................::
         :: total energy              -85.888240507153 Eh   ::
         :: zero point energy           0.392889844571 Eh   ::
         :: G(RRHO) w/o ZPVE           -0.054428490391 Eh   ::
         :: G(RRHO) contrib.            0.338461354180 Eh   ::
         :::::::::::::::::::::::::::::::::::::::::::::::::::::

           -------------------------------------------------
          | TOTAL ENERGY              -85.888240507153 Eh   |
          | TOTAL ENTHALPY            -85.467980932259 Eh   |
          | TOTAL FREE ENERGY         -85.549779152974 Eh   |
          | GRADIENT NORM               0.000049009692 Eh/α |
           -------------------------------------------------

 * finished run on 2025/08/30 at 07:09:55.213
