   * xtb version 6.7.1 (edcfbbe) compiled by 'albert@albert-system' on 2024-07-22

   ID    Z sym.   atoms
    1    6 C      1-12, 14-28, 32-34
    2    7 N      13, 29, 30
    3   16 S      31
    4    1 H      35-53

          program call               : xtb data2507/gas/CPBzFC/CPBzFC_gas_S0_crest.xyz --gfn 2 --ohess vtight --parallel 40 --molden --ceasefiles --namespace data2507/gas/CPBzFC/CPBzFC_gas_S0_finalOpt
          :  Hamiltonian                  GFN2-xTB          :
 * total energy  :   -85.9612285 Eh     change       -0.5249362E-08 Eh
 * total energy  :   -85.9612291 Eh     change       -0.5264115E-06 Eh
 * total energy  :   -85.9612295 Eh     change       -0.4258931E-06 Eh
 * total energy  :   -85.9612303 Eh     change       -0.8081071E-06 Eh
 * total energy  :   -85.9612310 Eh     change       -0.7429850E-06 Eh
 * total energy  :   -85.9612316 Eh     change       -0.5497826E-06 Eh
 * total energy  :   -85.9612321 Eh     change       -0.4790075E-06 Eh
 * total energy  :   -85.9612326 Eh     change       -0.5477716E-06 Eh
 * total energy  :   -85.9612333 Eh     change       -0.7138639E-06 Eh
 * total energy  :   -85.9612341 Eh     change       -0.7893804E-06 Eh
 * total energy  :   -85.9612348 Eh     change       -0.6438464E-06 Eh
 * total energy  :   -85.9612352 Eh     change       -0.4339222E-06 Eh
 * total energy  :   -85.9612355 Eh     change       -0.2910244E-06 Eh
 * total energy  :   -85.9612357 Eh     change       -0.1713575E-06 Eh
 * total energy  :   -85.9612357 Eh     change       -0.2504058E-07 Eh
   *** GEOMETRY OPTIMIZATION CONVERGED AFTER 15 ITERATIONS ***

 final structure:
================
53
 xtb: 6.7.1 (edcfbbe)
C            8.81368004472367       -0.93378603738618       -0.10373844384523
C            8.19726034486668       -0.08354161255210        0.79882417917186
C            6.81960717335968        0.02576350328991        0.82224249557022
C            6.03686163030642       -0.72059859180984       -0.05521511322479
C            4.57305655605316       -0.61431212831246       -0.03800864626421
C            3.75746002135217       -1.73092839631211       -0.16277038705369
C            2.36916909812963       -1.64591671498878       -0.15507024407556
C            1.69858360592807       -0.43882631191746       -0.02754163013322
C            0.23879260128423       -0.35503754990768       -0.02610080885344
C           -0.52209213559196       -1.22690304117747       -0.80632622705750
C           -1.89906523781948       -1.15572231012525       -0.81015827399289
C           -2.55457573268413       -0.21553525853508       -0.01801871557823
N           -3.95104646229934       -0.14604925832249       -0.01451405556130
C           -4.81365720742690       -1.21319011498070        0.14710762357994
C           -4.53174162093614       -2.54983590569650        0.39004921716948
C           -5.59679673901422       -3.41678761708535        0.54368893565320
C           -6.91444044144346       -2.97134173726359        0.46854270295374
C           -7.20125961825828       -1.63816462256941        0.25331304194949
C           -6.14758872335870       -0.74782355684669        0.09562729296705
C           -6.07729388306169        0.67136234116054       -0.11413938776299
C           -7.03846577354739        1.66184287407421       -0.26691341631156
C           -6.62139467353629        2.95977613160134       -0.48384777893779
C           -5.26624954174281        3.27212175033793       -0.56551924541883
C           -4.29138289930995        2.30410452221354       -0.41686267004255
C           -4.70431837367410        1.00229310139003       -0.17217537303358
C           -1.80227386654742        0.65664180380971        0.76586942612365
C           -0.42509516377892        0.59180502482278        0.75434747814961
C            2.50243346311556        0.71045551103551        0.10003303803355
N            2.08421518732388        1.99573477377258        0.19999931782187
N            2.98960089780916        2.84516340980143        0.27065423409284
S            4.54203347245724        2.21749525640457        0.22672916085682
C            3.91735280298709        0.61007717066034        0.09727067759300
C            6.66579824868291       -1.57847501053996       -0.95522841521295
C            8.04379044903749       -1.68013069666541       -0.98044481914985
H            9.89018155933963       -1.01477621421432       -0.12397313584727
H            8.79161557303703        0.49685712870666        1.48882394289617
H            6.34662178595442        0.67761419791297        1.54224876399318
H            4.22012826236973       -2.70313477055327       -0.24609578527035
H            1.79720704984597       -2.55853747552796       -0.22826526687030
H           -0.02887704206400       -1.94337200890088       -1.44638192840670
H           -2.47602643606226       -1.81298771076873       -1.44342811167871
H           -3.51457226298269       -2.90268786964385        0.47041460442557
H           -5.40277732085246       -4.46284918617268        0.73032218887299
H           -7.71915425708268       -3.68092718327259        0.59120356814888
H           -8.22205255047796       -1.28914101228665        0.21279656721311
H           -8.08865040639698        1.41570801861045       -0.22127968964054
H           -7.35229083063806        3.74578205207434       -0.60262668921850
H           -4.96999819128930        4.29362345146690       -0.75296166430071
H           -3.24488187511208        2.55469752909013       -0.50153705292337
H           -2.30614748985637        1.37366607687000        1.39611665307931
H            0.14700565244129        1.27139738527621        1.36535715848713
H            6.06981801450228       -2.14854356679011       -1.65305842151335
H            8.51947285873930       -2.34220194495665       -1.68902135082252

          :  Hamiltonian                  GFN2-xTB          :
         :: gradient norm              0.000086086359 Eh/a0 ::
         :: HOMO-LUMO gap              1.748010224150 eV    ::
         :: SCC energy               -87.501290581084 Eh    ::
         :: -> dispersion             -0.073077818828 Eh    ::
         :: repulsion energy           1.540054899690 Eh    ::

    * Orbital Energies and Occupations

         #    Occupation            Energy/Eh            Energy/eV
      -------------------------------------------------------------
         1        2.0000           -0.7472105             -20.3326
       ...           ...                  ...                  ...
        68        2.0000           -0.4246757             -11.5560
        69        2.0000           -0.4206370             -11.4461
        70        2.0000           -0.4184018             -11.3853
        71        2.0000           -0.4174335             -11.3589
        72        2.0000           -0.4166235             -11.3369
        73        2.0000           -0.4155409             -11.3074
        74        2.0000           -0.4140808             -11.2677
        75        2.0000           -0.4120456             -11.2123
        76        2.0000           -0.4032711             -10.9736
        77        2.0000           -0.3889366             -10.5835
        78        2.0000           -0.3845569             -10.4643
        79        2.0000           -0.3767028             -10.2506
        80        2.0000           -0.3606855              -9.8148 (HOMO)
        81                         -0.2964474              -8.0667 (LUMO)
        82                         -0.2647898              -7.2053
        83                         -0.2437772              -6.6335
        84                         -0.2365948              -6.4381
        85                         -0.2345544              -6.3825
        86                         -0.2331313              -6.3438
        87                         -0.2254279              -6.1342
        88                         -0.2199377              -5.9848
        89                         -0.2171104              -5.9079
        90                         -0.2009113              -5.4671
        91                         -0.1863565              -5.0710
       ...                                ...                  ...
       160                          0.7477937              20.3485
      -------------------------------------------------------------
                  HL-Gap            0.0642381 Eh            1.7480 eV

     #   Z          covCN         q      C6AA      α(0)
     1   6 C        2.920    -0.028    28.700     8.785
     2   6 C        2.919    -0.027    28.680     8.782
     3   6 C        2.925    -0.032    28.801     8.801
     4   6 C        2.976     0.010    27.780     8.646
     5   6 C        2.981    -0.000    28.034     8.685
     6   6 C        2.928    -0.034    28.859     8.810
     7   6 C        2.924    -0.040    28.995     8.830
     8   6 C        2.969     0.006    27.895     8.663
     9   6 C        2.975     0.011    27.769     8.644
    10   6 C        2.924    -0.033    28.814     8.803
    11   6 C        2.920    -0.043    29.078     8.843
    12   6 C        2.913     0.066    26.524     8.445
    13   7 N        2.802    -0.042    22.050     6.974
    14   6 C        3.074     0.046    26.884     8.501
    15   6 C        2.910    -0.051    29.265     8.871
    16   6 C        2.924    -0.034    28.838     8.807
    17   6 C        2.920    -0.041    29.012     8.833
    18   6 C        2.913    -0.033    28.815     8.802
    19   6 C        3.068    -0.016    28.349     8.731
    20   6 C        3.068    -0.017    28.355     8.732
    21   6 C        2.913    -0.033    28.818     8.803
    22   6 C        2.920    -0.040    29.002     8.831
    23   6 C        2.924    -0.033    28.818     8.804
    24   6 C        2.910    -0.050    29.254     8.869
    25   6 C        3.074     0.047    26.879     8.500
    26   6 C        2.921    -0.041    29.030     8.836
    27   6 C        2.924    -0.028    28.704     8.786
    28   6 C        3.188     0.060    26.206     8.351
    29   7 N        2.127    -0.120    24.181     7.296
    30   7 N        1.977    -0.110    24.139     7.286
    31  16 S        2.317     0.053   138.889    19.835
    32   6 C        3.001     0.012    27.728     8.638
    33   6 C        2.925    -0.033    28.813     8.803
    34   6 C        2.919    -0.028    28.691     8.784
    35   1 H        0.926     0.035     2.522     2.484
    36   1 H        0.926     0.035     2.512     2.479
    37   1 H        0.926     0.035     2.511     2.478
    38   1 H        0.926     0.044     2.400     2.422
    39   1 H        0.926     0.043     2.413     2.429
    40   1 H        0.926     0.038     2.479     2.462
    41   1 H        0.926     0.043     2.415     2.430
    42   1 H        0.926     0.027     2.636     2.539
    43   1 H        0.926     0.028     2.608     2.525
    44   1 H        0.926     0.028     2.616     2.529
    45   1 H        0.926     0.031     2.570     2.507
    46   1 H        0.926     0.031     2.574     2.509
    47   1 H        0.926     0.028     2.609     2.526
    48   1 H        0.926     0.031     2.577     2.510
    49   1 H        0.926     0.031     2.569     2.506
    50   1 H        0.926     0.046     2.370     2.408
    51   1 H        0.926     0.057     2.239     2.340
    52   1 H        0.926     0.033     2.541     2.493
    53   1 H        0.926     0.034     2.529     2.487

molecular dipole:
                 x           y           z       tot (Debye)
 q only:        0.648      -0.886      -0.023
   full:        0.966      -1.348      -0.108       4.224

 projected vibrational frequencies (cm⁻¹)
eigval :       -0.00    -0.00    -0.00     0.00     0.00     0.00
eigval :       15.22    19.37    25.46    42.15    54.36    63.78
eigval :       78.01    87.55    95.56   107.42   127.83   147.21
eigval :      157.52   177.60   205.47   218.02   218.82   245.63
eigval :      271.87   290.16   299.58   334.29   368.76   372.53
eigval :      383.59   392.29   404.00   411.49   426.14   437.74
eigval :      442.76   481.32   490.58   509.66   518.64   534.35
eigval :      541.10   547.89   566.08   577.41   585.84   589.22
eigval :      595.76   619.08   624.06   632.54   655.02   670.97
eigval :      674.16   681.86   693.10   708.31   717.31   724.95
eigval :      756.77   759.07   770.06   772.71   781.24   817.80
eigval :      842.41   864.41   867.95   874.28   876.00   877.45
eigval :      897.97   902.07   902.52   903.23   914.52   918.80
eigval :      920.88   926.49   928.37   929.82   932.73   933.13
eigval :      939.76   997.86  1009.40  1012.06  1062.62  1070.75
eigval :     1074.51  1085.15  1118.26  1122.85  1132.24  1141.36
eigval :     1153.23  1167.63  1176.85  1181.31  1182.10  1184.80
eigval :     1201.61  1206.15  1236.50  1244.05  1254.89  1267.49
eigval :     1273.54  1282.40  1292.69  1300.33  1302.17  1312.85
eigval :     1319.62  1330.22  1339.55  1357.75  1361.64  1370.45
eigval :     1408.20  1427.85  1429.06  1430.32  1440.71  1462.78
eigval :     1475.86  1486.17  1488.02  1508.05  1545.78  1549.14
eigval :     1559.75  1575.37  1581.80  1589.07  1593.44  1598.46
eigval :     1598.94  1614.74  3075.26  3075.82  3076.90  3077.47
eigval :     3080.90  3081.81  3083.26  3083.37  3086.01  3088.63
eigval :     3088.84  3090.86  3093.81  3094.64  3095.67  3096.52
eigval :     3097.39  3097.64  3112.44

   temp. (K)  partition function   enthalpy   heat capacity  entropy
                                   cal/mol     cal/K/mol   cal/K/mol   J/K/mol
 298.15  VIB  0.445E+11            14595.940     95.786     89.261
         ROT  0.368E+08              888.752      2.981     37.600
         INT  0.164E+19            15484.692     98.767    126.860
         TR   0.935E+28             1481.254      4.968     44.205
         TOT                       16965.9461   103.7350   171.0652   715.7367

       T/K    H(0)-H(T)+PV         H(T)/Eh          T*S/Eh         G(T)/Eh
   ------------------------------------------------------------------------
    298.15    0.270370E-01    0.423072E+00    0.812786E-01    0.341794E+00
   ------------------------------------------------------------------------

         :::::::::::::::::::::::::::::::::::::::::::::::::::::
         ::                  THERMODYNAMIC                  ::
         :::::::::::::::::::::::::::::::::::::::::::::::::::::
         :: total free energy         -85.619441869608 Eh   ::
         ::.................................................::
         :: total energy              -85.961235681401 Eh   ::
         :: zero point energy           0.396035444263 Eh   ::
         :: G(RRHO) w/o ZPVE           -0.054241632470 Eh   ::
         :: G(RRHO) contrib.            0.341793811793 Eh   ::
         :::::::::::::::::::::::::::::::::::::::::::::::::::::

           -------------------------------------------------
          | TOTAL ENERGY              -85.961235681401 Eh   |
          | TOTAL ENTHALPY            -85.538163281118 Eh   |
          | TOTAL FREE ENERGY         -85.619441869608 Eh   |
          | GRADIENT NORM               0.000086214121 Eh/α |
          | HOMO-LUMO GAP               1.748008638757 eV   |
           -------------------------------------------------

 * finished run on 2025/08/30 at 07:07:15.634
