   * xtb version 6.7.1 (edcfbbe) compiled by 'albert@albert-system' on 2024-07-22

   ID    Z sym.   atoms
    1    6 C      1-6, 8-13, 15-22, 24-28, 30-35, 37-47, 49, 50
    2    8 O      7, 36
    3    7 N      14, 23, 29, 48
    4    1 H      51-78

          program call               : xtb data2507/toluene/NyDPO/NyDPO_toluene_S0_crest.xyz --gfn 2 --gbsa toluene --ohess vtight --parallel 40 --molden --ceasefiles --namespace data2507/toluene/NyDPO/NyDPO_toluene_S0_finalOpt
      * Solvation model:               GBSA
        Solvent                        toluene
        Solvent mass                       9.2140E+01 g/mol
          :  Hamiltonian                  GFN2-xTB          :
 * total energy  :  -128.4331324 Eh     change       -0.3479613E-08 Eh
 * total energy  :  -128.4331801 Eh     change       -0.4775423E-04 Eh
 * total energy  :  -128.4332005 Eh     change       -0.2038342E-04 Eh
 * total energy  :  -128.4332102 Eh     change       -0.9654139E-05 Eh
 * total energy  :  -128.4332201 Eh     change       -0.9869074E-05 Eh
 * total energy  :  -128.4332269 Eh     change       -0.6829290E-05 Eh
 * total energy  :  -128.4332312 Eh     change       -0.4282578E-05 Eh
 * total energy  :  -128.4332349 Eh     change       -0.3742909E-05 Eh
 * total energy  :  -128.4332396 Eh     change       -0.4658167E-05 Eh
 * total energy  :  -128.4332450 Eh     change       -0.5413753E-05 Eh
 * total energy  :  -128.4332741 Eh     change       -0.1743709E-05 Eh
 * total energy  :  -128.4332763 Eh     change       -0.2180099E-05 Eh
 * total energy  :  -128.4332786 Eh     change       -0.2268399E-05 Eh
 * total energy  :  -128.4332806 Eh     change       -0.1995669E-05 Eh
 * total energy  :  -128.4332824 Eh     change       -0.1829255E-05 Eh
 * total energy  :  -128.4332842 Eh     change       -0.1804322E-05 Eh
 * total energy  :  -128.4332860 Eh     change       -0.1810861E-05 Eh
 * total energy  :  -128.4332880 Eh     change       -0.1937346E-05 Eh
 * total energy  :  -128.4332880 Eh     change       -0.8351577E-08 Eh
   *** GEOMETRY OPTIMIZATION CONVERGED AFTER 44 ITERATIONS ***

 final structure:
================
78
 xtb: 6.7.1 (edcfbbe)
C            9.99236051642612       -2.82029718075771       -2.39010894526312
C            8.61780569469524       -2.70770264928034       -2.44509774219705
C            7.95816337577773       -1.77259057584032       -1.66149106832497
C            8.66341651491120       -0.93915414783463       -0.80163070449535
C           10.06091767424914       -1.04261685764445       -0.77498415009167
C           10.71387885587333       -1.97741694231061       -1.55640276669245
O           10.84744917773412       -0.22395872246688        0.00358096852929
C           10.20746916245983        0.71422403877806        0.78103348486046
C           11.00501193862777        1.52359305078314        1.56826762925992
C           10.43213986074671        2.47459009481479        2.40114305794950
C            9.05809436108898        2.59602086661666        2.44919536777027
C            8.25410856930725        1.78724198512736        1.65992604173924
C            8.81252446859236        0.84909965415020        0.80005891335847
N            8.03131117433897        0.01732243502777       -0.00441807070767
C            6.62374159111618        0.14291980537244       -0.01131697293166
C            6.02745749464090        1.30282241447174       -0.49756493845446
C            4.65290453274535        1.43228390766962       -0.49821515969109
C            3.84226197559188        0.40429944276778       -0.01639389415431
C            2.37780137500847        0.50273180909919       -0.00453947285078
C            1.71797275355824        1.75860363157144        0.02715370483016
C            0.35378528488755        1.80646292468954        0.03305960939169
C           -0.37491950107096        0.59549053676690        0.00913649057911
N           -1.71634654080936        0.61708589424794        0.00304195305642
C           -2.37933857196911       -0.52063800362074       -0.01056150393092
C           -3.84371783287565       -0.42042603040920       -0.02104757239852
C           -4.65675506511849       -1.44332871623725       -0.50960150547288
C           -6.03108408875460       -1.31061358891937       -0.50840396501383
C           -6.62463845651982       -0.15233255037263       -0.01517731899558
N           -8.03186963279168       -0.02230434042329       -0.00904381403818
C           -8.65924902985309        0.94457003676636       -0.79733054399027
C           -7.95039544239586        1.77826538063847       -1.65397998130929
C           -8.60535282393395        2.72400873096529       -2.42869845331046
C           -9.97876100766960        2.84714859325100       -2.36792130317554
C          -10.70403418767412        2.00422564997814       -1.53750722133929
C          -10.05578743561711        1.05871486140220       -0.76511548454426
O          -10.84595496409673        0.24051473280691        0.01025037044514
C          -10.21019951104285       -0.70434035627714        0.78312440950297
C          -11.01088213512157       -1.50920877272149        1.57175427898282
C          -10.44214720038375       -2.46676361390693        2.39994156316757
C           -9.06896251393559       -2.59958830268917        2.44162185811254
C           -8.26180663490961       -1.79521162398277        1.65107398697365
C           -8.81628703537880       -0.85012062219581        0.79632579302012
C           -5.82051674903694        0.87783688730225        0.46668629913906
C           -4.44840634336607        0.74359546819977        0.45833818327028
C           -1.71952747026877       -1.77680659015171        0.00419551841207
C           -0.35527564953066       -1.82481514942998        0.00874056395286
C            0.37370121567692       -0.61380349968865        0.00090383103245
N            1.71523389964694       -0.63525720226271       -0.00576355670058
C            4.44943473124492       -0.76168921739753        0.45476873631663
C            5.82195921715242       -0.89258557286030        0.46294072680992
H           10.51101227970359       -3.54803199164989       -2.99423273212518
H            8.04342759101422       -3.34450056608592       -3.10042203331417
H            6.88492659822210       -1.68556068636647       -1.72406651274225
H           11.79021192728922       -2.02683650180082       -1.50147070692103
H           12.07447081452897        1.39027471184984        1.51891443088923
H           11.06321535447082        3.10307830338595        3.00965530428742
H            8.59638188767440        3.31905424471216        3.10413725624288
H            7.18126172498782        1.88176720204656        1.71731844538040
H            6.64946197913220        2.09852708274525       -0.88065862030393
H            4.21350891914903        2.32874140396182       -0.90774520991668
H            2.29584529446945        2.66817152765512        0.07020128431145
H           -0.18825060155917        2.74003425446422        0.06077705013245
H           -4.21961441752447       -2.33824589877178       -0.92485060116015
H           -6.65487072781481       -2.10230460805692       -0.89687822068508
H           -6.87808791291367        1.68322805433026       -1.72089069768082
H           -8.02827136903552        3.36078405151774       -3.08167354411981
H          -10.49370941607408        3.58333790104521       -2.96492858074491
H          -11.77972527883671        2.06191603675938       -1.47827697663894
H          -12.07943972426549       -1.36725608732764        1.52721554452897
H          -11.07570061384206       -3.09153422233073        3.00970647706353
H           -8.61035158794583       -3.32811388924522        3.09264375361888
H           -7.18952035461144       -1.89862499196673        1.70345273818190
H           -6.28040979728642        1.77705566964555        0.84930661368206
H           -3.81707204547841        1.53417373891840        0.83221524547182
H           -2.29718482675112       -2.68698727240227        0.03525345922341
H            0.18657939131246       -2.75878750772367        0.02356824695882
H            3.81984624709873       -1.55644707383649        0.82272715379892
H            6.28386260791074       -1.79325194865192        0.83967703258719

          :  Hamiltonian                  GFN2-xTB          :
         :: gradient norm              0.000068417411 Eh/a0 ::
         :: HOMO-LUMO gap              1.202274642102 eV    ::
         :: SCC energy              -130.673336922893 Eh    ::
         :: -> dispersion             -0.106328547769 Eh    ::
         :: -> Gsolv                  -0.054051915921 Eh    ::
         :: repulsion energy           2.240048953296 Eh    ::

    * Orbital Energies and Occupations

         #    Occupation            Energy/Eh            Energy/eV
      -------------------------------------------------------------
         1        2.0000           -0.7293746             -19.8473
       ...           ...                  ...                  ...
       106        2.0000           -0.4184819             -11.3875
       107        2.0000           -0.4157860             -11.3141
       108        2.0000           -0.4157735             -11.3138
       109        2.0000           -0.4147959             -11.2872
       110        2.0000           -0.4125736             -11.2267
       111        2.0000           -0.4125694             -11.2266
       112        2.0000           -0.3995076             -10.8712
       113        2.0000           -0.3973716             -10.8130
       114        2.0000           -0.3906331             -10.6297
       115        2.0000           -0.3898158             -10.6074
       116        2.0000           -0.3618971              -9.8477
       117        2.0000           -0.3436487              -9.3512
       118        2.0000           -0.3431184              -9.3367 (HOMO)
       119                         -0.2989355              -8.1344 (LUMO)
       120                         -0.2666261              -7.2553
       121                         -0.2554266              -6.9505
       122                         -0.2387607              -6.4970
       123                         -0.2387466              -6.4966
       124                         -0.2367691              -6.4428
       125                         -0.2367406              -6.4420
       126                         -0.2297279              -6.2512
       127                         -0.2297164              -6.2509
       128                         -0.2194192              -5.9707
       129                         -0.2171650              -5.9094
       ...                                ...                  ...
       228                          0.6787779              18.4705
      -------------------------------------------------------------
                  HL-Gap            0.0441828 Eh            1.2023 eV

     #   Z          covCN         q      C6AA      α(0)
     1   6 C        2.919    -0.042    29.033     8.836
     2   6 C        2.919    -0.039    28.972     8.827
     3   6 C        2.923    -0.061    29.515     8.909
     4   6 C        2.922     0.043    27.040     8.527
     5   6 C        2.882     0.122    25.322     8.250
     6   6 C        2.919    -0.058    29.449     8.899
     7   8 O        1.708    -0.274    18.542     5.814
     8   6 C        2.882     0.122    25.319     8.249
     9   6 C        2.919    -0.058    29.450     8.899
    10   6 C        2.919    -0.042    29.036     8.836
    11   6 C        2.919    -0.039    28.978     8.828
    12   6 C        2.924    -0.061    29.521     8.910
    13   6 C        2.922     0.043    27.040     8.527
    14   7 N        2.751    -0.073    22.653     7.069
    15   6 C        2.921     0.067    26.494     8.441
    16   6 C        2.920    -0.040    28.992     8.830
    17   6 C        2.922    -0.032    28.792     8.799
    18   6 C        2.980     0.003    27.958     8.673
    19   6 C        2.952     0.100    25.794     8.330
    20   6 C        2.914    -0.047    29.163     8.855
    21   6 C        2.921    -0.027    28.679     8.782
    22   6 C        2.963     0.080    26.215     8.398
    23   7 N        1.849    -0.265    27.734     7.805
    24   6 C        2.951     0.099    25.795     8.330
    25   6 C        2.980     0.003    27.958     8.673
    26   6 C        2.922    -0.032    28.791     8.799
    27   6 C        2.920    -0.040    28.992     8.830
    28   6 C        2.921     0.067    26.493     8.441
    29   7 N        2.751    -0.073    22.654     7.069
    30   6 C        2.922     0.043    27.040     8.527
    31   6 C        2.923    -0.061    29.515     8.909
    32   6 C        2.919    -0.039    28.973     8.827
    33   6 C        2.919    -0.042    29.034     8.836
    34   6 C        2.919    -0.058    29.449     8.899
    35   6 C        2.882     0.122    25.322     8.250
    36   8 O        1.708    -0.274    18.543     5.814
    37   6 C        2.882     0.122    25.319     8.249
    38   6 C        2.919    -0.058    29.450     8.899
    39   6 C        2.919    -0.042    29.036     8.836
    40   6 C        2.919    -0.039    28.978     8.828
    41   6 C        2.924    -0.061    29.521     8.910
    42   6 C        2.922     0.043    27.040     8.527
    43   6 C        2.919    -0.039    28.960     8.825
    44   6 C        2.926    -0.025    28.633     8.775
    45   6 C        2.914    -0.047    29.162     8.855
    46   6 C        2.921    -0.027    28.679     8.782
    47   6 C        2.963     0.080    26.215     8.398
    48   7 N        1.848    -0.265    27.734     7.805
    49   6 C        2.926    -0.025    28.632     8.775
    50   6 C        2.919    -0.039    28.961     8.825
    51   1 H        0.926     0.041     2.434     2.440
    52   1 H        0.926     0.041     2.437     2.441
    53   1 H        0.926     0.040     2.448     2.446
    54   1 H        0.926     0.047     2.363     2.404
    55   1 H        0.926     0.047     2.363     2.404
    56   1 H        0.926     0.041     2.436     2.441
    57   1 H        0.926     0.041     2.441     2.443
    58   1 H        0.926     0.039     2.460     2.453
    59   1 H        0.926     0.048     2.351     2.398
    60   1 H        0.926     0.048     2.349     2.397
    61   1 H        0.926     0.049     2.328     2.386
    62   1 H        0.926     0.054     2.272     2.357
    63   1 H        0.926     0.048     2.348     2.396
    64   1 H        0.926     0.048     2.350     2.397
    65   1 H        0.926     0.040     2.448     2.447
    66   1 H        0.926     0.041     2.437     2.441
    67   1 H        0.926     0.041     2.434     2.440
    68   1 H        0.926     0.047     2.363     2.404
    69   1 H        0.926     0.047     2.364     2.404
    70   1 H        0.926     0.041     2.436     2.441
    71   1 H        0.926     0.041     2.441     2.443
    72   1 H        0.926     0.039     2.460     2.453
    73   1 H        0.926     0.048     2.339     2.392
    74   1 H        0.926     0.060     2.199     2.319
    75   1 H        0.926     0.049     2.328     2.386
    76   1 H        0.926     0.054     2.272     2.357
    77   1 H        0.926     0.060     2.201     2.320
    78   1 H        0.926     0.049     2.338     2.391

molecular dipole:
                 x           y           z       tot (Debye)
 q only:        0.002      -0.004       0.037
   full:        0.002      -0.003       0.025       0.064

 projected vibrational frequencies (cm⁻¹)
eigval :       -0.00    -0.00    -0.00     0.00     0.00     0.00
eigval :        3.60     8.59    12.70    18.97    24.82    27.56
eigval :       35.32    40.15    47.79    54.10    56.27    67.41
eigval :       76.38    77.45   111.11   114.17   117.20   131.28
eigval :      161.89   162.69   181.56   187.90   198.31   235.76
eigval :      248.84   251.03   257.29   258.32   269.78   272.73
eigval :      291.41   329.98   339.72   350.80   361.62   374.30
eigval :      374.57   380.91   387.74   390.38   400.95   418.63
eigval :      420.00   426.91   428.54   429.80   435.81   444.94
eigval :      445.78   459.18   465.50   500.10   500.62   509.77
eigval :      509.95   521.71   521.98   523.80   540.67   551.08
eigval :      556.66   576.74   584.60   587.52   590.96   606.89
eigval :      608.77   611.07   621.07   654.30   658.99   660.06
eigval :      660.57   660.91   663.96   674.04   692.79   705.65
eigval :      706.67   736.15   752.01   777.30   777.44   777.74
eigval :      777.84   796.46   798.48   801.90   815.71   828.73
eigval :      838.04   845.20   852.14   852.18   862.08   862.41
eigval :      863.83   863.93   869.89   871.52   882.25   896.02
eigval :      896.34   897.24   897.59   908.68   912.57   913.00
eigval :      913.98   914.01   915.10   915.32   919.77   921.06
eigval :      922.30   927.51   927.89   929.71   932.23   942.61
eigval :     1011.26  1011.40  1081.54  1083.12  1088.34  1088.48
eigval :     1089.97  1090.00  1105.06  1105.08  1117.15  1117.24
eigval :     1125.16  1127.99  1140.28  1152.36  1169.48  1169.55
eigval :     1173.27  1173.35  1179.82  1180.15  1189.16  1192.25
eigval :     1195.60  1195.74  1198.96  1219.00  1219.26  1240.24
eigval :     1240.38  1257.51  1257.81  1258.55  1263.87  1272.23
eigval :     1272.98  1303.61  1304.52  1304.64  1307.03  1307.37
eigval :     1314.17  1321.60  1330.96  1334.11  1334.44  1349.28
eigval :     1353.80  1360.57  1388.58  1401.12  1401.76  1421.82
eigval :     1421.95  1439.78  1440.80  1444.16  1470.77  1480.48
eigval :     1480.55  1480.62  1481.87  1503.14  1503.48  1514.75
eigval :     1554.25  1557.99  1565.52  1565.67  1568.15  1571.62
eigval :     1578.93  1578.96  1586.58  1586.65  1591.36  1592.13
eigval :     1602.27  1602.33  3081.96  3082.42  3083.97  3084.12
eigval :     3086.04  3086.28  3086.37  3086.48  3086.79  3086.87
eigval :     3094.62  3094.72  3095.38  3095.46  3095.60  3095.67
eigval :     3100.12  3101.11  3103.70  3103.72  3104.01  3104.03
eigval :     3107.83  3108.00  3108.16  3108.18  3108.95  3108.98

   temp. (K)  partition function   enthalpy   heat capacity  entropy
                                   cal/mol     cal/K/mol   cal/K/mol   J/K/mol
 298.15  VIB  0.456E+19            22546.597    143.085    141.182
         ROT  0.754E+08              888.752      2.981     39.027
         INT  0.344E+27            23435.350    146.066    180.208
         TR   0.158E+29             1481.254      4.968     45.253
         TOT                       24916.6037   151.0344   225.4608   943.3279

       T/K    H(0)-H(T)+PV         H(T)/Eh          T*S/Eh         G(T)/Eh
   ------------------------------------------------------------------------
    298.15    0.397071E-01    0.624476E+00    0.107124E+00    0.517352E+00
   ------------------------------------------------------------------------

         :::::::::::::::::::::::::::::::::::::::::::::::::::::
         ::                  THERMODYNAMIC                  ::
         :::::::::::::::::::::::::::::::::::::::::::::::::::::
         :: total free energy        -127.915935977198 Eh   ::
         ::.................................................::
         :: total energy             -128.433287974295 Eh   ::
         :: zero point energy           0.584768553840 Eh   ::
         :: G(RRHO) w/o ZPVE           -0.067416556743 Eh   ::
         :: G(RRHO) contrib.            0.517351997097 Eh   ::
         :::::::::::::::::::::::::::::::::::::::::::::::::::::

           -------------------------------------------------
          | TOTAL ENERGY             -128.433287974295 Eh   |
          | TOTAL ENTHALPY           -127.808812285003 Eh   |
          | TOTAL FREE ENERGY        -127.915935977198 Eh   |
          | GRADIENT NORM               0.000068422325 Eh/α |
          | HOMO-LUMO GAP               1.202275615391 eV   |
           -------------------------------------------------

 * finished run on 2025/09/12 at 09:07:03.207
