   * xtb version 6.7.1 (edcfbbe) compiled by 'albert@albert-system' on 2024-07-22

   ID    Z sym.   atoms
    1    6 C      1-6, 8-13, 15-22, 24-28, 30-35, 37-47, 49, 50
    2    8 O      7, 36
    3    7 N      14, 23, 29, 48
    4    1 H      51-78

          program call               : xtb data2507/toluene/NyDPO/NyDPO_toluene_S0_finalOpt.xtbopt.xyz --gfn 2 --uhf 2 --gbsa toluene --ohess vtight --parallel 40 --molden --ceasefiles --namespace data2507/toluene/NyDPO/NyDPO_toluene_T1_preOpt
      * Solvation model:               GBSA
        Solvent                        toluene
        Solvent mass                       9.2140E+01 g/mol
          :  Hamiltonian                  GFN2-xTB          :
 * total energy  :  -128.3716216 Eh     change       -0.1156479E-09 Eh
 * total energy  :  -128.3750417 Eh     change       -0.3420117E-02 Eh
 * total energy  :  -128.3762031 Eh     change       -0.1161402E-02 Eh
 * total energy  :  -128.3763400 Eh     change       -0.1368995E-03 Eh
 * total energy  :  -128.3764191 Eh     change       -0.7905968E-04 Eh
 * total energy  :  -128.3764406 Eh     change       -0.2148053E-04 Eh
 * total energy  :  -128.3764652 Eh     change       -0.2462578E-04 Eh
 * total energy  :  -128.3764876 Eh     change       -0.2243555E-04 Eh
 * total energy  :  -128.3765101 Eh     change       -0.2249106E-04 Eh
 * total energy  :  -128.3765366 Eh     change       -0.2643543E-04 Eh
 * total energy  :  -128.3772771 Eh     change       -0.7129222E-06 Eh
 * total energy  :  -128.3772778 Eh     change       -0.7113389E-06 Eh
 * total energy  :  -128.3772785 Eh     change       -0.7077007E-06 Eh
 * total energy  :  -128.3772792 Eh     change       -0.7070277E-06 Eh
 * total energy  :  -128.3772799 Eh     change       -0.7020541E-06 Eh
 * total energy  :  -128.3772806 Eh     change       -0.7015618E-06 Eh
 * total energy  :  -128.3772813 Eh     change       -0.6979480E-06 Eh
 * total energy  :  -128.3772820 Eh     change       -0.6966107E-06 Eh
 * total energy  :  -128.3772820 Eh     change       -0.6694762E-08 Eh
   *** GEOMETRY OPTIMIZATION CONVERGED AFTER 260 ITERATIONS ***

 final structure:
================
78
 xtb: 6.7.1 (edcfbbe)
C           10.03000495025338       -2.46720710738750       -2.69708792405524
C            8.65941969143642       -2.30283557538976       -2.78884535997903
C            7.99046575035834       -1.47373056134775       -1.90460297035373
C            8.68187627588732       -0.79861388688118       -0.90207882787493
C           10.07663704169703       -0.95060496973632       -0.83628690440443
C           10.73878056831129       -1.78254251262878       -1.72221836368980
O           10.84191023054988       -0.28447646916238        0.08651775134819
C           10.19649950877590        0.54543196182839        0.96715804129585
C           10.97932212691475        1.21417643609546        1.89206994076667
C           10.39118501060443        2.05175819473087        2.82696450189301
C            9.01618562858708        2.20324614136816        2.84019261274275
C            8.22719923745976        1.53786806504943        1.91735867358829
C            8.80185415155252        0.71223596712402        0.95456590733975
N            8.04185147236677        0.03504359563178        0.00784465211733
C            6.63141692371752        0.18184387012960       -0.02169935837177
C            6.06023390537352        1.40485670132301       -0.36556073366638
C            4.69070575368913        1.55283600183229       -0.38527468018105
C            3.84414128661249        0.48010879640537       -0.07123491105036
C            2.40005246657515        0.58538415214366       -0.07894526220086
C            1.70316547436771        1.80296534171880       -0.08013137542658
C            0.33050300977755        1.82164496911756       -0.06520963573216
C           -0.39401408805561        0.60470468897993       -0.06711506987510
N           -1.70698378328962        0.57023489165592       -0.05716841295060
C           -2.40000464437679       -0.58531859629164       -0.08149728190218
C           -3.84407977425727       -0.48012927857575       -0.07274616939359
C           -4.69074887550958       -1.55141605639786       -0.39143240853686
C           -6.06026389656856       -1.40360494172058       -0.37039296150132
C           -6.63138084731739       -0.18223343764313       -0.02060091904847
N           -8.04181006254078       -0.03579898591855        0.01039607137408
C           -8.68249526410791        0.80209939326586       -0.89515518686899
C           -7.99174248042814        1.48224862442265       -1.89472666008635
C           -8.66134831535412        2.31537474452491       -2.77468278628185
C          -10.03194620527176        2.47886117205920       -2.68153653681599
C          -10.74007941107638        1.78926616495662       -1.70968077734317
C          -10.07726944352525        0.95337037588285       -0.82798201328704
O          -10.84191545258012        0.28261085704388        0.09198853173490
C          -10.19589035994786       -0.55159393204847        0.96811130697946
C          -10.97812365622653       -1.22527050460619        1.88994092480857
C          -10.38933970152667       -2.06738797718023        2.82034475527804
C           -9.01429298510991       -2.21855380181009        2.83219885792641
C           -8.22589895303457       -1.54830149390097        1.91238878047479
C           -8.80120519218802       -0.71796388500791        0.95403834191191
C           -5.80525074270344        0.89579188846496        0.29434973118013
C           -4.43849912620685        0.74845602418757        0.25934520982001
C           -1.70308753496013       -1.80286416113652       -0.08983096807186
C           -0.33042894426565       -1.82162055239894       -0.07553677862466
C            0.39407828008313       -0.60468417357502       -0.07070759761068
N            1.70704894705492       -0.57028240369042       -0.06099326249016
C            4.43861621326703       -0.75001929464135        0.25494358189212
C            5.80537447584017       -0.89757432751296        0.28865395146705
H           10.55217502875863       -3.11624753312886       -3.38203979284800
H            8.09962504191814       -2.81856493339386       -3.55365399137336
H            6.92338515880051       -1.34372749587183       -1.98968181160032
H           11.80960376267760       -1.87591083910897       -1.63328784992067
H           12.04665603356178        1.06159548646494        1.86414847938526
H           11.00775726027103        2.57207448264680        3.54260644089934
H            8.54616426254529        2.84068593453859        3.57303011186883
H            7.15532902971773        1.65243201975082        1.94254108190936
H            6.70130711209046        2.23556890652786       -0.62366780196760
H            4.27524839846714        2.50644203662968       -0.67189106321546
H            2.25018757004294        2.73284316980439       -0.07090083864496
H           -0.22121036482118        2.74921987128907       -0.05495558140822
H           -4.27541363188540       -2.50368737750773       -0.68261864855430
H           -6.70140869996697       -2.23313618293340       -0.63209147671534
H           -6.92467899678948        1.35288702502536       -1.98098754696184
H           -8.10204965588166        2.83495318284643       -3.53724272921197
H          -10.55462397262719        3.13097494709628       -3.36317464742609
H          -11.81089402124289        1.88185465711795       -1.61983925289423
H          -12.04551213090414       -1.07285310413066        1.86325359354150
H          -11.00545060324326       -2.59150749699602        3.53360418547984
H           -8.54377327834430       -2.85952516599863        3.56163176278187
H           -7.15398186622029       -1.66265488590074        1.93656527242625
H           -6.24753731285000        1.84272196690258        0.56866411503717
H           -3.79034036042036        1.57663001778028        0.50112912230240
H           -2.25006813413843       -2.73279982810500       -0.08573768552335
H            0.22129234833115       -2.74923386186234       -0.07078175707767
H            3.79054004663058       -1.57928964687814        0.49317064431159
H            6.24773666132650       -1.84577255750271        0.55842052905624

          :  Hamiltonian                  GFN2-xTB          :
         :: gradient norm              0.000067700596 Eh/a0 ::
         :: HOMO-LUMO gap              0.983024540137 eV    ::
         :: SCC energy              -130.614253419595 Eh    ::
         :: -> dispersion             -0.106351582460 Eh    ::
         :: -> Gsolv                  -0.055436941164 Eh    ::
         :: repulsion energy           2.236971402015 Eh    ::

    * Orbital Energies and Occupations

         #    Occupation            Energy/Eh            Energy/eV
      -------------------------------------------------------------
         1        2.0000           -0.7406924             -20.1553
       ...           ...                  ...                  ...
       107        2.0000           -0.4204656             -11.4415
       108        2.0000           -0.4105585             -11.1719
       109        2.0000           -0.4105292             -11.1711
       110        2.0000           -0.4060721             -11.0498
       111        2.0000           -0.4016304             -10.9289
       112        2.0000           -0.3983464             -10.8396
       113        2.0000           -0.3973609             -10.8127
       114        2.0000           -0.3922570             -10.6739
       115        2.0000           -0.3782593             -10.2930
       116        1.8458           -0.3503226              -9.5328
       117        1.8051           -0.3500536              -9.5254
       118        1.3491           -0.3481138              -9.4727
       119        1.0000           -0.2879211              -7.8347 (HOMO)
       120                         -0.2517956              -6.8517 (LUMO)
       121                         -0.2473641              -6.7311
       122                         -0.2471759              -6.7260
       123                         -0.2471557              -6.7254
       124                         -0.2369886              -6.4488
       125                         -0.2369869              -6.4487
       126                         -0.2268383              -6.1726
       127                         -0.2267854              -6.1711
       128                         -0.2229547              -6.0669
       129                         -0.2220287              -6.0417
       130                         -0.2058193              -5.6006
       ...                                ...                  ...
       228                          0.7038547              19.1529
      -------------------------------------------------------------
                  HL-Gap            0.0361255 Eh            0.9830 eV

     #   Z          covCN         q      C6AA      α(0)
     1   6 C        2.919    -0.036    28.895     8.815
     2   6 C        2.918    -0.035    28.861     8.810
     3   6 C        2.922    -0.055    29.376     8.888
     4   6 C        2.924     0.045    26.985     8.519
     5   6 C        2.883     0.126    25.242     8.237
     6   6 C        2.918    -0.055    29.375     8.888
     7   8 O        1.709    -0.252    18.177     5.756
     8   6 C        2.883     0.126    25.242     8.237
     9   6 C        2.918    -0.055    29.374     8.888
    10   6 C        2.919    -0.036    28.898     8.815
    11   6 C        2.918    -0.035    28.864     8.810
    12   6 C        2.922    -0.056    29.384     8.889
    13   6 C        2.923     0.045    26.986     8.519
    14   7 N        2.751    -0.049    22.179     6.994
    15   6 C        2.922     0.049    26.909     8.507
    16   6 C        2.918    -0.041    29.029     8.835
    17   6 C        2.922    -0.040    29.002     8.831
    18   6 C        2.975     0.001    27.994     8.679
    19   6 C        2.933     0.068    26.486     8.440
    20   6 C        2.912    -0.047    29.176     8.857
    21   6 C        2.919    -0.060    29.486     8.905
    22   6 C        2.938     0.089    26.027     8.367
    23   7 N        1.850    -0.257    27.528     7.776
    24   6 C        2.933     0.068    26.486     8.440
    25   6 C        2.975     0.001    27.995     8.679
    26   6 C        2.922    -0.040    29.002     8.831
    27   6 C        2.918    -0.041    29.029     8.835
    28   6 C        2.922     0.049    26.909     8.507
    29   7 N        2.751    -0.049    22.178     6.994
    30   6 C        2.924     0.045    26.985     8.519
    31   6 C        2.922    -0.055    29.376     8.888
    32   6 C        2.918    -0.035    28.861     8.810
    33   6 C        2.919    -0.036    28.895     8.815
    34   6 C        2.918    -0.055    29.375     8.888
    35   6 C        2.883     0.126    25.242     8.237
    36   8 O        1.709    -0.252    18.177     5.756
    37   6 C        2.883     0.126    25.242     8.237
    38   6 C        2.918    -0.055    29.374     8.888
    39   6 C        2.919    -0.036    28.898     8.815
    40   6 C        2.918    -0.035    28.864     8.810
    41   6 C        2.922    -0.056    29.384     8.889
    42   6 C        2.923     0.045    26.986     8.519
    43   6 C        2.917    -0.041    29.011     8.832
    44   6 C        2.926    -0.034    28.838     8.807
    45   6 C        2.912    -0.047    29.176     8.857
    46   6 C        2.919    -0.060    29.486     8.905
    47   6 C        2.938     0.089    26.027     8.367
    48   7 N        1.850    -0.257    27.528     7.776
    49   6 C        2.926    -0.034    28.838     8.807
    50   6 C        2.917    -0.041    29.011     8.832
    51   1 H        0.926     0.049     2.327     2.386
    52   1 H        0.926     0.048     2.347     2.396
    53   1 H        0.926     0.047     2.353     2.399
    54   1 H        0.926     0.055     2.258     2.350
    55   1 H        0.926     0.055     2.258     2.350
    56   1 H        0.926     0.049     2.328     2.386
    57   1 H        0.926     0.048     2.348     2.396
    58   1 H        0.926     0.047     2.355     2.400
    59   1 H        0.926     0.040     2.454     2.450
    60   1 H        0.926     0.037     2.487     2.466
    61   1 H        0.926     0.036     2.499     2.472
    62   1 H        0.926     0.035     2.516     2.480
    63   1 H        0.926     0.037     2.488     2.466
    64   1 H        0.926     0.040     2.454     2.450
    65   1 H        0.926     0.047     2.353     2.399
    66   1 H        0.926     0.048     2.347     2.396
    67   1 H        0.926     0.049     2.327     2.386
    68   1 H        0.926     0.055     2.257     2.350
    69   1 H        0.926     0.055     2.258     2.350
    70   1 H        0.926     0.049     2.328     2.386
    71   1 H        0.926     0.048     2.348     2.396
    72   1 H        0.926     0.047     2.355     2.400
    73   1 H        0.926     0.040     2.453     2.449
    74   1 H        0.926     0.049     2.335     2.389
    75   1 H        0.926     0.036     2.499     2.472
    76   1 H        0.926     0.035     2.516     2.480
    77   1 H        0.926     0.049     2.335     2.389
    78   1 H        0.926     0.040     2.453     2.449

molecular dipole:
                 x           y           z       tot (Debye)
 q only:        0.000      -0.000       0.038
   full:        0.000      -0.000       0.021       0.054

 projected vibrational frequencies (cm⁻¹)
eigval :       -0.00    -0.00    -0.00     0.00     0.00     0.00
eigval :        6.42     7.16    14.34    18.08    27.98    28.26
eigval :       38.67    41.71    50.20    59.35    62.11    69.32
eigval :       76.41    81.13   112.99   114.29   119.34   129.71
eigval :      161.22   162.39   179.74   188.06   200.84   236.00
eigval :      246.36   248.58   256.80   259.24   269.87   273.95
eigval :      295.49   322.89   337.90   358.21   361.04   374.76
eigval :      375.01   377.78   383.26   389.82   399.58   420.02
eigval :      420.61   427.16   428.68   430.52   434.67   447.51
eigval :      453.40   456.66   466.41   486.36   496.83   504.40
eigval :      504.49   510.09   525.15   525.28   535.96   544.25
eigval :      548.40   564.00   571.10   584.76   586.81   602.04
eigval :      605.15   609.90   612.73   617.51   654.45   663.91
eigval :      664.58   666.82   666.94   671.79   677.68   682.24
eigval :      697.14   703.38   727.87   771.22   775.96   776.81
eigval :      777.19   777.59   777.79   796.10   797.12   807.25
eigval :      808.28   817.93   853.76   853.77   856.78   858.52
eigval :      859.81   866.28   867.02   867.24   868.11   868.28
eigval :      873.51   881.67   898.87   898.97   900.34   900.37
eigval :      906.69   906.93   914.93   915.01   915.50   915.56
eigval :      917.35   917.37   921.00   921.76   924.37   924.48
eigval :     1005.17  1006.05  1076.52  1080.76  1085.57  1085.67
eigval :     1087.42  1087.56  1109.31  1109.36  1114.99  1117.74
eigval :     1118.59  1122.57  1133.04  1144.25  1165.82  1167.69
eigval :     1172.51  1172.58  1177.67  1179.35  1186.48  1190.52
eigval :     1201.85  1201.90  1204.35  1216.77  1217.28  1237.83
eigval :     1237.89  1243.75  1253.41  1255.38  1259.40  1262.41
eigval :     1272.39  1280.29  1292.18  1307.62  1307.85  1308.52
eigval :     1313.84  1314.46  1322.23  1326.12  1329.22  1344.14
eigval :     1345.38  1366.32  1385.82  1388.97  1408.99  1410.37
eigval :     1417.75  1419.20  1421.67  1439.10  1440.22  1454.32
eigval :     1455.32  1455.35  1472.22  1474.99  1486.29  1488.47
eigval :     1502.91  1514.51  1528.71  1529.23  1559.30  1559.31
eigval :     1567.97  1567.98  1574.27  1576.17  1577.89  1580.78
eigval :     1588.15  1590.70  3075.02  3075.15  3077.09  3077.62
eigval :     3078.02  3078.19  3088.67  3088.98  3091.39  3091.41
eigval :     3091.48  3091.66  3094.76  3095.10  3099.12  3099.48
eigval :     3099.50  3099.61  3099.75  3099.83  3108.32  3108.33
eigval :     3108.62  3108.70  3112.17  3112.23  3112.33  3112.74

   temp. (K)  partition function   enthalpy   heat capacity  entropy
                                   cal/mol     cal/K/mol   cal/K/mol   J/K/mol
 298.15  VIB  0.185E+19            22648.616    144.724    141.051
         ROT  0.756E+08              888.752      2.981     39.033
         INT  0.140E+27            23537.368    147.705    180.084
         TR   0.158E+29             1481.254      4.968     45.253
         TOT                       25018.6220   152.6729   225.3361   942.8063

       T/K    H(0)-H(T)+PV         H(T)/Eh          T*S/Eh         G(T)/Eh
   ------------------------------------------------------------------------
    298.15    0.398697E-01    0.621722E+00    0.107064E+00    0.514657E+00
   ------------------------------------------------------------------------

         :::::::::::::::::::::::::::::::::::::::::::::::::::::
         ::                  THERMODYNAMIC                  ::
         :::::::::::::::::::::::::::::::::::::::::::::::::::::
         :: total free energy        -127.862624569926 Eh   ::
         ::.................................................::
         :: total energy             -128.377282021966 Eh   ::
         :: zero point energy           0.581852199110 Eh   ::
         :: G(RRHO) w/o ZPVE           -0.067194747070 Eh   ::
         :: G(RRHO) contrib.            0.514657452040 Eh   ::
         :::::::::::::::::::::::::::::::::::::::::::::::::::::

           -------------------------------------------------
          | TOTAL ENERGY             -128.377282021966 Eh   |
          | TOTAL ENTHALPY           -127.755560110853 Eh   |
          | TOTAL FREE ENERGY        -127.862624569926 Eh   |
          | GRADIENT NORM               0.000067938723 Eh/α |
          | HOMO-LUMO GAP               0.983024996164 eV   |
           -------------------------------------------------

 * finished run on 2025/09/12 at 09:07:26.666
