   * xtb version 6.7.1 (edcfbbe) compiled by 'albert@albert-system' on 2024-07-22

   ID    Z sym.   atoms
    1    6 C      1-6, 8-13, 15-22, 24-28, 30-35, 37-47, 49, 50
    2    8 O      7, 36
    3    7 N      14, 23, 29, 48
    4    1 H      51-78

          program call               : xtb data2507/toluene/NyDPO/NyDPO.xyz --gfn 2 --gbsa toluene --ohess vtight --parallel 40 --molden --ceasefiles --namespace data2507/toluene/NyDPO/NyDPO_toluene_S0_preOpt
      * Solvation model:               GBSA
        Solvent                        toluene
        Solvent mass                       9.2140E+01 g/mol
          :  Hamiltonian                  GFN2-xTB          :
 * total energy  :  -128.4096929 Eh     change       -0.5496446E-08 Eh
 * total energy  :  -128.4233395 Eh     change       -0.1364657E-01 Eh
 * total energy  :  -128.4278121 Eh     change       -0.4472617E-02 Eh
 * total energy  :  -128.4292440 Eh     change       -0.1431892E-02 Eh
 * total energy  :  -128.4307111 Eh     change       -0.1467037E-02 Eh
 * total energy  :  -128.4314620 Eh     change       -0.7509521E-03 Eh
 * total energy  :  -128.4317745 Eh     change       -0.3124644E-03 Eh
 * total energy  :  -128.4318662 Eh     change       -0.9170294E-04 Eh
 * total energy  :  -128.4319080 Eh     change       -0.4187188E-04 Eh
 * total energy  :  -128.4319422 Eh     change       -0.3415433E-04 Eh
 * total energy  :  -128.4332594 Eh     change       -0.6510506E-06 Eh
 * total energy  :  -128.4332601 Eh     change       -0.6397667E-06 Eh
 * total energy  :  -128.4332607 Eh     change       -0.6283342E-06 Eh
 * total energy  :  -128.4332613 Eh     change       -0.6152066E-06 Eh
 * total energy  :  -128.4332619 Eh     change       -0.6025384E-06 Eh
 * total energy  :  -128.4332625 Eh     change       -0.5876822E-06 Eh
 * total energy  :  -128.4332631 Eh     change       -0.5744681E-06 Eh
 * total energy  :  -128.4332636 Eh     change       -0.5598114E-06 Eh
 * total energy  :  -128.4332636 Eh     change       -0.4762342E-08 Eh
   *** GEOMETRY OPTIMIZATION CONVERGED AFTER 300 ITERATIONS ***

 final structure:
================
78
 xtb: 6.7.1 (edcfbbe)
C           10.02651046709891       -2.53550991113066        2.65585139745689
C            8.65364559887869       -2.60761027391812        2.53274600474277
C            7.98324705282269       -1.77369731844012        1.65025264124941
C            8.67581201552894       -0.84552626480619        0.88210241339308
C           10.07207195794893       -0.79997822489131        0.99475783853372
C           10.73582485545990       -1.63259652260891        1.87621915357363
O           10.84670063350135        0.04907623774750        0.23706731086281
C           10.19595492554549        0.87380984454657       -0.65218217243958
C           10.98175028965202        1.72730287362929       -1.40383798185108
C           10.39722959780581        2.60860994839539       -2.30271964773633
C            9.02319796753154        2.63713345083093       -2.43008434100501
C            8.23089250345057        1.78178712328301       -1.67895610621524
C            8.80154591644454        0.87464891289872       -0.79420468990223
N            8.03243834845363        0.00345596161228       -0.02053995515706
C            6.62525085457638       -0.01780121688228       -0.14943423851624
C            6.03778760630736       -0.44098850502744       -1.33804565096796
C            4.66357285929507       -0.45552965639701       -1.47045972086696
C            3.84328054740604       -0.04689736988882       -0.41840070566736
C            2.37868493579078       -0.04406754764537       -0.51695870723932
C            1.71414907032709       -0.01354354951736       -1.77063666022084
C            0.34982984180805       -0.01494628135665       -1.81496712911217
C           -0.37622887863961       -0.03910493344281       -0.60245739273754
N           -1.71737092139292       -0.04396774277938       -0.62030889733985
C           -2.37886104108192       -0.04746954560744        0.51883519228030
C           -3.84344130869064       -0.04874002314665        0.41979462225177
C           -4.66461098546335       -0.46351805380804        1.46876714834398
C           -6.03874611320364       -0.44747523178585        1.33559279085570
C           -6.62527495214261       -0.01679745745777        0.14922486522072
N           -8.03239435774401        0.00533550531093        0.01935245695067
C           -8.67523292909633       -0.83957718229811       -0.88745999146857
C           -7.98206149413438       -1.76321194554183       -1.66051275430785
C           -8.65198515819170       -2.59336670178043       -2.54690330491382
C          -10.02495376145047       -2.52190511036891       -2.66920017224783
C          -10.73482389029727       -1.62343244183499       -1.88495095184562
C          -10.07155330478369       -0.79455261925599       -0.99961958340245
O          -10.84669646523433        0.05030171627907       -0.23775403604288
C          -10.19642234047659        0.87114950709350        0.65543602352607
C          -10.98265875303272        1.72041326757726        1.41139805916448
C          -10.39856919019960        2.59760649346468        2.31458404802648
C           -9.02454450791697        2.62630695348964        2.44201304206458
C           -8.23179132095067        1.77520873783133        1.68654537166088
C           -8.80200694175986        0.87216699533402        0.79734232795975
C           -5.81392165403035        0.38751976153790       -0.90823933796826
C           -4.44228642579215        0.36831990638759       -0.77150077187507
C           -1.71431351805319       -0.02885872911040        1.77273594159705
C           -0.34997570477063       -0.03158337717546        1.81707965008243
C            0.37616406995825       -0.04493414837649        0.60445547190713
N            1.71733819363893       -0.05069820215604        0.62223997547728
C            4.44298323594786        0.36225878656366        0.77517878989454
C            5.81472589452082        0.38013153363435        0.91110374148280
H           10.55351753639279       -3.17922060926302        3.34249262170235
H            8.08914652279208       -3.31586423720163        3.11971081855408
H            6.91171621473591       -1.84953891926050        1.55312379194402
H           11.81075003981163       -1.56160902098506        1.93501066397913
H           12.05127861844763        1.69059620796784       -1.26701167805991
H           11.01919166098869        3.26915879604139       -2.88614116673619
H            8.55229492158854        3.32840413269250       -3.11222295831803
H            7.15757829997355        1.82413779125758       -1.77639088535230
H            6.66672663870291       -0.76464853837304       -2.15441750408258
H            4.23457170701440       -0.81711754589902       -2.39199612990272
H            2.28685935390657        0.03269202438112       -2.68309827791243
H           -0.19414732135219        0.00992444243013       -2.74750491200921
H           -4.23646968611037       -0.83103711012355        2.38834489878202
H           -6.66834558936691       -0.77572733481074        2.14962889083541
H           -6.91042599986994       -1.83852218685458       -1.56413040825443
H           -8.08702040633789       -3.29814571643426       -3.13759639840195
H          -10.55161081399293       -3.16272570230243       -3.35880686992521
H          -11.80982265373988       -1.55306174285846       -1.94313764036229
H          -12.05218381692235        1.68371821322640        1.27453582867227
H          -11.02088677131544        3.25482707207063        2.90137614431768
H           -8.55400539593179        3.31441366808064        3.12759365262935
H           -7.15848892481837        1.81758170010191        1.78412795205841
H           -6.26802679990956        0.71945202045374       -1.83029973409407
H           -3.80511475096169        0.68442800751762       -1.58225201866695
H           -2.28691482212076        0.00928631658980        2.68563350079054
H            0.19393565854951       -0.01570262800486        2.74985155376146
H            3.80645566611008        0.67353011369891        1.58830561401042
H            6.26957959256230        0.70610935684039        1.83492627252907

          :  Hamiltonian                  GFN2-xTB          :
         :: gradient norm              0.000056409229 Eh/a0 ::
         :: HOMO-LUMO gap              1.193170687838 eV    ::
         :: SCC energy              -130.673123162636 Eh    ::
         :: -> dispersion             -0.106322600011 Eh    ::
         :: -> Gsolv                  -0.054141031692 Eh    ::
         :: repulsion energy           2.239859518643 Eh    ::

    * Orbital Energies and Occupations

         #    Occupation            Energy/Eh            Energy/eV
      -------------------------------------------------------------
         1        2.0000           -0.7293661             -19.8471
       ...           ...                  ...                  ...
       106        2.0000           -0.4184735             -11.3872
       107        2.0000           -0.4157911             -11.3143
       108        2.0000           -0.4157850             -11.3141
       109        2.0000           -0.4148117             -11.2876
       110        2.0000           -0.4125917             -11.2272
       111        2.0000           -0.4125861             -11.2270
       112        2.0000           -0.3993819             -10.8677
       113        2.0000           -0.3969889             -10.8026
       114        2.0000           -0.3906505             -10.6301
       115        2.0000           -0.3897862             -10.6066
       116        2.0000           -0.3617071              -9.8426
       117        2.0000           -0.3436567              -9.3514
       118        2.0000           -0.3431055              -9.3364 (HOMO)
       119                         -0.2992572              -8.1432 (LUMO)
       120                         -0.2668465              -7.2613
       121                         -0.2559412              -6.9645
       122                         -0.2387515              -6.4968
       123                         -0.2387407              -6.4965
       124                         -0.2367049              -6.4411
       125                         -0.2366626              -6.4399
       126                         -0.2297368              -6.2515
       127                         -0.2297309              -6.2513
       128                         -0.2190581              -5.9609
       129                         -0.2170211              -5.9054
       ...                                ...                  ...
       228                          0.6794287              18.4882
      -------------------------------------------------------------
                  HL-Gap            0.0438482 Eh            1.1932 eV

     #   Z          covCN         q      C6AA      α(0)
     1   6 C        2.919    -0.042    29.034     8.836
     2   6 C        2.919    -0.039    28.972     8.827
     3   6 C        2.923    -0.061    29.515     8.909
     4   6 C        2.922     0.043    27.039     8.527
     5   6 C        2.882     0.122    25.322     8.250
     6   6 C        2.919    -0.058    29.449     8.899
     7   8 O        1.708    -0.274    18.543     5.814
     8   6 C        2.882     0.122    25.320     8.249
     9   6 C        2.919    -0.058    29.450     8.899
    10   6 C        2.919    -0.042    29.036     8.836
    11   6 C        2.919    -0.039    28.978     8.828
    12   6 C        2.924    -0.061    29.521     8.910
    13   6 C        2.922     0.043    27.039     8.527
    14   7 N        2.751    -0.073    22.654     7.069
    15   6 C        2.921     0.067    26.492     8.440
    16   6 C        2.920    -0.040    28.994     8.830
    17   6 C        2.922    -0.032    28.793     8.799
    18   6 C        2.979     0.003    27.961     8.674
    19   6 C        2.951     0.099    25.800     8.331
    20   6 C        2.914    -0.047    29.162     8.855
    21   6 C        2.921    -0.027    28.682     8.782
    22   6 C        2.962     0.080    26.215     8.398
    23   7 N        1.849    -0.265    27.736     7.805
    24   6 C        2.951     0.099    25.800     8.331
    25   6 C        2.979     0.003    27.961     8.674
    26   6 C        2.922    -0.032    28.792     8.799
    27   6 C        2.920    -0.040    28.994     8.830
    28   6 C        2.921     0.067    26.491     8.440
    29   7 N        2.751    -0.073    22.654     7.069
    30   6 C        2.922     0.043    27.039     8.527
    31   6 C        2.923    -0.061    29.515     8.909
    32   6 C        2.919    -0.039    28.972     8.827
    33   6 C        2.919    -0.042    29.034     8.836
    34   6 C        2.919    -0.058    29.449     8.899
    35   6 C        2.882     0.122    25.322     8.250
    36   8 O        1.708    -0.274    18.543     5.814
    37   6 C        2.882     0.122    25.320     8.249
    38   6 C        2.919    -0.058    29.450     8.899
    39   6 C        2.919    -0.042    29.036     8.836
    40   6 C        2.919    -0.039    28.978     8.828
    41   6 C        2.924    -0.061    29.521     8.910
    42   6 C        2.922     0.043    27.039     8.527
    43   6 C        2.919    -0.039    28.959     8.825
    44   6 C        2.926    -0.025    28.638     8.776
    45   6 C        2.914    -0.047    29.162     8.855
    46   6 C        2.921    -0.027    28.682     8.782
    47   6 C        2.962     0.080    26.215     8.398
    48   7 N        1.849    -0.265    27.736     7.805
    49   6 C        2.926    -0.025    28.638     8.776
    50   6 C        2.919    -0.039    28.959     8.825
    51   1 H        0.926     0.041     2.434     2.440
    52   1 H        0.926     0.041     2.438     2.442
    53   1 H        0.926     0.040     2.450     2.448
    54   1 H        0.926     0.047     2.363     2.404
    55   1 H        0.926     0.047     2.363     2.404
    56   1 H        0.926     0.041     2.436     2.441
    57   1 H        0.926     0.041     2.442     2.444
    58   1 H        0.926     0.039     2.460     2.453
    59   1 H        0.926     0.047     2.351     2.398
    60   1 H        0.926     0.048     2.346     2.395
    61   1 H        0.926     0.049     2.329     2.386
    62   1 H        0.926     0.054     2.274     2.358
    63   1 H        0.926     0.048     2.346     2.395
    64   1 H        0.926     0.047     2.352     2.398
    65   1 H        0.926     0.040     2.450     2.448
    66   1 H        0.926     0.041     2.438     2.442
    67   1 H        0.926     0.041     2.434     2.440
    68   1 H        0.926     0.047     2.363     2.404
    69   1 H        0.926     0.047     2.363     2.404
    70   1 H        0.926     0.041     2.436     2.441
    71   1 H        0.926     0.041     2.442     2.444
    72   1 H        0.926     0.039     2.461     2.453
    73   1 H        0.926     0.048     2.339     2.392
    74   1 H        0.926     0.061     2.185     2.312
    75   1 H        0.926     0.049     2.329     2.386
    76   1 H        0.926     0.054     2.274     2.358
    77   1 H        0.926     0.061     2.186     2.312
    78   1 H        0.926     0.048     2.339     2.392

molecular dipole:
                 x           y           z       tot (Debye)
 q only:        0.002       0.021      -0.000
   full:        0.002       0.010       0.000       0.025

 projected vibrational frequencies (cm⁻¹)
eigval :       -0.00    -0.00    -0.00     0.00     0.00     0.00
eigval :        6.91    12.31    13.22    17.32    24.38    27.07
eigval :       36.07    39.48    46.76    52.41    55.86    66.47
eigval :       76.67    78.19   112.79   114.87   117.71   131.46
eigval :      158.96   162.79   181.63   187.64   198.36   236.17
eigval :      250.45   252.39   258.14   259.16   269.94   272.55
eigval :      291.31   330.46   339.01   350.03   361.12   373.19
eigval :      374.47   380.99   387.53   389.77   400.90   419.08
eigval :      420.31   428.11   428.77   430.15   436.81   444.93
eigval :      445.89   458.25   467.17   497.90   500.63   509.80
eigval :      509.92   521.34   521.46   524.05   540.27   551.19
eigval :      556.54   576.20   584.79   587.38   590.76   606.74
eigval :      609.30   611.16   621.09   654.38   659.23   659.85
eigval :      659.92   660.50   663.03   674.08   692.60   705.59
eigval :      706.63   736.06   751.75   777.29   777.36   778.76
eigval :      779.68   796.43   798.54   801.25   816.08   828.03
eigval :      838.21   843.02   851.93   851.95   861.96   862.98
eigval :      863.99   865.62   869.31   874.12   882.25   895.82
eigval :      895.87   898.52   899.03   908.60   911.81   912.78
eigval :      914.30   914.91   915.09   915.47   918.43   919.75
eigval :      925.74   926.62   928.83   931.98   936.72   942.53
eigval :     1011.35  1011.40  1081.02  1082.26  1088.36  1088.45
eigval :     1090.28  1090.33  1104.87  1104.89  1117.15  1117.27
eigval :     1124.80  1127.81  1141.87  1153.12  1169.46  1169.51
eigval :     1173.32  1173.33  1180.32  1180.58  1189.75  1193.37
eigval :     1195.62  1195.71  1199.31  1219.26  1219.81  1240.35
eigval :     1240.42  1257.64  1257.97  1258.54  1264.78  1272.47
eigval :     1273.65  1303.87  1304.51  1304.71  1307.26  1307.27
eigval :     1314.53  1322.58  1331.10  1334.32  1334.75  1348.91
eigval :     1353.87  1359.94  1389.54  1401.06  1401.95  1421.84
eigval :     1422.00  1439.71  1440.88  1443.69  1470.91  1479.83
eigval :     1480.54  1480.56  1481.84  1503.15  1503.55  1514.74
eigval :     1553.99  1557.93  1565.39  1565.55  1567.96  1571.16
eigval :     1578.98  1579.00  1586.51  1586.60  1591.42  1592.28
eigval :     1602.34  1602.38  3081.98  3082.47  3083.88  3084.14
eigval :     3085.86  3085.86  3086.34  3086.56  3086.90  3086.96
eigval :     3094.58  3094.60  3095.32  3095.33  3096.55  3096.63
eigval :     3101.78  3102.71  3103.46  3103.49  3103.77  3103.80
eigval :     3107.96  3107.98  3108.80  3108.81  3109.09  3109.12

   temp. (K)  partition function   enthalpy   heat capacity  entropy
                                   cal/mol     cal/K/mol   cal/K/mol   J/K/mol
 298.15  VIB  0.190E+19            22538.661    142.995    140.211
         ROT  0.755E+08              888.752      2.981     39.028
         INT  0.143E+27            23427.414    145.976    179.240
         TR   0.158E+29             1481.254      4.968     45.253
         TOT                       24908.6677   150.9441   224.4923   939.2757

       T/K    H(0)-H(T)+PV         H(T)/Eh          T*S/Eh         G(T)/Eh
   ------------------------------------------------------------------------
    298.15    0.396945E-01    0.624528E+00    0.106664E+00    0.517864E+00
   ------------------------------------------------------------------------

         :::::::::::::::::::::::::::::::::::::::::::::::::::::
         ::                  THERMODYNAMIC                  ::
         :::::::::::::::::::::::::::::::::::::::::::::::::::::
         :: total free energy        -127.915399472690 Eh   ::
         ::.................................................::
         :: total energy             -128.433263643618 Eh   ::
         :: zero point energy           0.584833204423 Eh   ::
         :: G(RRHO) w/o ZPVE           -0.066969033495 Eh   ::
         :: G(RRHO) contrib.            0.517864170928 Eh   ::
         :::::::::::::::::::::::::::::::::::::::::::::::::::::

           -------------------------------------------------
          | TOTAL ENERGY             -128.433263643618 Eh   |
          | TOTAL ENTHALPY           -127.808735950562 Eh   |
          | TOTAL FREE ENERGY        -127.915399472690 Eh   |
          | GRADIENT NORM               0.000056409615 Eh/α |
          | HOMO-LUMO GAP               1.193170706510 eV   |
           -------------------------------------------------

 * finished run on 2025/09/12 at 09:02:53.336
