   * xtb version 6.7.1 (edcfbbe) compiled by 'albert@albert-system' on 2024-07-22

   ID    Z sym.   atoms
    1    6 C      1-6, 8-13, 15-22, 24-28, 30-35, 37-47, 49, 50
    2    8 O      7, 36
    3    7 N      14, 23, 29, 48
    4    1 H      51-78

          program call               : xtb data2507/toluene/NyDPO/NyDPO_toluene_T1_crest.xyz --gfn 2 --uhf 2 --gbsa toluene --ohess vtight --parallel 40 --molden --ceasefiles --namespace data2507/toluene/NyDPO/NyDPO_toluene_T1_finalOpt
      * Solvation model:               GBSA
        Solvent                        toluene
        Solvent mass                       9.2140E+01 g/mol
          :  Hamiltonian                  GFN2-xTB          :
 * total energy  :  -128.3776317 Eh     change       -0.1668596E-07 Eh
 * total energy  :  -128.3777061 Eh     change       -0.7434690E-04 Eh
 * total energy  :  -128.3777417 Eh     change       -0.3559427E-04 Eh
 * total energy  :  -128.3777489 Eh     change       -0.7254043E-05 Eh
 * total energy  :  -128.3777554 Eh     change       -0.6478489E-05 Eh
 * total energy  :  -128.3777614 Eh     change       -0.5956368E-05 Eh
 * total energy  :  -128.3777673 Eh     change       -0.5947864E-05 Eh
 * total energy  :  -128.3777718 Eh     change       -0.4481713E-05 Eh
 * total energy  :  -128.3777756 Eh     change       -0.3757160E-05 Eh
 * total energy  :  -128.3777800 Eh     change       -0.4456657E-05 Eh
 * total energy  :  -128.3777908 Eh     change       -0.6830653E-06 Eh
 * total energy  :  -128.3777916 Eh     change       -0.7410532E-06 Eh
 * total energy  :  -128.3777927 Eh     change       -0.1162920E-05 Eh
 * total energy  :  -128.3777938 Eh     change       -0.1115462E-05 Eh
 * total energy  :  -128.3777945 Eh     change       -0.6653021E-06 Eh
 * total energy  :  -128.3777949 Eh     change       -0.3868557E-06 Eh
 * total energy  :  -128.3777952 Eh     change       -0.3488629E-06 Eh
 * total energy  :  -128.3777956 Eh     change       -0.3808767E-06 Eh
 * total energy  :  -128.3777956 Eh     change       -0.1394261E-07 Eh
   *** GEOMETRY OPTIMIZATION CONVERGED AFTER 22 ITERATIONS ***

 final structure:
================
78
 xtb: 6.7.1 (edcfbbe)
C           10.10234750088715       -3.35004710328624        1.37987037967260
C            8.72999378127585       -3.40425379355552        1.21345776980948
C            8.03659616222724       -2.30469633204859        0.73687020691208
C            8.70657720780939       -1.12525213413870        0.42360042563111
C           10.10235179006260       -1.08740186557338        0.57673177135046
C           10.78846574158367       -2.18989168464432        1.05503549309422
O           10.84293660533775        0.02207966631219        0.25620799483775
C           10.17008191780670        1.12220305423503       -0.21165531483886
C           10.92336327368428        2.24141255619079       -0.51988284506698
C           10.30349791870964        3.39331014650053       -0.97937710522852
C            8.92727951849437        3.42242151681985       -1.11800313531543
C            8.16733632317605        2.30617609453232       -0.81253745605772
C            8.77424441220103        1.13487965203349       -0.36764560429904
N            8.04252727268190       -0.00326112368913       -0.05458341510332
C            6.63091849623047       -0.01323008690445       -0.20740043218700
C            6.06505215407427       -0.03397171421666       -1.47927938660366
C            4.69585345691492       -0.03538254252878       -1.63254350872032
C            3.84358260177000       -0.01722217896774       -0.51867795393371
C            2.39974158361235       -0.01093372210289       -0.61960084882202
C            1.69001089821355        0.05486742983457       -1.82953179776691
C            0.31809958687170        0.05906405914931       -1.83713701488812
C           -0.39836065595636       -0.00587917598492       -0.61650466279600
N           -1.71017926619899        0.00078573827588       -0.57121473244900
C           -2.39691460935040       -0.05742043359291        0.58758233140697
C           -3.84081161379304       -0.04713293636259        0.48933354339420
C           -4.69043032043973       -0.08646979851349        1.60482365878207
C           -6.05974378641819       -0.06915532724155        1.45573630771627
C           -6.62900220081614       -0.01153032999936        0.18651583649928
N           -8.04144175215192        0.01155294384846        0.04123956231856
C           -8.71871434093390       -1.10194058675379       -0.43778235832406
C           -8.05834614488478       -2.27672782351434       -0.78669472890947
C           -8.76528177377878       -3.36849197094148       -1.26138728378435
C          -10.14161328463620       -3.31095441702955       -1.38981802212499
C          -10.81757496241081       -2.15482275394412       -1.03108336527177
C          -10.11787206715155       -1.05989866164549       -0.55516926555472
O          -10.84836859646158        0.04592065823870       -0.20049805694931
C          -10.16221750918574        1.13823863884863        0.26635745752134
C          -10.90507759188606        2.25424017189882        0.60943675516753
C          -10.27126722784347        3.39785392615340        1.07072700860321
C           -8.89196159550410        3.42220167972086        1.17623056249764
C           -8.14239242992460        2.30891675356398        0.83633068332372
C           -8.76299430451546        1.14591921080645        0.38864748131318
C           -5.80311888552039        0.02652153772973       -0.93530342381346
C           -4.43672926623030        0.00738272134217       -0.78273967149081
C           -1.68654406934896       -0.12235564568108        1.79733967491632
C           -0.31485943341345       -0.12868900340025        1.80456089418053
C            0.40099924320812       -0.06973986715746        0.58337539903820
N            1.71271307569402       -0.06531046323860        0.53901477315014
C            4.43595839308510       -0.00565728032623        0.75608868324442
C            5.80181315773695       -0.00066788446842        0.91277362885336
H           10.64381964187164       -4.20429878743541        1.75415884618935
H            8.18816827007420       -4.30630894175170        1.45241491632034
H            6.96776743115955       -2.35527835751560        0.60186551874318
H           11.85941044762591       -2.11999082440248        1.16225694794301
H           11.99280746048545        2.19094753386623       -0.38934864778440
H           10.89748562785129        4.26108636764389       -1.21866518867555
H            8.43417706545262        4.31799654262795       -1.46321047935357
H            7.09407435681911        2.33742571681631       -0.91354165663579
H            6.71018035686263       -0.05089025682598       -2.34610756917086
H            4.28874881129448       -0.05870325144398       -2.63113345066855
H            2.22537301104743        0.10524292888271       -2.76456895829306
H           -0.24027789124786        0.10946885161967       -2.75944971826542
H           -4.28139435966669       -0.13284515536443        2.60174357852361
H           -6.70260877461387       -0.10084602860678        2.32384815006158
H           -6.98637138376331       -2.32960997680720       -0.68054051335542
H           -8.23109142708788       -4.26729587556091       -1.52814927366678
H          -10.69388400031744       -4.15940191420049       -1.76155031866934
H          -11.89085556762084       -2.08251702201195       -1.10927508754494
H          -11.97754004284137        2.20788250087682        0.50480766121224
H          -10.85716548739074        4.26312675160485        1.33741509630277
H           -8.38858514464878        4.31152997647610        1.52278468267202
H           -7.06692705132097        2.33534568762259        0.91261564822797
H           -6.24528544773168        0.07432241699899       -1.92001550446969
H           -3.78732891391752        0.04027236451037       -1.64399700869445
H           -2.22111795938596       -0.17285422439844        2.73275440947906
H            0.24390675250534       -0.18115682348046        2.72650855503731
H            3.78431564386982        0.00727778908980        1.61615209555854
H            6.24136064274328        0.01666519518706        1.89968195294002

          :  Hamiltonian                  GFN2-xTB          :
         :: gradient norm              0.000065262852 Eh/a0 ::
         :: HOMO-LUMO gap              1.002388415516 eV    ::
         :: SCC energy              -130.615282255524 Eh    ::
         :: -> dispersion             -0.106272580918 Eh    ::
         :: -> Gsolv                  -0.055284551688 Eh    ::
         :: repulsion energy           2.237486619028 Eh    ::

    * Orbital Energies and Occupations

         #    Occupation            Energy/Eh            Energy/eV
      -------------------------------------------------------------
         1        2.0000           -0.7405017             -20.1501
       ...           ...                  ...                  ...
       107        2.0000           -0.4205714             -11.4443
       108        2.0000           -0.4109428             -11.1823
       109        2.0000           -0.4108915             -11.1809
       110        2.0000           -0.4054922             -11.0340
       111        2.0000           -0.4021814             -10.9439
       112        2.0000           -0.3984267             -10.8417
       113        2.0000           -0.3978374             -10.8257
       114        2.0000           -0.3922427             -10.6735
       115        2.0000           -0.3775788             -10.2744
       116        1.8622           -0.3503669              -9.5340
       117        1.8300           -0.3501318              -9.5276
       118        1.3078           -0.3478550              -9.4656
       119        1.0000           -0.2891915              -7.8693 (HOMO)
       120                         -0.2523544              -6.8669 (LUMO)
       121                         -0.2481338              -6.7521
       122                         -0.2470542              -6.7227
       123                         -0.2470477              -6.7225
       124                         -0.2368674              -6.4455
       125                         -0.2368642              -6.4454
       126                         -0.2267723              -6.1708
       127                         -0.2266901              -6.1686
       128                         -0.2226207              -6.0578
       129                         -0.2221004              -6.0437
       130                         -0.2049499              -5.5770
       ...                                ...                  ...
       228                          0.7057052              19.2032
      -------------------------------------------------------------
                  HL-Gap            0.0368371 Eh            1.0024 eV

     #   Z          covCN         q      C6AA      α(0)
     1   6 C        2.919    -0.036    28.900     8.816
     2   6 C        2.918    -0.035    28.859     8.809
     3   6 C        2.922    -0.055    29.376     8.888
     4   6 C        2.924     0.046    26.976     8.517
     5   6 C        2.883     0.126    25.245     8.237
     6   6 C        2.918    -0.055    29.375     8.888
     7   8 O        1.709    -0.252    18.181     5.757
     8   6 C        2.883     0.126    25.244     8.237
     9   6 C        2.918    -0.055    29.375     8.888
    10   6 C        2.919    -0.036    28.901     8.816
    11   6 C        2.918    -0.035    28.861     8.810
    12   6 C        2.922    -0.056    29.379     8.889
    13   6 C        2.924     0.046    26.977     8.518
    14   7 N        2.752    -0.049    22.195     6.997
    15   6 C        2.922     0.048    26.915     8.508
    16   6 C        2.917    -0.041    29.021     8.834
    17   6 C        2.922    -0.040    29.006     8.832
    18   6 C        2.975     0.001    27.999     8.680
    19   6 C        2.932     0.067    26.494     8.441
    20   6 C        2.912    -0.047    29.159     8.855
    21   6 C        2.919    -0.059    29.466     8.902
    22   6 C        2.938     0.089    26.031     8.368
    23   7 N        1.850    -0.256    27.503     7.773
    24   6 C        2.932     0.067    26.495     8.442
    25   6 C        2.975     0.001    28.000     8.680
    26   6 C        2.922    -0.040    29.006     8.832
    27   6 C        2.918    -0.041    29.020     8.834
    28   6 C        2.922     0.048    26.917     8.508
    29   7 N        2.752    -0.049    22.195     6.997
    30   6 C        2.924     0.046    26.975     8.517
    31   6 C        2.922    -0.055    29.377     8.888
    32   6 C        2.918    -0.034    28.859     8.809
    33   6 C        2.919    -0.036    28.900     8.816
    34   6 C        2.918    -0.055    29.375     8.888
    35   6 C        2.883     0.126    25.245     8.237
    36   8 O        1.709    -0.252    18.181     5.757
    37   6 C        2.883     0.126    25.244     8.237
    38   6 C        2.918    -0.055    29.376     8.888
    39   6 C        2.919    -0.036    28.901     8.816
    40   6 C        2.918    -0.035    28.860     8.810
    41   6 C        2.922    -0.055    29.377     8.888
    42   6 C        2.924     0.046    26.977     8.518
    43   6 C        2.916    -0.040    29.000     8.831
    44   6 C        2.927    -0.034    28.853     8.809
    45   6 C        2.912    -0.047    29.158     8.854
    46   6 C        2.919    -0.059    29.466     8.902
    47   6 C        2.938     0.089    26.031     8.368
    48   7 N        1.851    -0.256    27.502     7.773
    49   6 C        2.927    -0.034    28.852     8.809
    50   6 C        2.916    -0.040    29.001     8.831
    51   1 H        0.926     0.049     2.328     2.386
    52   1 H        0.926     0.048     2.348     2.396
    53   1 H        0.926     0.047     2.364     2.404
    54   1 H        0.926     0.055     2.259     2.350
    55   1 H        0.926     0.055     2.259     2.350
    56   1 H        0.926     0.049     2.329     2.386
    57   1 H        0.926     0.048     2.349     2.397
    58   1 H        0.926     0.046     2.367     2.406
    59   1 H        0.926     0.039     2.464     2.455
    60   1 H        0.926     0.037     2.488     2.467
    61   1 H        0.926     0.037     2.494     2.469
    62   1 H        0.926     0.035     2.511     2.478
    63   1 H        0.926     0.037     2.488     2.467
    64   1 H        0.926     0.038     2.469     2.457
    65   1 H        0.926     0.046     2.364     2.404
    66   1 H        0.926     0.048     2.348     2.396
    67   1 H        0.926     0.049     2.328     2.386
    68   1 H        0.926     0.055     2.259     2.350
    69   1 H        0.926     0.055     2.259     2.350
    70   1 H        0.926     0.049     2.328     2.386
    71   1 H        0.926     0.048     2.349     2.397
    72   1 H        0.926     0.046     2.369     2.407
    73   1 H        0.926     0.040     2.455     2.450
    74   1 H        0.926     0.051     2.312     2.378
    75   1 H        0.926     0.037     2.493     2.469
    76   1 H        0.926     0.035     2.510     2.478
    77   1 H        0.926     0.051     2.312     2.378
    78   1 H        0.926     0.039     2.459     2.452

molecular dipole:
                 x           y           z       tot (Debye)
 q only:        0.001       0.012       0.001
   full:        0.001       0.004       0.003       0.014

 projected vibrational frequencies (cm⁻¹)
eigval :       -0.00    -0.00    -0.00     0.00     0.00     0.00
eigval :       -6.10    -2.04     5.61    16.82    24.33    25.15
eigval :       31.19    36.68    41.81    43.50    49.18    65.14
eigval :       76.07    79.55   106.82   110.37   120.31   124.28
eigval :      158.52   160.27   175.65   185.00   197.02   237.15
eigval :      245.48   246.91   255.62   259.24   269.80   272.54
eigval :      295.40   322.45   335.22   358.50   364.38   369.09
eigval :      370.30   375.07   381.59   390.56   399.26   420.21
eigval :      422.18   425.32   427.85   428.76   435.51   450.89
eigval :      451.90   456.40   469.13   482.15   492.52   501.78
eigval :      504.54   510.86   522.72   524.38   535.09   543.30
eigval :      548.28   562.20   571.56   584.36   586.18   601.77
eigval :      608.82   609.69   610.26   617.81   654.66   661.60
eigval :      664.38   664.79   666.89   671.91   676.10   681.03
eigval :      699.00   703.72   727.98   771.43   774.48   775.38
eigval :      776.07   776.86   777.77   795.34   796.98   803.30
eigval :      803.73   819.98   851.72   852.93   852.95   853.96
eigval :      857.95   862.93   864.73   865.40   866.35   867.81
eigval :      873.03   881.67   897.47   898.61   898.76   900.11
eigval :      903.51   903.74   913.18   914.19   914.55   915.57
eigval :      915.91   916.89   919.28   920.69   921.77   924.25
eigval :     1004.38  1005.58  1074.35  1079.08  1083.79  1084.07
eigval :     1085.14  1085.38  1108.57  1108.63  1114.65  1117.08
eigval :     1117.82  1121.73  1133.75  1144.91  1166.50  1167.58
eigval :     1171.55  1171.74  1177.23  1178.95  1186.77  1192.43
eigval :     1199.68  1200.22  1203.79  1215.85  1218.02  1236.50
eigval :     1236.87  1245.97  1252.53  1253.96  1258.32  1262.07
eigval :     1273.80  1282.61  1292.20  1308.41  1308.71  1309.67
eigval :     1314.32  1314.70  1321.92  1325.66  1328.64  1344.60
eigval :     1345.94  1367.21  1385.75  1391.48  1409.31  1410.48
eigval :     1418.80  1419.09  1424.38  1439.30  1440.31  1454.46
eigval :     1455.23  1455.31  1473.34  1475.20  1487.18  1489.33
eigval :     1504.65  1517.02  1528.78  1529.34  1559.25  1559.25
eigval :     1567.65  1567.84  1573.99  1576.98  1577.81  1581.86
eigval :     1588.30  1590.80  3074.51  3074.65  3077.51  3077.80
eigval :     3078.13  3078.41  3090.39  3090.44  3090.46  3090.84
eigval :     3091.60  3091.81  3096.89  3097.15  3098.83  3099.00
eigval :     3099.26  3099.43  3099.51  3099.58  3107.53  3107.60
eigval :     3107.89  3108.10  3111.47  3111.53  3111.57  3112.02

   temp. (K)  partition function   enthalpy   heat capacity  entropy
                                   cal/mol     cal/K/mol   cal/K/mol   J/K/mol
 298.15  VIB  0.770E+20            22815.797    143.870    144.391
         ROT  0.151E+09              888.752      2.981     40.410
         INT  0.116E+29            23704.549    146.851    184.801
         TR   0.158E+29             1481.254      4.968     45.253
         TOT                       25185.8031   151.8192   230.0536   962.5444

       T/K    H(0)-H(T)+PV         H(T)/Eh          T*S/Eh         G(T)/Eh
   ------------------------------------------------------------------------
    298.15    0.401361E-01    0.621524E+00    0.109306E+00    0.512219E+00
   ------------------------------------------------------------------------

         :::::::::::::::::::::::::::::::::::::::::::::::::::::
         ::                  THERMODYNAMIC                  ::
         :::::::::::::::::::::::::::::::::::::::::::::::::::::
         :: total free energy        -127.865577111650 Eh   ::
         ::.................................................::
         :: total energy             -128.377795637476 Eh   ::
         :: zero point energy           0.581388294452 Eh   ::
         :: G(RRHO) w/o ZPVE           -0.069169768626 Eh   ::
         :: G(RRHO) contrib.            0.512218525826 Eh   ::
         :::::::::::::::::::::::::::::::::::::::::::::::::::::

           -------------------------------------------------
          | TOTAL ENERGY             -128.377795637476 Eh   |
          | TOTAL ENTHALPY           -127.756271210958 Eh   |
          | TOTAL FREE ENERGY        -127.865577111650 Eh   |
          | GRADIENT NORM               0.000065622493 Eh/α |
          | HOMO-LUMO GAP               1.002389535283 eV   |
           -------------------------------------------------

 * finished run on 2025/09/12 at 09:14:07.548
