   * xtb version 6.7.1 (edcfbbe) compiled by 'albert@albert-system' on 2024-07-22

   ID    Z sym.   atoms
    1    8 O      1, 3
    2   16 S      2
    3    6 C      4-40
    4    1 H      41-66

          program call               : xtb data2507/toluene/DPPSPF/DPPSPF_toluene_S0_finalOpt.xtbopt.xyz --gfn 2 --uhf 2 --gbsa toluene --ohess vtight --parallel 40 --molden --ceasefiles --namespace data2507/toluene/DPPSPF/DPPSPF_toluene_T1_preOpt
      * Solvation model:               GBSA
        Solvent                        toluene
        Solvent mass                       9.2140E+01 g/mol
          :  Hamiltonian                  GFN2-xTB          :
 * total energy  :  -103.7662685 Eh     change       -0.6595400E-09 Eh
 * total energy  :  -103.7756231 Eh     change       -0.9354594E-02 Eh
 * total energy  :  -103.7781757 Eh     change       -0.2552684E-02 Eh
 * total energy  :  -103.7785313 Eh     change       -0.3555083E-03 Eh
 * total energy  :  -103.7790846 Eh     change       -0.5533733E-03 Eh
 * total energy  :  -103.7794030 Eh     change       -0.3184193E-03 Eh
 * total energy  :  -103.7796793 Eh     change       -0.2762072E-03 Eh
 * total energy  :  -103.7798506 Eh     change       -0.1713810E-03 Eh
 * total energy  :  -103.7799472 Eh     change       -0.9651887E-04 Eh
 * total energy  :  -103.7800260 Eh     change       -0.7888607E-04 Eh
 * total energy  :  -103.7807116 Eh     change       -0.6530539E-06 Eh
 * total energy  :  -103.7807122 Eh     change       -0.6034310E-06 Eh
 * total energy  :  -103.7807128 Eh     change       -0.5792684E-06 Eh
 * total energy  :  -103.7807134 Eh     change       -0.5797780E-06 Eh
 * total energy  :  -103.7807140 Eh     change       -0.6101975E-06 Eh
 * total energy  :  -103.7807146 Eh     change       -0.6561369E-06 Eh
 * total energy  :  -103.7807153 Eh     change       -0.6983040E-06 Eh
 * total energy  :  -103.7807160 Eh     change       -0.7229359E-06 Eh
 * total energy  :  -103.7807160 Eh     change       -0.4324178E-08 Eh
   *** GEOMETRY OPTIMIZATION CONVERGED AFTER 94 ITERATIONS ***

 final structure:
================
66
 xtb: 6.7.1 (edcfbbe)
O            6.24187379600670        1.07979520950040       -2.15617280172636
S            5.70979189750213        1.13926599674495       -0.80667509124232
O            5.78159222840639        2.42395512530902       -0.13531660729664
C            6.57369153283512       -0.08065738194482        0.19051312944195
C            7.40422371065429       -1.00233332341106       -0.41730238067502
C            8.02513671198160       -1.96797461895324        0.35845287536297
C            7.80351351156312       -2.00173622542877        1.72652310946727
C            6.96585535007949       -1.07202911891282        2.32551305716988
C            6.34330290580545       -0.10563805575081        1.55359500426989
C            4.02919810933652        0.57597833304481       -0.80649813770779
C            3.70198038462163       -0.57716405755438       -1.52308891274049
C            2.42885003452551       -1.07318096016064       -1.48021395617078
C            1.40134702017792       -0.43270530080977       -0.72041762689041
C            0.07981860617090       -0.93701317884329       -0.67695826248734
C           -0.21925418544569       -2.30196671905272       -1.04268613757789
C           -1.47444522560445       -2.81149530934998       -1.00385360223031
C           -2.55845351240901       -1.97992743801416       -0.61119035174211
C           -2.28431408347183       -0.60807249460670       -0.26174625124203
C           -1.02699517311521       -0.11292152654625       -0.26970776826309
C           -3.57980061356695        0.09291171845710        0.10894802600152
C           -3.43413052323676        0.61294921856544        1.52603167303234
C           -3.78108381724749       -0.17919892541945        2.61319648296217
C           -3.59014422971300        0.27823910702768        3.90566598381287
C           -3.03739277983604        1.52765987974285        4.12850553049226
C           -2.67346476592696        2.31670472594098        3.04961395627026
C           -2.86781650844532        1.86198269759286        1.75792499499869
C           -3.98692688381348        1.17257350888495       -0.87891253454273
C           -4.92997745387081        2.12908302611035       -0.51769769761820
C           -5.35642577749723        3.07596638194353       -1.43107060519169
C           -4.85117679897569        3.07744936159869       -2.72087303110435
C           -3.92042645282946        2.12199846605894       -3.09082142917276
C           -3.49575796728511        1.17170863115514       -2.17821973488140
C           -4.58439616709603       -1.03433402009002       -0.03440539477095
C           -5.93879700899459       -1.01500707605963        0.16862592859041
C           -6.67435194045109       -2.18110545343323       -0.05711178832333
C           -6.04652407317296       -3.35393019287085       -0.49240455410696
C           -4.69181767311734       -3.39483484318528       -0.70996876097181
C           -3.93136954785063       -2.22657068319547       -0.48318707714051
C            1.77839135258074        0.74681672309741       -0.00676646966517
C            3.05993443346961        1.22359087635853       -0.03957107002418
H            7.55724036420048       -0.93777930073262       -1.48373805872447
H            8.68044083393095       -2.69005705345735       -0.10465577987687
H            8.28713193524844       -2.75520280660591        2.32991147549106
H            6.79818932132539       -1.09996139975970        3.39147179567342
H            5.69276001185608        0.63652033365964        1.98938169430160
H            4.46930426624847       -1.04568951952483       -2.12010290937892
H            2.18996683548747       -1.93992806668199       -2.07432699002357
H            0.59912867273456       -2.95012911323754       -1.31074385967115
H           -1.66110229189873       -3.84424709363559       -1.25692926053734
H           -0.85479295424522        0.92220956482645       -0.02538079675501
H           -4.20511134088635       -1.15944464537147        2.44921110269374
H           -3.87201724055456       -0.34621360283725        4.74114549393228
H           -2.88774557065145        1.88434154373481        5.13714573590358
H           -2.23679538048626        3.29139766213316        3.21428647135955
H           -2.58854752456031        2.48748533969772        0.92221468679192
H           -5.32397770351006        2.14060224442858        0.48824458542588
H           -6.08636990264974        3.81553647615503       -1.13484681785088
H           -5.18388515098252        3.81741036852191       -3.43406237495401
H           -3.52371938876477        2.11229812578249       -4.09583544427424
H           -2.77475002397633        0.42613526474946       -2.48041612003904
H           -6.43793894605235       -0.11772940654267        0.50193171968699
H           -7.74140179252045       -2.17764407358492        0.10520565160397
H           -6.64548513073038       -4.23739938796882       -0.65986599744904
H           -4.20729665321087       -4.29709893319231       -1.04977394581312
H            1.05286652997237        1.24890451355993        0.61224773330054
H            3.35144535824947        2.10711972871403        0.50801636237243

          :  Hamiltonian                  GFN2-xTB          :
         :: gradient norm              0.000050016101 Eh/a0 ::
         :: HOMO-LUMO gap              0.918023993636 eV    ::
         :: SCC energy              -105.625359093430 Eh    ::
         :: -> dispersion             -0.093033190409 Eh    ::
         :: -> Gsolv                  -0.053279221520 Eh    ::
         :: repulsion energy           1.844643050032 Eh    ::

    * Orbital Energies and Occupations

         #    Occupation            Energy/Eh            Energy/eV
      -------------------------------------------------------------
         1        2.0000           -0.7669303             -20.8692
       ...           ...                  ...                  ...
        85        2.0000           -0.4210438             -11.4572
        86        2.0000           -0.4201594             -11.4331
        87        2.0000           -0.4182741             -11.3818
        88        2.0000           -0.4165301             -11.3344
        89        2.0000           -0.4117648             -11.2047
        90        2.0000           -0.4072265             -11.0812
        91        2.0000           -0.4060725             -11.0498
        92        2.0000           -0.4041983             -10.9988
        93        2.0000           -0.4012471             -10.9185
        94        2.0000           -0.3991330             -10.8610
        95        2.0000           -0.3931911             -10.6993
        96        1.0000           -0.3738566             -10.1732
        97        1.0000           -0.2889977              -7.8640 (HOMO)
        98                         -0.2552609              -6.9460 (LUMO)
        99                         -0.2425432              -6.5999
       100                         -0.2408565              -6.5540
       101                         -0.2333072              -6.3486
       102                         -0.2324755              -6.3260
       103                         -0.2301445              -6.2626
       104                         -0.2263539              -6.1594
       105                         -0.2227714              -6.0619
       106                         -0.2202647              -5.9937
       107                         -0.2178160              -5.9271
       108                         -0.1951061              -5.3091
       ...                                ...                  ...
       191                          1.1589926              31.5378
      -------------------------------------------------------------
                  HL-Gap            0.0337368 Eh            0.9180 eV

     #   Z          covCN         q      C6AA      α(0)
     1   8 O        0.860    -0.586    25.779     6.807
     2  16 S        3.819     0.914   109.162    17.585
     3   8 O        0.860    -0.585    25.762     6.805
     4   6 C        2.971    -0.070    29.749     8.947
     5   6 C        2.953    -0.025    28.624     8.775
     6   6 C        2.921    -0.023    28.571     8.766
     7   6 C        2.920    -0.023    28.588     8.768
     8   6 C        2.921    -0.023    28.567     8.765
     9   6 C        2.959    -0.027    28.670     8.782
    10   6 C        2.968    -0.086    30.139     9.005
    11   6 C        2.953    -0.032    28.794     8.801
    12   6 C        2.920    -0.033    28.812     8.802
    13   6 C        2.967     0.009    27.807     8.650
    14   6 C        2.968     0.017    27.628     8.622
    15   6 C        2.914    -0.035    28.868     8.810
    16   6 C        2.902    -0.030    28.748     8.791
    17   6 C        3.029     0.004    27.909     8.665
    18   6 C        3.040     0.012    27.701     8.633
    19   6 C        2.909    -0.042    29.040     8.836
    20   6 C        3.940     0.008    20.383     6.416
    21   6 C        2.979     0.016    27.649     8.625
    22   6 C        2.923    -0.036    28.885     8.814
    23   6 C        2.919    -0.030    28.749     8.793
    24   6 C        2.919    -0.032    28.795     8.800
    25   6 C        2.919    -0.030    28.754     8.793
    26   6 C        2.924    -0.034    28.850     8.808
    27   6 C        2.980     0.016    27.644     8.624
    28   6 C        2.924    -0.034    28.841     8.807
    29   6 C        2.919    -0.030    28.756     8.794
    30   6 C        2.919    -0.032    28.797     8.800
    31   6 C        2.919    -0.030    28.750     8.793
    32   6 C        2.923    -0.036    28.898     8.816
    33   6 C        3.056     0.012    27.688     8.629
    34   6 C        2.908    -0.031    28.784     8.797
    35   6 C        2.920    -0.026    28.660     8.779
    36   6 C        2.914    -0.027    28.671     8.780
    37   6 C        2.909    -0.033    28.828     8.804
    38   6 C        3.026     0.011    27.743     8.640
    39   6 C        2.920    -0.032    28.803     8.801
    40   6 C        2.944    -0.029    28.724     8.790
    41   1 H        0.926     0.053     2.281     2.362
    42   1 H        0.926     0.059     2.211     2.325
    43   1 H        0.926     0.061     2.188     2.313
    44   1 H        0.926     0.060     2.203     2.321
    45   1 H        0.926     0.049     2.336     2.390
    46   1 H        0.926     0.041     2.431     2.438
    47   1 H        0.926     0.056     2.243     2.342
    48   1 H        0.926     0.046     2.367     2.406
    49   1 H        0.926     0.045     2.388     2.417
    50   1 H        0.926     0.042     2.427     2.436
    51   1 H        0.926     0.032     2.563     2.504
    52   1 H        0.926     0.033     2.541     2.493
    53   1 H        0.926     0.033     2.548     2.496
    54   1 H        0.926     0.033     2.547     2.496
    55   1 H        0.926     0.033     2.541     2.493
    56   1 H        0.926     0.035     2.520     2.482
    57   1 H        0.926     0.034     2.533     2.489
    58   1 H        0.926     0.033     2.551     2.498
    59   1 H        0.926     0.032     2.557     2.501
    60   1 H        0.926     0.031     2.571     2.508
    61   1 H        0.926     0.039     2.463     2.454
    62   1 H        0.926     0.041     2.432     2.439
    63   1 H        0.926     0.040     2.443     2.444
    64   1 H        0.926     0.042     2.420     2.432
    65   1 H        0.926     0.055     2.258     2.350
    66   1 H        0.926     0.046     2.375     2.410

molecular dipole:
                 x           y           z       tot (Debye)
 q only:       -3.501      -2.939       1.486
   full:       -3.368      -2.771       1.395      11.638

 projected vibrational frequencies (cm⁻¹)
eigval :       -0.00    -0.00    -0.00     0.00     0.00     0.00
eigval :        3.82    14.12    23.55    28.21    33.69    36.71
eigval :       45.42    49.12    53.40    61.68    70.50    75.60
eigval :       84.49   108.72   129.42   133.89   144.69   148.12
eigval :      176.73   207.85   211.50   224.70   234.78   255.43
eigval :      267.61   276.03   283.02   289.21   307.44   322.95
eigval :      340.60   355.69   364.56   367.38   370.46   377.30
eigval :      385.35   392.09   422.58   440.11   446.86   451.35
eigval :      463.46   477.38   488.29   500.40   518.00   531.73
eigval :      536.19   584.01   586.13   587.56   588.87   597.67
eigval :      602.52   608.33   628.33   644.82   656.50   663.46
eigval :      668.58   676.36   680.53   694.13   699.74   713.67
eigval :      737.31   748.93   750.34   757.57   778.82   782.88
eigval :      789.84   815.74   833.13   838.93   876.23   879.19
eigval :      880.75   893.79   895.35   897.14   899.60   901.22
eigval :      906.36   907.12   907.81   910.75   912.44   912.62
eigval :      926.99   929.87   930.29   931.69   933.49   937.21
eigval :      956.44   966.49   976.70   983.71   998.74  1007.56
eigval :     1053.37  1055.91  1068.29  1082.55  1086.16  1087.57
eigval :     1101.02  1101.71  1112.45  1118.93  1122.19  1125.96
eigval :     1129.00  1154.29  1161.02  1173.51  1175.47  1175.98
eigval :     1178.52  1178.80  1179.95  1199.16  1201.51  1202.01
eigval :     1213.92  1221.64  1233.89  1247.80  1251.73  1258.35
eigval :     1273.43  1283.40  1285.15  1307.81  1315.28  1319.13
eigval :     1320.33  1327.36  1334.34  1343.24  1360.89  1379.30
eigval :     1404.15  1411.60  1427.14  1428.16  1429.36  1434.27
eigval :     1440.89  1456.41  1468.49  1471.05  1472.50  1499.50
eigval :     1526.49  1559.58  1568.91  1571.82  1582.75  1586.32
eigval :     1591.37  1594.32  1597.15  1626.39  3067.50  3069.56
eigval :     3069.80  3071.56  3075.78  3077.56  3079.43  3080.81
eigval :     3082.62  3083.42  3083.58  3086.90  3087.39  3089.06
eigval :     3089.55  3090.70  3091.00  3093.17  3094.20  3098.55
eigval :     3099.17  3102.41  3105.06  3106.36  3112.65  3114.22

   temp. (K)  partition function   enthalpy   heat capacity  entropy
                                   cal/mol     cal/K/mol   cal/K/mol   J/K/mol
 298.15  VIB  0.709E+16            19403.315    120.670    122.298
         ROT  0.565E+08              888.752      2.981     38.452
         INT  0.400E+24            20292.067    123.651    160.750
         TR   0.120E+29             1481.254      4.968     44.695
         TOT                       21773.3211   128.6193   205.4449   859.5816

       T/K    H(0)-H(T)+PV         H(T)/Eh          T*S/Eh         G(T)/Eh
   ------------------------------------------------------------------------
    298.15    0.346980E-01    0.534207E+00    0.976135E-01    0.436594E+00
   ------------------------------------------------------------------------

         :::::::::::::::::::::::::::::::::::::::::::::::::::::
         ::                  THERMODYNAMIC                  ::
         :::::::::::::::::::::::::::::::::::::::::::::::::::::
         :: total free energy        -103.344122083126 Eh   ::
         ::.................................................::
         :: total energy             -103.780716039997 Eh   ::
         :: zero point energy           0.499509476437 Eh   ::
         :: G(RRHO) w/o ZPVE           -0.062915519566 Eh   ::
         :: G(RRHO) contrib.            0.436593956871 Eh   ::
         :::::::::::::::::::::::::::::::::::::::::::::::::::::

           -------------------------------------------------
          | TOTAL ENERGY             -103.780716039997 Eh   |
          | TOTAL ENTHALPY           -103.246508567842 Eh   |
          | TOTAL FREE ENERGY        -103.344122083126 Eh   |
          | GRADIENT NORM               0.000050050766 Eh/α |
          | HOMO-LUMO GAP               0.918024957478 eV   |
           -------------------------------------------------

 * finished run on 2025/07/18 at 08:13:11.093
