   * xtb version 6.7.1 (edcfbbe) compiled by 'albert@albert-system' on 2024-07-22

   ID    Z sym.   atoms
    1    8 O      1, 3
    2   16 S      2
    3    6 C      4-40
    4    1 H      41-66

          program call               : xtb data2507/toluene/DPPSPF/DPPSPF.xyz --gfn 2 --gbsa toluene --ohess vtight --parallel 40 --molden --ceasefiles --namespace data2507/toluene/DPPSPF/DPPSPF_toluene_S0_preOpt
      * Solvation model:               GBSA
        Solvent                        toluene
        Solvent mass                       9.2140E+01 g/mol
          :  Hamiltonian                  GFN2-xTB          :
 * total energy  :  -103.8617938 Eh     change       -0.1010463E-08 Eh
 * total energy  :  -103.8724471 Eh     change       -0.1065327E-01 Eh
 * total energy  :  -103.8755899 Eh     change       -0.3142818E-02 Eh
 * total energy  :  -103.8762151 Eh     change       -0.6251672E-03 Eh
 * total energy  :  -103.8764355 Eh     change       -0.2204594E-03 Eh
 * total energy  :  -103.8765418 Eh     change       -0.1062936E-03 Eh
 * total energy  :  -103.8766419 Eh     change       -0.1000966E-03 Eh
 * total energy  :  -103.8767410 Eh     change       -0.9905507E-04 Eh
 * total energy  :  -103.8768429 Eh     change       -0.1019363E-03 Eh
 * total energy  :  -103.8769412 Eh     change       -0.9827816E-04 Eh
 * total energy  :  -103.8772282 Eh     change       -0.3524223E-06 Eh
 * total energy  :  -103.8772286 Eh     change       -0.3704650E-06 Eh
 * total energy  :  -103.8772290 Eh     change       -0.4336418E-06 Eh
 * total energy  :  -103.8772296 Eh     change       -0.5775720E-06 Eh
 * total energy  :  -103.8772302 Eh     change       -0.5776208E-06 Eh
 * total energy  :  -103.8772308 Eh     change       -0.5960172E-06 Eh
 * total energy  :  -103.8772314 Eh     change       -0.6148701E-06 Eh
 * total energy  :  -103.8772320 Eh     change       -0.6097986E-06 Eh
 * total energy  :  -103.8772320 Eh     change       -0.6098816E-08 Eh
   *** GEOMETRY OPTIMIZATION CONVERGED AFTER 68 ITERATIONS ***

 final structure:
================
66
 xtb: 6.7.1 (edcfbbe)
O            6.28213499213807        1.71056865577171       -2.40591519887384
S            5.95651407533354        1.70148497537321       -0.99365004540881
O            5.98709182726592        2.97915879866202       -0.31039683800922
C            7.06947928387646        0.56838038355047       -0.15472518536905
C            7.92603818639952       -0.22734227802688       -0.88963360557464
C            8.75645139681164       -1.11690344904447       -0.22623459903447
C            8.71340359345552       -1.20044797441856        1.15682013860864
C            7.84776717245795       -0.39615342528995        1.88334293996274
C            7.01629003282482        0.49434497244096        1.22437813769547
C            4.33532565154681        0.96805225970540       -0.77446227475144
C            4.04907147767523       -0.21432827355320       -1.43169565752910
C            2.81490516668389       -0.80869568583914       -1.24827835294256
C            1.86298808785730       -0.22442223550036       -0.41036421460812
C            0.54775873761502       -0.85276962679360       -0.21873817886416
C            0.44022712128747       -2.23490916425449       -0.05730745900096
C           -0.78799154894093       -2.84202271498217        0.13412331441772
C           -1.92846014826650       -2.05448469097363        0.15230909365701
C           -1.82955391444128       -0.66580423394539       -0.02030923730683
C           -0.60501166658577       -0.06334013397090       -0.19469738455583
C           -3.19882407975700       -0.01629575154888        0.05267850456685
C           -3.17921591745764        0.95806441308750        1.21594941526304
C           -3.55561302630055        0.55944716317390        2.49196135359454
C           -3.47377744813938        1.44072233511277        3.55665684589862
C           -3.00430407671113        2.72829905717140        3.36304340040451
C           -2.61597934152335        3.12972429431408        2.09565144105731
C           -2.70010170765761        2.25067519988237        1.03100588436146
C           -3.63257860498233        0.63784318214497       -1.24580879937982
C           -4.66855579059636        1.56564299975764       -1.24450912850269
C           -5.11495850763639        2.12447320152767       -2.42840936512308
C           -4.53583849599334        1.76039594634927       -3.63260775541661
C           -3.51077993446877        0.83043007121621       -3.64296118572446
C           -3.06566982049556        0.26830253998645       -2.45872588017263
C           -4.08930176404313       -1.22375455635104        0.28172753083360
C           -5.46114339749256       -1.27134626420722        0.41175012925641
C           -6.07160371341496       -2.50499863618770        0.59680020134172
C           -5.32068419309494       -3.67018791370818        0.64565601615487
C           -3.94241101125280       -3.63035656858747        0.50940416030988
C           -3.32852270943241       -2.40161273603389        0.32493172222973
C            2.17571698257629        0.96959358804614        0.24100950461024
C            3.41187340806678        1.56323397723728        0.06314836001296
H            7.93417552528729       -0.12768253674747       -1.96418672730405
H            9.43366928469565       -1.74157256136763       -0.78848996893994
H            9.36059908432666       -1.89388894156647        1.67251746644164
H            7.81999899224363       -0.46209211950518        2.96024601472990
H            6.33913502277334        1.14075300444410        1.76038745687651
H            4.78911000306520       -0.64377538452278       -2.08872100800028
H            2.57564840023672       -1.72079537913368       -1.77345911936159
H            1.33747587862193       -2.83585518317182       -0.05639050794924
H           -0.85371225806148       -3.91134246768420        0.26833783653053
H           -0.53037949353924        1.00324785443910       -0.34125208780287
H           -3.91894216628067       -0.44457878373295        2.65623129551324
H           -3.77674430291745        1.11704026447250        4.54213661193446
H           -2.94051582487528        3.41553833620754        4.19415334952583
H           -2.24462798280707        4.13178117978619        1.93455769731074
H           -2.40293820174507        2.57634270154806        0.04443327505502
H           -5.12148295632306        1.86193196133443       -0.30919156249733
H           -5.91908323558121        2.84625502951079       -2.41012537977128
H           -4.88291861813272        2.19815030499478       -4.55728537148668
H           -3.05466851104891        0.53740097037606       -4.57777892766950
H           -2.26902879171426       -0.46103341392136       -2.48033147875889
H           -6.05359406926357       -0.36934979445477        0.37470391218880
H           -7.14550668898733       -2.55662572770962        0.70331211048453
H           -5.81737462672082       -4.61891851360060        0.79005134326348
H           -3.35975577106445       -4.53889034088481        0.54499629821884
H            1.45299915720695        1.42287183081422        0.90264509313481
H            3.67630577540907        2.48642500879076        0.55558863024726

          :  Hamiltonian                  GFN2-xTB          :
         :: gradient norm              0.000052599449 Eh/a0 ::
         :: HOMO-LUMO gap              2.898432967523 eV    ::
         :: SCC energy              -105.741450720289 Eh    ::
         :: -> dispersion             -0.093167192456 Eh    ::
         :: -> Gsolv                  -0.051239208145 Eh    ::
         :: repulsion energy           1.864218717380 Eh    ::

    * Orbital Energies and Occupations

         #    Occupation            Energy/Eh            Energy/eV
      -------------------------------------------------------------
         1        2.0000           -0.7734892             -21.0477
       ...           ...                  ...                  ...
        84        2.0000           -0.4246779             -11.5561
        85        2.0000           -0.4214478             -11.4682
        86        2.0000           -0.4184628             -11.3870
        87        2.0000           -0.4175551             -11.3623
        88        2.0000           -0.4145644             -11.2809
        89        2.0000           -0.4106912             -11.1755
        90        2.0000           -0.4058105             -11.0427
        91        2.0000           -0.4051906             -11.0258
        92        2.0000           -0.4033811             -10.9766
        93        2.0000           -0.3983943             -10.8409
        94        2.0000           -0.3965090             -10.7896
        95        2.0000           -0.3905016             -10.6261
        96        2.0000           -0.3794144             -10.3244 (HOMO)
        97                         -0.2728989              -7.4260 (LUMO)
        98                         -0.2564566              -6.9785
        99                         -0.2452027              -6.6723
       100                         -0.2433601              -6.6222
       101                         -0.2399844              -6.5303
       102                         -0.2313887              -6.2964
       103                         -0.2294343              -6.2432
       104                         -0.2244662              -6.1080
       105                         -0.2206414              -6.0040
       106                         -0.2181533              -5.9363
       107                         -0.2164305              -5.8894
       ...                                ...                  ...
       191                          1.1637586              31.6675
      -------------------------------------------------------------
                  HL-Gap            0.1065155 Eh            2.8984 eV

     #   Z          covCN         q      C6AA      α(0)
     1   8 O        0.860    -0.581    25.650     6.790
     2  16 S        3.819     0.931   108.659    17.544
     3   8 O        0.860    -0.581    25.649     6.790
     4   6 C        2.972    -0.070    29.752     8.947
     5   6 C        2.953    -0.024    28.594     8.771
     6   6 C        2.921    -0.021    28.541     8.761
     7   6 C        2.920    -0.021    28.535     8.760
     8   6 C        2.922    -0.021    28.533     8.760
     9   6 C        2.961    -0.026    28.655     8.780
    10   6 C        2.972    -0.075    29.863     8.964
    11   6 C        2.959    -0.028    28.692     8.786
    12   6 C        2.926    -0.028    28.707     8.787
    13   6 C        2.977     0.023    27.483     8.599
    14   6 C        2.979     0.007    27.847     8.656
    15   6 C        2.925    -0.037    28.914     8.818
    16   6 C        2.913    -0.034    28.848     8.807
    17   6 C        3.035     0.002    27.949     8.671
    18   6 C        3.055     0.006    27.841     8.653
    19   6 C        2.919    -0.038    28.935     8.821
    20   6 C        3.946     0.007    20.386     6.416
    21   6 C        2.979     0.017    27.623     8.621
    22   6 C        2.923    -0.036    28.899     8.816
    23   6 C        2.920    -0.031    28.768     8.795
    24   6 C        2.919    -0.033    28.827     8.805
    25   6 C        2.919    -0.031    28.779     8.797
    26   6 C        2.924    -0.035    28.860     8.810
    27   6 C        2.979     0.017    27.625     8.621
    28   6 C        2.924    -0.034    28.849     8.808
    29   6 C        2.919    -0.031    28.775     8.797
    30   6 C        2.919    -0.033    28.828     8.805
    31   6 C        2.920    -0.031    28.772     8.796
    32   6 C        2.923    -0.037    28.911     8.818
    33   6 C        3.057     0.005    27.861     8.656
    34   6 C        2.914    -0.034    28.841     8.806
    35   6 C        2.922    -0.032    28.808     8.802
    36   6 C        2.921    -0.033    28.829     8.805
    37   6 C        2.914    -0.034    28.857     8.809
    38   6 C        3.035     0.001    27.977     8.676
    39   6 C        2.926    -0.028    28.702     8.786
    40   6 C        2.951    -0.025    28.619     8.774
    41   1 H        0.926     0.057     2.239     2.340
    42   1 H        0.926     0.062     2.177     2.308
    43   1 H        0.926     0.064     2.157     2.297
    44   1 H        0.926     0.062     2.171     2.304
    45   1 H        0.926     0.052     2.299     2.371
    46   1 H        0.926     0.051     2.306     2.375
    47   1 H        0.926     0.062     2.175     2.307
    48   1 H        0.926     0.041     2.432     2.439
    49   1 H        0.926     0.040     2.452     2.449
    50   1 H        0.926     0.038     2.475     2.460
    51   1 H        0.926     0.030     2.580     2.512
    52   1 H        0.926     0.031     2.567     2.505
    53   1 H        0.926     0.031     2.570     2.507
    54   1 H        0.926     0.031     2.568     2.506
    55   1 H        0.926     0.031     2.565     2.505
    56   1 H        0.926     0.032     2.560     2.502
    57   1 H        0.926     0.032     2.564     2.504
    58   1 H        0.926     0.031     2.575     2.509
    59   1 H        0.926     0.031     2.576     2.510
    60   1 H        0.926     0.030     2.585     2.514
    61   1 H        0.926     0.032     2.560     2.502
    62   1 H        0.926     0.033     2.549     2.497
    63   1 H        0.926     0.033     2.546     2.495
    64   1 H        0.926     0.035     2.517     2.481
    65   1 H        0.926     0.060     2.196     2.317
    66   1 H        0.926     0.056     2.252     2.347

molecular dipole:
                 x           y           z       tot (Debye)
 q only:       -1.103      -2.710       1.531
   full:       -1.044      -2.529       1.434       7.851

 projected vibrational frequencies (cm⁻¹)
eigval :       -0.00    -0.00    -0.00    -0.00     0.00     0.00
eigval :        7.57    12.35    20.69    22.31    31.76    35.37
eigval :       39.78    51.13    55.00    59.41    72.29    77.10
eigval :       82.41   118.83   128.54   134.14   144.18   153.11
eigval :      185.65   208.69   213.66   229.58   245.93   266.46
eigval :      273.17   282.67   288.45   305.46   315.03   337.23
eigval :      345.63   366.02   366.90   370.18   374.11   380.17
eigval :      392.83   416.10   440.91   446.40   461.51   473.16
eigval :      481.40   497.73   499.98   514.60   529.04   541.58
eigval :      571.64   584.51   587.68   588.66   595.33   610.78
eigval :      617.57   623.61   635.18   658.03   669.14   670.64
eigval :      679.58   689.02   692.98   701.55   722.86   729.24
eigval :      750.55   753.54   761.33   776.07   802.28   808.05
eigval :      835.37   872.12   878.94   879.21   879.81   880.47
eigval :      883.45   899.97   905.46   907.24   908.38   911.14
eigval :      913.87   916.29   918.01   927.53   927.87   928.10
eigval :      928.73   931.61   933.17   934.82   936.21   938.83
eigval :      965.85   986.81   995.80  1001.00  1009.55  1064.99
eigval :     1069.43  1074.17  1078.95  1085.30  1087.62  1102.20
eigval :     1109.70  1114.67  1119.02  1119.70  1123.78  1125.90
eigval :     1151.76  1169.01  1173.55  1174.92  1177.16  1179.20
eigval :     1181.36  1182.09  1184.70  1192.22  1201.41  1205.09
eigval :     1225.52  1227.63  1237.85  1251.07  1255.15  1258.42
eigval :     1275.90  1284.63  1286.70  1300.69  1314.86  1318.47
eigval :     1319.93  1321.75  1324.65  1360.72  1388.22  1419.07
eigval :     1427.05  1427.24  1432.42  1434.82  1442.00  1446.54
eigval :     1461.23  1472.34  1474.71  1481.48  1569.90  1572.06
eigval :     1573.41  1578.88  1584.70  1588.18  1590.60  1595.25
eigval :     1595.75  1597.81  1601.79  1602.93  3066.58  3067.57
eigval :     3068.64  3069.30  3070.21  3076.39  3076.94  3078.02
eigval :     3079.25  3081.78  3082.48  3084.53  3085.45  3086.36
eigval :     3088.93  3089.62  3089.71  3090.23  3090.95  3091.77
eigval :     3094.66  3096.05  3099.18  3101.17  3101.48  3104.40

   temp. (K)  partition function   enthalpy   heat capacity  entropy
                                   cal/mol     cal/K/mol   cal/K/mol   J/K/mol
 298.15  VIB  0.416E+16            19056.856    118.377    119.809
         ROT  0.567E+08              888.752      2.981     38.458
         INT  0.236E+24            19945.609    121.358    158.268
         TR   0.120E+29             1481.254      4.968     44.695
         TOT                       21426.8625   126.3265   202.9625   849.1950

       T/K    H(0)-H(T)+PV         H(T)/Eh          T*S/Eh         G(T)/Eh
   ------------------------------------------------------------------------
    298.15    0.341459E-01    0.537378E+00    0.964340E-01    0.440944E+00
   ------------------------------------------------------------------------

         :::::::::::::::::::::::::::::::::::::::::::::::::::::
         ::                  THERMODYNAMIC                  ::
         :::::::::::::::::::::::::::::::::::::::::::::::::::::
         :: total free energy        -103.436287769091 Eh   ::
         ::.................................................::
         :: total energy             -103.877232002632 Eh   ::
         :: zero point energy           0.503232371761 Eh   ::
         :: G(RRHO) w/o ZPVE           -0.062288138219 Eh   ::
         :: G(RRHO) contrib.            0.440944233541 Eh   ::
         :::::::::::::::::::::::::::::::::::::::::::::::::::::

           -------------------------------------------------
          | TOTAL ENERGY             -103.877232002632 Eh   |
          | TOTAL ENTHALPY           -103.339853752063 Eh   |
          | TOTAL FREE ENERGY        -103.436287769091 Eh   |
          | GRADIENT NORM               0.000052598146 Eh/α |
          | HOMO-LUMO GAP               2.898433000969 eV   |
           -------------------------------------------------

 * finished run on 2025/07/18 at 08:08:09.817
