   * xtb version 6.7.1 (edcfbbe) compiled by 'albert@albert-system' on 2024-07-22

   ID    Z sym.   atoms
    1    8 O      1, 3
    2   16 S      2
    3    6 C      4-40
    4    1 H      41-66

          program call               : xtb data2507/toluene/DPPSPF/DPPSPF_toluene_T1_crest.xyz --gfn 2 --uhf 2 --gbsa toluene --ohess vtight --parallel 40 --molden --ceasefiles --namespace data2507/toluene/DPPSPF/DPPSPF_toluene_T1_finalOpt
      * Solvation model:               GBSA
        Solvent                        toluene
        Solvent mass                       9.2140E+01 g/mol
          :  Hamiltonian                  GFN2-xTB          :
 * total energy  :  -103.7805381 Eh     change       -0.5974812E-09 Eh
 * total energy  :  -103.7806944 Eh     change       -0.1563059E-03 Eh
 * total energy  :  -103.7807781 Eh     change       -0.8362964E-04 Eh
 * total energy  :  -103.7807876 Eh     change       -0.9529155E-05 Eh
 * total energy  :  -103.7807982 Eh     change       -0.1060594E-04 Eh
 * total energy  :  -103.7808017 Eh     change       -0.3507755E-05 Eh
 * total energy  :  -103.7808085 Eh     change       -0.6783863E-05 Eh
 * total energy  :  -103.7808115 Eh     change       -0.2999460E-05 Eh
 * total energy  :  -103.7808171 Eh     change       -0.5653547E-05 Eh
 * total energy  :  -103.7808187 Eh     change       -0.1557612E-05 Eh
 * total energy  :  -103.7808193 Eh     change       -0.6539761E-06 Eh
 * total energy  :  -103.7808200 Eh     change       -0.6218581E-06 Eh
 * total energy  :  -103.7808208 Eh     change       -0.8100018E-06 Eh
 * total energy  :  -103.7808214 Eh     change       -0.6398674E-06 Eh
 * total energy  :  -103.7808218 Eh     change       -0.3513509E-06 Eh
 * total energy  :  -103.7808218 Eh     change       -0.7287650E-07 Eh
   *** GEOMETRY OPTIMIZATION CONVERGED AFTER 16 ITERATIONS ***

 final structure:
================
66
 xtb: 6.7.1 (edcfbbe)
O            6.37745199497550        1.89609258775042       -1.28965189298653
S            5.74323564421093        1.35834380447882       -0.09989321426647
O            5.82717148524032        2.16105796843918        1.10644815572890
C            6.45106244023725       -0.25641892315225        0.24074462338195
C            6.92691133438057       -1.01948039839992       -0.80946471208591
C            7.41182186255335       -2.29156469924958       -0.55555868160793
C            7.40917223564271       -2.78633704095417        0.74017692267691
C            6.92899830543648       -2.01201619141292        1.78584121519957
C            6.44281638202573       -0.73945055418761        1.53600855354885
C            4.04422829386728        1.00050234330574       -0.45139021839996
C            3.65432709346567        0.69037363647834       -1.75582696283396
C            2.36351339237927        0.32511682808861       -2.01872088703668
C            1.38000871048260        0.25029221760970       -0.98358472267549
C            0.04379995709573       -0.13335209175855       -1.24689352765623
C           -0.31837609913525       -0.82306068448307       -2.46344779185812
C           -1.58711272355429       -1.21738685691285       -2.73186169834345
C           -2.62282916480069       -0.93477963104907       -1.80083651782945
C           -2.28708942179852       -0.22895968572068       -0.58976138917362
C           -1.01654827138515        0.13929530151607       -0.31326475344936
C           -3.53712588709693       -0.03313191120028        0.25068242930072
C           -3.30177029233367       -0.71811807242517        1.58366364519439
C           -3.63131144819882       -2.05576632887306        1.76237139567547
C           -3.35982980948165       -2.69294113071647        2.96089764326386
C           -2.74315048737511       -2.00529551791690        3.99185773797314
C           -2.39666220003742       -0.67565153885942        3.81559995494526
C           -2.67111364923316       -0.03731027775091        2.61965634133581
C           -3.95262572732670        1.42021915639741        0.39303167265082
C           -4.82031564676084        1.80419930793116        1.40989697036216
C           -5.25387034025666        3.11403778521159        1.50670830365563
C           -4.83352763723155        4.05755992884806        0.58374749408438
C           -3.98027355002281        3.67986995407890       -0.43881482982634
C           -3.54790139730447        2.36866316112625       -0.53781716354114
C           -4.58677748909775       -0.71260492483264       -0.60735071763875
C           -5.92982088193317       -0.85288780115013       -0.37722026225553
C           -6.71500935859993       -1.50661103181419       -1.32974244378035
C           -6.14804353476568       -2.00653952932494       -2.50753009169730
C           -4.80608510248353       -1.86927991969509       -2.76337045020938
C           -3.99658605756382       -1.21258849521305       -1.81116356198159
C            1.82017369590296        0.58369965389919        0.33539625067701
C            3.11707756054229        0.93240711369466        0.59063918780377
H            6.92629917725606       -0.59760335309687       -1.80240341824186
H            7.79183140077366       -2.89429991244122       -1.36643309151343
H            7.78744714343634       -3.77834816611971        0.93639035342158
H            6.93408572140950       -2.39730536980464        2.79423492690607
H            6.07329121021706       -0.10473889196126        2.32629970277132
H            4.38936123694944        0.77393338268925       -2.54159301455139
H            2.07802703304283        0.13536963030078       -3.04032533804404
H            0.46291430657431       -1.07244665599650       -3.16261724951094
H           -1.81952405230512       -1.75380624899942       -3.63949060446935
H           -0.80096058676549        0.68695131464803        0.58893130203768
H           -4.10528755884285       -2.60376915087216        0.96076326415696
H           -3.62878043520035       -3.73177138668583        3.08720368329964
H           -2.53073915012500       -2.50279767459174        4.92685762068594
H           -1.91123065115515       -0.13226816564226        4.61362049346301
H           -2.40460365129095        1.00231669285565        2.49426321354736
H           -5.14923534429822        1.07650682570077        2.13757276673642
H           -5.92261925021130        3.39915394914640        2.30615507164980
H           -5.17130415132196        5.08078908789986        0.66012991548370
H           -3.65096410188095        4.40760022839760       -1.16642976267305
H           -2.88847125011415        2.08277489608102       -1.34446705785943
H           -6.38076625380067       -0.47236264067639        0.52687254603709
H           -7.77322739926963       -1.62786046774646       -1.15521408155012
H           -6.78391601417727       -2.50623651502766       -3.22395900151840
H           -4.36923699130999       -2.25012607842104       -3.67353126989134
H            1.13019818937685        0.51413380600254        1.16027675854883
H            3.45060408817367        1.17666269765946        1.58747348895367

          :  Hamiltonian                  GFN2-xTB          :
         :: gradient norm              0.000131997250 Eh/a0 ::
         :: HOMO-LUMO gap              0.915304314415 eV    ::
         :: SCC energy              -105.625596932434 Eh    ::
         :: -> dispersion             -0.092905821001 Eh    ::
         :: -> Gsolv                  -0.053255453517 Eh    ::
         :: repulsion energy           1.844775084728 Eh    ::

    * Orbital Energies and Occupations

         #    Occupation            Energy/Eh            Energy/eV
      -------------------------------------------------------------
         1        2.0000           -0.7666168             -20.8607
       ...           ...                  ...                  ...
        85        2.0000           -0.4211172             -11.4592
        86        2.0000           -0.4200783             -11.4309
        87        2.0000           -0.4185473             -11.3893
        88        2.0000           -0.4163915             -11.3306
        89        2.0000           -0.4118951             -11.2082
        90        2.0000           -0.4072888             -11.0829
        91        2.0000           -0.4062405             -11.0544
        92        2.0000           -0.4042703             -11.0008
        93        2.0000           -0.4007454             -10.9048
        94        2.0000           -0.3991146             -10.8605
        95        2.0000           -0.3932659             -10.7013
        96        1.0000           -0.3740540             -10.1785
        97        1.0000           -0.2895294              -7.8785 (HOMO)
        98                         -0.2558926              -6.9632 (LUMO)
        99                         -0.2410301              -6.5588
       100                         -0.2405168              -6.5448
       101                         -0.2332874              -6.3481
       102                         -0.2324482              -6.3252
       103                         -0.2303682              -6.2686
       104                         -0.2264138              -6.1610
       105                         -0.2228992              -6.0654
       106                         -0.2205361              -6.0011
       107                         -0.2178078              -5.9269
       108                         -0.1949187              -5.3040
       ...                                ...                  ...
       191                          1.1563156              31.4649
      -------------------------------------------------------------
                  HL-Gap            0.0336368 Eh            0.9153 eV

     #   Z          covCN         q      C6AA      α(0)
     1   8 O        0.860    -0.585    25.755     6.804
     2  16 S        3.819     0.912   109.212    17.589
     3   8 O        0.860    -0.585    25.750     6.804
     4   6 C        2.971    -0.071    29.778     8.951
     5   6 C        2.957    -0.026    28.660     8.781
     6   6 C        2.921    -0.023    28.578     8.767
     7   6 C        2.920    -0.024    28.602     8.770
     8   6 C        2.921    -0.023    28.577     8.766
     9   6 C        2.956    -0.026    28.656     8.780
    10   6 C        2.968    -0.086    30.154     9.007
    11   6 C        2.948    -0.031    28.767     8.797
    12   6 C        2.920    -0.033    28.815     8.803
    13   6 C        2.967     0.009    27.810     8.650
    14   6 C        2.968     0.017    27.618     8.620
    15   6 C        2.914    -0.035    28.866     8.810
    16   6 C        2.902    -0.030    28.746     8.791
    17   6 C        3.029     0.004    27.903     8.664
    18   6 C        3.040     0.012    27.699     8.632
    19   6 C        2.909    -0.042    29.041     8.837
    20   6 C        3.940     0.008    20.383     6.416
    21   6 C        2.979     0.016    27.648     8.625
    22   6 C        2.923    -0.036    28.887     8.814
    23   6 C        2.919    -0.030    28.750     8.793
    24   6 C        2.919    -0.032    28.795     8.800
    25   6 C        2.919    -0.030    28.754     8.793
    26   6 C        2.923    -0.034    28.849     8.808
    27   6 C        2.980     0.016    27.644     8.624
    28   6 C        2.923    -0.034    28.843     8.807
    29   6 C        2.919    -0.030    28.755     8.794
    30   6 C        2.919    -0.032    28.795     8.800
    31   6 C        2.919    -0.030    28.749     8.793
    32   6 C        2.923    -0.036    28.894     8.815
    33   6 C        3.057     0.012    27.683     8.629
    34   6 C        2.908    -0.031    28.782     8.797
    35   6 C        2.920    -0.026    28.653     8.778
    36   6 C        2.914    -0.027    28.670     8.780
    37   6 C        2.909    -0.033    28.824     8.803
    38   6 C        3.026     0.011    27.739     8.639
    39   6 C        2.920    -0.032    28.799     8.800
    40   6 C        2.948    -0.031    28.761     8.796
    41   1 H        0.926     0.051     2.306     2.375
    42   1 H        0.926     0.059     2.213     2.326
    43   1 H        0.926     0.060     2.196     2.318
    44   1 H        0.926     0.059     2.214     2.327
    45   1 H        0.926     0.051     2.303     2.373
    46   1 H        0.926     0.044     2.391     2.418
    47   1 H        0.926     0.056     2.246     2.343
    48   1 H        0.926     0.046     2.365     2.405
    49   1 H        0.926     0.045     2.387     2.416
    50   1 H        0.926     0.042     2.420     2.433
    51   1 H        0.926     0.032     2.564     2.504
    52   1 H        0.926     0.033     2.542     2.493
    53   1 H        0.926     0.033     2.546     2.495
    54   1 H        0.926     0.033     2.543     2.494
    55   1 H        0.926     0.033     2.537     2.491
    56   1 H        0.926     0.035     2.517     2.481
    57   1 H        0.926     0.034     2.533     2.489
    58   1 H        0.926     0.033     2.551     2.497
    59   1 H        0.926     0.032     2.557     2.501
    60   1 H        0.926     0.031     2.573     2.509
    61   1 H        0.926     0.039     2.461     2.453
    62   1 H        0.926     0.041     2.429     2.437
    63   1 H        0.926     0.041     2.441     2.443
    64   1 H        0.926     0.042     2.418     2.431
    65   1 H        0.926     0.055     2.253     2.347
    66   1 H        0.926     0.044     2.395     2.420

molecular dipole:
                 x           y           z       tot (Debye)
 q only:       -3.829      -3.131      -0.203
   full:       -3.683      -2.955      -0.196      12.013

 projected vibrational frequencies (cm⁻¹)
eigval :       -0.00    -0.00    -0.00    -0.00     0.00     0.00
eigval :        7.78    10.77    16.15    22.05    34.57    37.60
eigval :       46.29    49.64    54.01    58.83    69.25    76.08
eigval :       87.20   106.13   125.10   141.39   143.93   147.99
eigval :      175.48   203.20   210.86   223.09   232.69   259.08
eigval :      267.38   274.25   285.37   287.37   307.07   324.26
eigval :      340.43   355.89   362.26   366.85   371.55   379.44
eigval :      382.72   400.57   422.81   428.62   445.85   449.65
eigval :      461.92   477.02   487.01   500.44   517.91   531.48
eigval :      535.75   584.05   585.91   587.49   588.72   597.11
eigval :      602.91   607.79   628.35   644.98   654.76   663.05
eigval :      668.87   676.72   680.84   693.89   701.20   713.37
eigval :      740.25   746.12   749.76   758.26   778.40   782.29
eigval :      788.01   812.15   835.95   841.42   875.09   879.73
eigval :      881.09   891.86   894.47   896.49   898.63   901.12
eigval :      904.42   907.84   908.29   908.50   911.37   912.76
eigval :      923.34   928.44   928.94   931.32   934.22   936.57
eigval :      956.40   966.30   976.51   983.63   998.92  1007.84
eigval :     1053.23  1055.71  1068.83  1082.75  1086.57  1087.51
eigval :     1101.16  1102.13  1111.52  1118.99  1121.87  1125.81
eigval :     1128.53  1154.16  1160.83  1173.06  1175.86  1176.94
eigval :     1177.72  1179.82  1180.85  1199.20  1201.54  1202.08
eigval :     1215.23  1222.23  1234.50  1247.58  1252.30  1259.23
eigval :     1274.08  1283.32  1285.52  1307.79  1315.20  1319.35
eigval :     1320.30  1327.71  1334.85  1343.50  1361.13  1379.93
eigval :     1405.22  1412.65  1427.03  1428.98  1430.13  1434.60
eigval :     1440.20  1456.64  1467.58  1471.00  1472.62  1499.49
eigval :     1525.42  1559.48  1567.70  1572.11  1582.73  1586.36
eigval :     1589.45  1594.34  1597.18  1625.25  3068.48  3069.21
eigval :     3070.08  3071.31  3076.13  3078.00  3079.26  3081.20
eigval :     3082.71  3083.07  3083.28  3084.81  3087.79  3089.96
eigval :     3090.66  3090.74  3092.20  3092.67  3095.57  3098.11
eigval :     3101.38  3103.68  3105.70  3107.35  3113.20  3117.24

   temp. (K)  partition function   enthalpy   heat capacity  entropy
                                   cal/mol     cal/K/mol   cal/K/mol   J/K/mol
 298.15  VIB  0.810E+16            19433.362    120.660    122.417
         ROT  0.559E+08              888.752      2.981     38.433
         INT  0.453E+24            20322.114    123.641    160.849
         TR   0.120E+29             1481.254      4.968     44.695
         TOT                       21803.3678   128.6095   205.5444   859.9976

       T/K    H(0)-H(T)+PV         H(T)/Eh          T*S/Eh         G(T)/Eh
   ------------------------------------------------------------------------
    298.15    0.347459E-01    0.534189E+00    0.976608E-01    0.436528E+00
   ------------------------------------------------------------------------

         :::::::::::::::::::::::::::::::::::::::::::::::::::::
         ::                  THERMODYNAMIC                  ::
         :::::::::::::::::::::::::::::::::::::::::::::::::::::
         :: total free energy        -103.344293767622 Eh   ::
         ::.................................................::
         :: total energy             -103.780821848565 Eh   ::
         :: zero point energy           0.499442962515 Eh   ::
         :: G(RRHO) w/o ZPVE           -0.062914881572 Eh   ::
         :: G(RRHO) contrib.            0.436528080943 Eh   ::
         :::::::::::::::::::::::::::::::::::::::::::::::::::::

           -------------------------------------------------
          | TOTAL ENERGY             -103.780821848565 Eh   |
          | TOTAL ENTHALPY           -103.246633007732 Eh   |
          | TOTAL FREE ENERGY        -103.344293767622 Eh   |
          | GRADIENT NORM               0.000131943094 Eh/α |
          | HOMO-LUMO GAP               0.915302809141 eV   |
           -------------------------------------------------

 * finished run on 2025/07/18 at 08:18:25.928
