   * xtb version 6.7.1 (edcfbbe) compiled by 'albert@albert-system' on 2024-07-22

   ID    Z sym.   atoms
    1    8 O      1, 3
    2   16 S      2
    3    6 C      4-40
    4    1 H      41-66

          program call               : xtb data2507/toluene/DPPSPF/DPPSPF_toluene_S0_crest.xyz --gfn 2 --gbsa toluene --ohess vtight --parallel 40 --molden --ceasefiles --namespace data2507/toluene/DPPSPF/DPPSPF_toluene_S0_finalOpt
      * Solvation model:               GBSA
        Solvent                        toluene
        Solvent mass                       9.2140E+01 g/mol
          :  Hamiltonian                  GFN2-xTB          :
 * total energy  :  -103.8770059 Eh     change       -0.4091703E-08 Eh
 * total energy  :  -103.8771246 Eh     change       -0.1186751E-03 Eh
 * total energy  :  -103.8771832 Eh     change       -0.5862555E-04 Eh
 * total energy  :  -103.8771914 Eh     change       -0.8169066E-05 Eh
 * total energy  :  -103.8771992 Eh     change       -0.7819062E-05 Eh
 * total energy  :  -103.8772026 Eh     change       -0.3378073E-05 Eh
 * total energy  :  -103.8772065 Eh     change       -0.3923463E-05 Eh
 * total energy  :  -103.8772095 Eh     change       -0.3009567E-05 Eh
 * total energy  :  -103.8772141 Eh     change       -0.4628135E-05 Eh
 * total energy  :  -103.8772192 Eh     change       -0.5096159E-05 Eh
 * total energy  :  -103.8772267 Eh     change       -0.2303449E-05 Eh
 * total energy  :  -103.8772280 Eh     change       -0.1306083E-05 Eh
 * total energy  :  -103.8772287 Eh     change       -0.7160230E-06 Eh
 * total energy  :  -103.8772294 Eh     change       -0.6930915E-06 Eh
 * total energy  :  -103.8772301 Eh     change       -0.7349939E-06 Eh
 * total energy  :  -103.8772310 Eh     change       -0.8746738E-06 Eh
 * total energy  :  -103.8772319 Eh     change       -0.8799623E-06 Eh
 * total energy  :  -103.8772325 Eh     change       -0.6216504E-06 Eh
 * total energy  :  -103.8772325 Eh     change       -0.6216311E-08 Eh
   *** GEOMETRY OPTIMIZATION CONVERGED AFTER 22 ITERATIONS ***

 final structure:
================
66
 xtb: 6.7.1 (edcfbbe)
O            6.03060910172100        1.73783221397600       -1.67062218297047
S            5.65558131951362        1.33076521604642       -0.33113700107222
O            5.75550628832072        2.33680954635499        0.70706308445318
C            6.64930780699695       -0.09071185374249        0.13673091758088
C            7.43356705941958       -0.72273865614523       -0.80809669869095
C            8.16597847687190       -1.83989824566448       -0.43892023311406
C            8.09986090661287       -2.30857781744871        0.86403390958411
C            7.30736922342692       -1.66543803050757        1.80331057238359
C            6.57355533365711       -0.54868264358826        1.43852826172645
C            3.97868015261227        0.69777057625845       -0.36281820233635
C            3.62831215886951       -0.19818211347193       -1.35594020999927
C            2.34978445348303       -0.72249299776799       -1.37466495728932
C            1.41637356576196       -0.35339984729902       -0.40379825517861
C            0.05397821096100       -0.90544832600346       -0.42594184610722
C           -0.15857073081883       -2.25389504815792       -0.71738107343632
C           -1.43210130518074       -2.79372378772847       -0.73281395161707
C           -2.51238618643232       -1.96815460642454       -0.46348565053569
C           -2.30817564873053       -0.60904441436981       -0.18209845276707
C           -1.03903016433690       -0.07872785568659       -0.15182226019089
C           -3.62793981335461        0.08717411031899        0.09237805916097
C           -3.56755283168049        0.64318008583873        1.50293166757498
C           -3.98649617459170       -0.11455175527998        2.58888398433136
C           -3.87627380382658        0.38119151018947        3.87687114980674
C           -3.33531677477180        1.63600210781560        4.09777431978039
C           -2.90034404578071        2.39110872519659        3.02130545127887
C           -3.01190929602045        1.89709177889058        1.73399118502045
C           -3.98240585696258        1.14488393121681       -0.93646587924986
C           -4.94935999427538        2.10147337072399       -0.64636250501978
C           -5.32612265540800        3.03292385753826       -1.59698767848575
C           -4.74688303211538        3.01827650648483       -2.85483607996038
C           -3.79141845457150        2.06285069467351       -3.15463451609931
C           -3.41458572065752        1.12969920856469       -2.20396135296315
C           -4.60930044723962       -1.05915525171917       -0.07235826944305
C           -5.98373685824680       -1.04069760154943        0.03684081857796
C           -6.68667332797155       -2.21796997079166       -0.18370851816162
C           -6.02399311148592       -3.39156017826476       -0.51159202851284
C           -4.64355814971428       -3.41615530776513       -0.62813252313593
C           -3.93758980349529       -2.24382699588981       -0.40922470546835
C            1.79454203538836        0.55304791554076        0.58791573860038
C            3.07510377842016        1.07440612756969        0.61204717757248
H            7.46476733076816       -0.32245127537814       -1.80978909816738
H            8.78614027710081       -2.34071087429918       -1.16661566805257
H            8.67136626771821       -3.17868644084256        1.15035315712842
H            7.26108544511970       -2.03201198774923        2.81735530208295
H            5.95580641419980       -0.01934793273442        2.14695892402282
H            4.35503084352218       -0.45971949403334       -2.10905781630788
H            2.06428533529797       -1.40763179627350       -2.15814565860094
H            0.69182613336987       -2.89146796399907       -0.90817039407070
H           -1.57877682596104       -3.84123381207916       -0.94938850655906
H           -0.88441946194892        0.96957269302056        0.05289425979566
H           -4.40576416896658       -1.09721617326913        2.42824310033657
H           -4.21387827781126       -0.21785206852901        4.71045724357315
H           -3.25111768067635        2.02320727223147        5.10285673116372
H           -2.47129265478260        3.36966786866596        3.18363257304945
H           -2.67678552493808        2.49731035749374        0.90019729883475
H           -5.40272746720816        2.12525855576695        0.33424617446003
H           -6.07585306072600        3.77248652231737       -1.35452652213081
H           -5.04051905459219        3.74609212556105       -3.59721387548195
H           -3.33613901069898        2.04069740547287       -4.13441922867531
H           -2.67169703627996        0.38555430624987       -2.45181961087357
H           -6.50781905989654       -0.13158257408713        0.29122952193850
H           -7.76374983860794       -2.21875683437090       -0.09892662221247
H           -6.59195189470099       -4.29535274350900       -0.67924082332058
H           -4.12967463178229       -4.33030539275974       -0.88591524730497
H            1.08689752460513        0.83436253108906        1.35317477474256
H            3.38940057951106        1.77677270131178        1.36871994240383

          :  Hamiltonian                  GFN2-xTB          :
         :: gradient norm              0.000063699349 Eh/a0 ::
         :: HOMO-LUMO gap              2.889778409123 eV    ::
         :: SCC energy              -105.741309897129 Eh    ::
         :: -> dispersion             -0.093150476748 Eh    ::
         :: -> Gsolv                  -0.051230054188 Eh    ::
         :: repulsion energy           1.864077379070 Eh    ::

    * Orbital Energies and Occupations

         #    Occupation            Energy/Eh            Energy/eV
      -------------------------------------------------------------
         1        2.0000           -0.7734777             -21.0474
       ...           ...                  ...                  ...
        84        2.0000           -0.4245999             -11.5540
        85        2.0000           -0.4214894             -11.4693
        86        2.0000           -0.4184974             -11.3879
        87        2.0000           -0.4175089             -11.3610
        88        2.0000           -0.4145412             -11.2802
        89        2.0000           -0.4107296             -11.1765
        90        2.0000           -0.4057323             -11.0405
        91        2.0000           -0.4052031             -11.0261
        92        2.0000           -0.4033538             -10.9758
        93        2.0000           -0.3984263             -10.8417
        94        2.0000           -0.3964936             -10.7891
        95        2.0000           -0.3904387             -10.6244
        96        2.0000           -0.3793668             -10.3231 (HOMO)
        97                         -0.2731694              -7.4333 (LUMO)
        98                         -0.2564820              -6.9792
        99                         -0.2451835              -6.6718
       100                         -0.2432459              -6.6191
       101                         -0.2397529              -6.5240
       102                         -0.2312719              -6.2932
       103                         -0.2295400              -6.2461
       104                         -0.2244773              -6.1083
       105                         -0.2206376              -6.0039
       106                         -0.2182445              -5.9387
       107                         -0.2163578              -5.8874
       ...                                ...                  ...
       191                          1.1637120              31.6662
      -------------------------------------------------------------
                  HL-Gap            0.1061974 Eh            2.8898 eV

     #   Z          covCN         q      C6AA      α(0)
     1   8 O        0.860    -0.581    25.649     6.790
     2  16 S        3.819     0.931   108.662    17.544
     3   8 O        0.860    -0.580    25.641     6.789
     4   6 C        2.972    -0.071    29.756     8.948
     5   6 C        2.953    -0.024    28.598     8.771
     6   6 C        2.921    -0.021    28.542     8.761
     7   6 C        2.920    -0.021    28.535     8.760
     8   6 C        2.921    -0.021    28.534     8.760
     9   6 C        2.960    -0.026    28.652     8.780
    10   6 C        2.972    -0.075    29.867     8.964
    11   6 C        2.959    -0.028    28.694     8.786
    12   6 C        2.926    -0.028    28.710     8.787
    13   6 C        2.977     0.023    27.484     8.599
    14   6 C        2.979     0.008    27.847     8.656
    15   6 C        2.925    -0.037    28.914     8.818
    16   6 C        2.913    -0.034    28.848     8.807
    17   6 C        3.035     0.002    27.947     8.671
    18   6 C        3.055     0.006    27.841     8.653
    19   6 C        2.919    -0.038    28.934     8.821
    20   6 C        3.946     0.007    20.387     6.416
    21   6 C        2.979     0.017    27.624     8.621
    22   6 C        2.923    -0.036    28.897     8.815
    23   6 C        2.919    -0.031    28.768     8.795
    24   6 C        2.919    -0.033    28.827     8.805
    25   6 C        2.919    -0.031    28.779     8.797
    26   6 C        2.924    -0.035    28.862     8.810
    27   6 C        2.979     0.017    27.624     8.621
    28   6 C        2.924    -0.034    28.849     8.808
    29   6 C        2.919    -0.031    28.775     8.797
    30   6 C        2.919    -0.033    28.828     8.805
    31   6 C        2.920    -0.031    28.773     8.796
    32   6 C        2.923    -0.037    28.911     8.818
    33   6 C        3.057     0.005    27.860     8.656
    34   6 C        2.914    -0.034    28.841     8.806
    35   6 C        2.922    -0.032    28.807     8.802
    36   6 C        2.921    -0.033    28.829     8.805
    37   6 C        2.914    -0.034    28.857     8.809
    38   6 C        3.035     0.001    27.977     8.676
    39   6 C        2.926    -0.028    28.703     8.786
    40   6 C        2.951    -0.025    28.620     8.775
    41   1 H        0.926     0.057     2.239     2.340
    42   1 H        0.926     0.062     2.177     2.307
    43   1 H        0.926     0.064     2.157     2.297
    44   1 H        0.926     0.062     2.172     2.305
    45   1 H        0.926     0.052     2.295     2.369
    46   1 H        0.926     0.051     2.305     2.374
    47   1 H        0.926     0.062     2.175     2.306
    48   1 H        0.926     0.041     2.431     2.438
    49   1 H        0.926     0.040     2.452     2.449
    50   1 H        0.926     0.038     2.475     2.460
    51   1 H        0.926     0.030     2.583     2.513
    52   1 H        0.926     0.031     2.566     2.505
    53   1 H        0.926     0.031     2.571     2.507
    54   1 H        0.926     0.031     2.568     2.506
    55   1 H        0.926     0.032     2.564     2.504
    56   1 H        0.926     0.032     2.558     2.501
    57   1 H        0.926     0.032     2.564     2.504
    58   1 H        0.926     0.031     2.575     2.509
    59   1 H        0.926     0.031     2.576     2.510
    60   1 H        0.926     0.030     2.586     2.515
    61   1 H        0.926     0.032     2.561     2.503
    62   1 H        0.926     0.033     2.549     2.497
    63   1 H        0.926     0.033     2.546     2.495
    64   1 H        0.926     0.035     2.516     2.481
    65   1 H        0.926     0.060     2.196     2.317
    66   1 H        0.926     0.055     2.253     2.347

molecular dipole:
                 x           y           z       tot (Debye)
 q only:       -1.357      -2.953       0.627
   full:       -1.282      -2.758       0.591       7.874

 projected vibrational frequencies (cm⁻¹)
eigval :       -0.00    -0.00    -0.00     0.00     0.00     0.00
eigval :        5.97    12.97    18.99    26.59    32.02    33.76
eigval :       39.65    49.54    54.31    59.23    71.75    77.77
eigval :       84.09   120.89   127.76   135.99   143.48   154.34
eigval :      184.66   209.01   213.88   230.67   246.18   266.64
eigval :      274.21   283.35   288.63   305.40   315.19   339.13
eigval :      345.79   362.60   368.66   370.66   373.38   380.46
eigval :      393.25   417.76   441.46   446.51   460.71   472.98
eigval :      481.86   498.21   500.45   515.08   529.24   541.33
eigval :      573.19   583.89   587.56   588.41   595.67   610.63
eigval :      617.26   625.08   635.07   657.13   668.90   670.86
eigval :      680.25   690.01   694.65   701.34   725.66   728.92
eigval :      750.50   750.86   759.45   772.78   802.08   807.60
eigval :      837.63   871.75   872.57   873.75   878.20   880.44
eigval :      884.51   898.86   904.23   905.53   908.50   909.92
eigval :      913.72   916.44   919.26   926.02   927.70   927.82
eigval :      928.16   929.97   930.90   931.93   933.31   933.77
eigval :      965.39   986.62   995.63  1000.89  1009.51  1064.89
eigval :     1068.77  1073.72  1078.06  1084.64  1086.75  1101.57
eigval :     1109.52  1114.58  1118.93  1119.45  1123.64  1125.94
eigval :     1151.92  1168.62  1173.50  1174.76  1176.34  1178.27
eigval :     1179.72  1181.66  1184.84  1193.21  1200.48  1204.04
eigval :     1225.24  1226.97  1237.41  1250.37  1254.98  1257.95
eigval :     1275.66  1283.67  1286.51  1300.60  1314.74  1318.47
eigval :     1319.82  1321.88  1324.84  1360.57  1388.29  1419.02
eigval :     1426.99  1427.19  1432.28  1434.68  1441.63  1446.40
eigval :     1461.22  1471.83  1474.31  1481.23  1569.76  1572.20
eigval :     1573.39  1578.86  1584.79  1588.21  1590.59  1595.41
eigval :     1595.62  1597.59  1601.63  1602.98  3066.15  3067.04
eigval :     3068.83  3069.37  3070.08  3076.29  3077.10  3077.49
eigval :     3080.11  3081.72  3082.16  3084.85  3085.17  3087.68
eigval :     3088.97  3089.49  3090.22  3090.27  3091.50  3091.87
eigval :     3093.80  3096.09  3099.28  3101.29  3102.37  3104.56

   temp. (K)  partition function   enthalpy   heat capacity  entropy
                                   cal/mol     cal/K/mol   cal/K/mol   J/K/mol
 298.15  VIB  0.478E+16            19053.385    118.381    119.876
         ROT  0.567E+08              888.752      2.981     38.459
         INT  0.271E+24            19942.137    121.362    158.335
         TR   0.120E+29             1481.254      4.968     44.695
         TOT                       21423.3911   126.3304   203.0297   849.4763

       T/K    H(0)-H(T)+PV         H(T)/Eh          T*S/Eh         G(T)/Eh
   ------------------------------------------------------------------------
    298.15    0.341403E-01    0.537284E+00    0.964660E-01    0.440818E+00
   ------------------------------------------------------------------------

         :::::::::::::::::::::::::::::::::::::::::::::::::::::
         ::                  THERMODYNAMIC                  ::
         :::::::::::::::::::::::::::::::::::::::::::::::::::::
         :: total free energy        -103.436414445584 Eh   ::
         ::.................................................::
         :: total energy             -103.877232515614 Eh   ::
         :: zero point energy           0.503143687247 Eh   ::
         :: G(RRHO) w/o ZPVE           -0.062325617217 Eh   ::
         :: G(RRHO) contrib.            0.440818070030 Eh   ::
         :::::::::::::::::::::::::::::::::::::::::::::::::::::

           -------------------------------------------------
          | TOTAL ENERGY             -103.877232515614 Eh   |
          | TOTAL ENTHALPY           -103.339948481602 Eh   |
          | TOTAL FREE ENERGY        -103.436414445584 Eh   |
          | GRADIENT NORM               0.000063696661 Eh/α |
          | HOMO-LUMO GAP               2.889778891263 eV   |
           -------------------------------------------------

 * finished run on 2025/07/18 at 08:13:03.417
