   * xtb version 6.7.1 (edcfbbe) compiled by 'albert@albert-system' on 2024-07-22

   ID    Z sym.   atoms
    1    6 C      1-6, 8-13, 15-26, 28-33, 35-42
    2    7 N      7, 27
    3    8 O      14, 34
    4    1 H      43-66

          program call               : xtb data2507/toluene/DPE-DPXZ/DPE-DPXZ_toluene_S0_crest.xyz --gfn 2 --gbsa toluene --ohess vtight --parallel 40 --molden --ceasefiles --namespace data2507/toluene/DPE-DPXZ/DPE-DPXZ_toluene_S0_finalOpt
      * Solvation model:               GBSA
        Solvent                        toluene
        Solvent mass                       9.2140E+01 g/mol
          :  Hamiltonian                  GFN2-xTB          :
 * total energy  :  -107.6207489 Eh     change       -0.1057727E-07 Eh
 * total energy  :  -107.6207993 Eh     change       -0.5046722E-04 Eh
 * total energy  :  -107.6208213 Eh     change       -0.2194597E-04 Eh
 * total energy  :  -107.6208273 Eh     change       -0.5995347E-05 Eh
 * total energy  :  -107.6208351 Eh     change       -0.7845538E-05 Eh
 * total energy  :  -107.6208423 Eh     change       -0.7161970E-05 Eh
 * total energy  :  -107.6208486 Eh     change       -0.6275736E-05 Eh
 * total energy  :  -107.6208547 Eh     change       -0.6160766E-05 Eh
 * total energy  :  -107.6208614 Eh     change       -0.6662940E-05 Eh
 * total energy  :  -107.6208655 Eh     change       -0.4078312E-05 Eh
 * total energy  :  -107.6208679 Eh     change       -0.2456120E-06 Eh
 * total energy  :  -107.6208682 Eh     change       -0.2178441E-06 Eh
 * total energy  :  -107.6208683 Eh     change       -0.1850915E-06 Eh
 * total energy  :  -107.6208686 Eh     change       -0.2214445E-06 Eh
 * total energy  :  -107.6208689 Eh     change       -0.3431106E-06 Eh
 * total energy  :  -107.6208694 Eh     change       -0.4581424E-06 Eh
 * total energy  :  -107.6208697 Eh     change       -0.3196030E-06 Eh
 * total energy  :  -107.6208698 Eh     change       -0.1556173E-06 Eh
 * total energy  :  -107.6208698 Eh     change       -0.4615018E-08 Eh
   *** GEOMETRY OPTIMIZATION CONVERGED AFTER 22 ITERATIONS ***

 final structure:
================
66
 xtb: 6.7.1 (edcfbbe)
C            0.60472086808206        0.00194309154386        0.03031136913585
C           -0.60379659930228       -0.00009174194232        0.03034123252650
C           -2.01399851404272       -0.00388182189093        0.02666217871795
C           -2.72496195893775        0.53537701840926        1.10238069162379
C           -4.10439556810817        0.52832450859553        1.09682381318981
C           -4.79736515575047       -0.01015375831567        0.01554685661739
N           -6.21251589545476       -0.01250504735434        0.00900639978286
C           -6.92311336389457        1.18689808078006       -0.05383301989278
C           -6.29039414516569        2.42065184556541       -0.14785972192583
C           -7.02628293124103        3.59479192237049       -0.20772530252899
C           -8.40559966624461        3.55630876543141       -0.18364326434122
C           -9.05375368135289        2.33058366536204       -0.11742568734815
C           -8.32450939973280        1.15796540729235       -0.05985552129308
O           -9.03870580448426       -0.01877464353029       -0.02378360973669
C           -8.32038503129429       -1.19242786544543        0.02716068751334
C           -9.04537379829473       -2.36841477077184        0.06641632990542
C           -8.39324854591557       -3.59123367853789        0.14630854222319
C           -7.01471598621073       -3.62343497882947        0.20313761659931
C           -6.28302862620220       -2.44592339814590        0.16138660494217
C           -6.91914411187194       -1.21499329905736        0.05378632292822
C           -4.09333725276851       -0.54611679909691       -1.05990576292888
C           -2.71401300972565       -0.54689114488873       -1.05448716987361
C            2.01491057817529        0.00481150210586        0.02687150182932
C            2.71731627801304       -0.49735255023969       -1.07238498569105
C            4.09663074560303       -0.49112494153280       -1.07687434437315
C            4.79784953036990        0.01083275750003        0.01661478123525
N            6.21322311228408        0.01376085075839        0.01048260756155
C            6.91957943034095        1.21649389967867       -0.02603018211515
C            6.28221686587602        2.44985640986883       -0.08677822728787
C            7.01404385935458        3.62756999298852       -0.12133010094537
C            8.39357919705657        3.59304554913308       -0.10464702900720
C            9.04611962995397        2.36826972383756       -0.07088664307077
C            8.32104290332711        1.19217646275626       -0.03848131771369
O            9.03899582461749        0.01704287625864       -0.03378493896758
C            8.32440993479354       -1.15983054206780       -0.00917758553811
C            9.05254799478906       -2.33445883871153       -0.00222485374586
C            8.40383526999633       -3.56064768205586        0.04984421075268
C            7.02561201579516       -3.59814377196609        0.11106056394590
C            6.29069098806231       -2.42192160662110        0.10176111573429
C            6.92336444191928       -1.18717029168819        0.02235396025211
C            4.10269524220903        0.50942324886615        1.11536626456859
C            2.72317326884967        0.50961396639992        1.12098632756352
H           -2.18596596682174        0.95175770790690        1.94049468149220
H           -4.65686991585688        0.93872049784176        1.92949523739342
H           -5.21312494376597        2.46369041315937       -0.18029966074072
H           -6.50736349060300        4.53879224388649       -0.27599209251900
H           -8.98389224874261        4.46596514396712       -0.22543531837600
H          -10.13055948113944        2.26332480484020       -0.11385453710055
H          -10.12210125605560       -2.30612839464196        0.03759334444383
H           -8.96815402272525       -4.50358508221477        0.17350696459210
H           -6.49326391261255       -4.56516098729115        0.28256891936908
H           -5.20659655882766       -2.48394063058849        0.21891180187199
H           -4.63733105176321       -0.95927146337731       -1.89681678046656
H           -2.16638175266762       -0.96083460728313       -1.88818491226835
H            2.17160286672375       -0.88419754266741       -1.92022436681600
H            4.64288883330438       -0.87401428360423       -1.92668222043532
H            5.20463759815442        2.48972377748035       -0.11304180301167
H            6.49180029553257        4.57125216595863       -0.16391282312455
H            8.96872708188547        4.50538055301686       -0.12709307193771
H           10.12316064516011        2.30470255197652       -0.07374866006372
H           10.12900031216292       -2.26873718184003       -0.03371485800851
H            8.98121604178232       -4.47184111292862        0.05199370341878
H            6.50700152234993       -4.54301704504103        0.16880356007312
H            5.21453656963835       -2.46384093353761        0.16205554152595
H            4.65338551033893        0.89424087233868        1.96141382719797
H            2.18211612477450        0.89408506783013        1.97289334436435

          :  Hamiltonian                  GFN2-xTB          :
         :: gradient norm              0.000056811253 Eh/a0 ::
         :: HOMO-LUMO gap              1.920031305012 eV    ::
         :: SCC energy              -109.579073239404 Eh    ::
         :: -> dispersion             -0.086693292745 Eh    ::
         :: -> Gsolv                  -0.045533530360 Eh    ::
         :: repulsion energy           1.958203396111 Eh    ::

    * Orbital Energies and Occupations

         #    Occupation            Energy/Eh            Energy/eV
      -------------------------------------------------------------
         1        2.0000           -0.7289901             -19.8368
       ...           ...                  ...                  ...
        87        2.0000           -0.4211063             -11.4589
        88        2.0000           -0.4176191             -11.3640
        89        2.0000           -0.4175138             -11.3611
        90        2.0000           -0.4154610             -11.3053
        91        2.0000           -0.4154109             -11.3039
        92        2.0000           -0.4122237             -11.2172
        93        2.0000           -0.4121737             -11.2158
        94        2.0000           -0.4084508             -11.1145
        95        2.0000           -0.3918474             -10.6627
        96        2.0000           -0.3904546             -10.6248
        97        2.0000           -0.3837243             -10.4417
        98        2.0000           -0.3431436              -9.3374
        99        2.0000           -0.3418525              -9.3023 (HOMO)
       100                         -0.2712926              -7.3822 (LUMO)
       101                         -0.2382996              -6.4845
       102                         -0.2382628              -6.4835
       103                         -0.2354937              -6.4081
       104                         -0.2354477              -6.4069
       105                         -0.2294080              -6.2425
       106                         -0.2293694              -6.2415
       107                         -0.2280790              -6.2063
       108                         -0.2152054              -5.8560
       109                         -0.2131122              -5.7991
       110                         -0.1961489              -5.3375
       ...                                ...                  ...
       192                          1.4244096              38.7602
      -------------------------------------------------------------
                  HL-Gap            0.0705599 Eh            1.9200 eV

     #   Z          covCN         q      C6AA      α(0)
     1   6 C        1.982    -0.040    32.121     9.153
     2   6 C        1.982    -0.040    32.119     9.152
     3   6 C        2.971     0.038    27.153     8.547
     4   6 C        2.926    -0.028    28.705     8.786
     5   6 C        2.919    -0.039    28.968     8.826
     6   6 C        2.920     0.064    26.559     8.451
     7   7 N        2.751    -0.077    22.728     7.081
     8   6 C        2.922     0.044    27.024     8.525
     9   6 C        2.924    -0.061    29.527     8.911
    10   6 C        2.919    -0.040    28.986     8.829
    11   6 C        2.919    -0.042    29.049     8.838
    12   6 C        2.919    -0.059    29.460     8.901
    13   6 C        2.882     0.121    25.334     8.252
    14   8 O        1.708    -0.276    18.581     5.820
    15   6 C        2.882     0.121    25.334     8.252
    16   6 C        2.919    -0.059    29.460     8.901
    17   6 C        2.919    -0.042    29.049     8.838
    18   6 C        2.919    -0.040    28.986     8.829
    19   6 C        2.924    -0.061    29.526     8.911
    20   6 C        2.922     0.044    27.024     8.525
    21   6 C        2.919    -0.039    28.967     8.826
    22   6 C        2.926    -0.028    28.705     8.786
    23   6 C        2.971     0.038    27.150     8.547
    24   6 C        2.926    -0.028    28.704     8.786
    25   6 C        2.919    -0.039    28.964     8.825
    26   6 C        2.921     0.064    26.559     8.451
    27   7 N        2.751    -0.077    22.732     7.081
    28   6 C        2.922     0.044    27.022     8.525
    29   6 C        2.924    -0.061    29.528     8.911
    30   6 C        2.919    -0.040    28.986     8.829
    31   6 C        2.919    -0.042    29.051     8.839
    32   6 C        2.919    -0.059    29.460     8.901
    33   6 C        2.882     0.121    25.335     8.252
    34   8 O        1.708    -0.276    18.583     5.820
    35   6 C        2.882     0.121    25.334     8.252
    36   6 C        2.919    -0.059    29.460     8.901
    37   6 C        2.919    -0.042    29.050     8.839
    38   6 C        2.919    -0.040    28.986     8.829
    39   6 C        2.924    -0.061    29.526     8.911
    40   6 C        2.922     0.044    27.023     8.525
    41   6 C        2.919    -0.039    28.965     8.826
    42   6 C        2.926    -0.028    28.704     8.786
    43   1 H        0.926     0.044     2.392     2.419
    44   1 H        0.926     0.042     2.428     2.437
    45   1 H        0.926     0.039     2.462     2.454
    46   1 H        0.926     0.040     2.451     2.448
    47   1 H        0.926     0.040     2.450     2.448
    48   1 H        0.926     0.045     2.380     2.412
    49   1 H        0.926     0.045     2.380     2.412
    50   1 H        0.926     0.040     2.450     2.448
    51   1 H        0.926     0.040     2.451     2.448
    52   1 H        0.926     0.039     2.463     2.454
    53   1 H        0.926     0.041     2.431     2.438
    54   1 H        0.926     0.044     2.393     2.419
    55   1 H        0.926     0.044     2.392     2.419
    56   1 H        0.926     0.041     2.432     2.439
    57   1 H        0.926     0.039     2.464     2.455
    58   1 H        0.926     0.040     2.451     2.448
    59   1 H        0.926     0.040     2.450     2.448
    60   1 H        0.926     0.045     2.380     2.413
    61   1 H        0.926     0.045     2.380     2.413
    62   1 H        0.926     0.040     2.450     2.448
    63   1 H        0.926     0.040     2.451     2.448
    64   1 H        0.926     0.039     2.465     2.455
    65   1 H        0.926     0.042     2.427     2.436
    66   1 H        0.926     0.044     2.391     2.418

molecular dipole:
                 x           y           z       tot (Debye)
 q only:       -0.012       0.002       0.019
   full:       -0.012       0.001       0.014       0.046

 projected vibrational frequencies (cm⁻¹)
eigval :       -0.00    -0.00    -0.00     0.00     0.00     0.00
eigval :       -2.99     5.58     9.21    21.04    26.72    31.21
eigval :       35.36    45.29    48.58    53.44    68.58    92.63
eigval :      106.94   113.87   114.95   121.93   188.31   192.85
eigval :      194.54   205.84   244.80   249.97   254.27   269.57
eigval :      270.40   272.20   299.73   360.38   366.33   369.64
eigval :      371.18   375.24   389.71   394.78   403.26   419.46
eigval :      428.27   429.70   431.03   432.08   441.04   443.24
eigval :      459.93   467.66   495.36   503.56   508.49   509.60
eigval :      520.81   521.39   537.49   548.22   552.27   586.61
eigval :      587.38   595.70   612.72   615.03   622.34   656.77
eigval :      658.67   659.15   660.61   662.09   681.45   681.97
eigval :      687.61   724.81   776.09   777.51   777.69   777.91
eigval :      790.02   800.16   808.66   814.24   851.78   851.92
eigval :      852.51   860.14   860.72   862.49   862.74   866.53
eigval :      868.39   894.35   895.34   895.76   896.54   910.49
eigval :      911.14   913.00   913.83   914.17   914.33   916.67
eigval :      919.11   920.81   924.81   927.38   933.36  1011.21
eigval :     1020.70  1088.90  1089.28  1090.11  1090.47  1105.07
eigval :     1105.36  1116.65  1116.83  1124.40  1127.00  1156.71
eigval :     1169.58  1169.61  1173.61  1173.91  1178.21  1180.05
eigval :     1184.60  1189.42  1195.67  1196.08  1215.24  1222.14
eigval :     1240.99  1241.32  1256.45  1258.63  1259.07  1259.48
eigval :     1292.95  1303.20  1304.59  1304.77  1306.44  1308.72
eigval :     1334.97  1335.04  1345.23  1354.14  1362.89  1397.46
eigval :     1401.10  1422.32  1422.49  1441.07  1441.55  1466.25
eigval :     1481.31  1481.43  1494.27  1503.92  1505.21  1544.80
eigval :     1548.12  1565.27  1565.45  1577.84  1579.38  1579.51
eigval :     1586.29  1587.76  1590.46  1602.83  1602.97  2315.34
eigval :     3080.08  3080.12  3081.60  3081.80  3085.63  3085.82
eigval :     3085.93  3086.16  3091.03  3091.33  3093.20  3093.81
eigval :     3093.92  3094.08  3094.16  3094.23  3102.33  3102.60
eigval :     3102.66  3103.01  3106.94  3107.27  3107.77  3108.12

   temp. (K)  partition function   enthalpy   heat capacity  entropy
                                   cal/mol     cal/K/mol   cal/K/mol   J/K/mol
 298.15  VIB  0.594E+17            19246.958    120.664    121.869
         ROT  0.919E+08              888.752      2.981     39.420
         INT  0.546E+25            20135.710    123.645    161.290
         TR   0.122E+29             1481.254      4.968     44.728
         TOT                       21616.9641   128.6130   206.0177   861.9780

       T/K    H(0)-H(T)+PV         H(T)/Eh          T*S/Eh         G(T)/Eh
   ------------------------------------------------------------------------
    298.15    0.344488E-01    0.529021E+00    0.978857E-01    0.431135E+00
   ------------------------------------------------------------------------

         :::::::::::::::::::::::::::::::::::::::::::::::::::::
         ::                  THERMODYNAMIC                  ::
         :::::::::::::::::::::::::::::::::::::::::::::::::::::
         :: total free energy        -107.189734485965 Eh   ::
         ::.................................................::
         :: total energy             -107.620869844177 Eh   ::
         :: zero point energy           0.494572183307 Eh   ::
         :: G(RRHO) w/o ZPVE           -0.063436825096 Eh   ::
         :: G(RRHO) contrib.            0.431135358211 Eh   ::
         :::::::::::::::::::::::::::::::::::::::::::::::::::::

           -------------------------------------------------
          | TOTAL ENERGY             -107.620869844177 Eh   |
          | TOTAL ENTHALPY           -107.091848835846 Eh   |
          | TOTAL FREE ENERGY        -107.189734485965 Eh   |
          | GRADIENT NORM               0.000056826201 Eh/α |
          | HOMO-LUMO GAP               1.920031868871 eV   |
           -------------------------------------------------

 * finished run on 2025/09/09 at 21:45:18.630
