   * xtb version 6.7.1 (edcfbbe) compiled by 'albert@albert-system' on 2024-07-22

   ID    Z sym.   atoms
    1    6 C      1-6, 8-13, 15-26, 28-33, 35-42
    2    7 N      7, 27
    3    8 O      14, 34
    4    1 H      43-66

          program call               : xtb data2507/toluene/DPE-DPXZ/DPE-DPXZ_toluene_T1_crest.xyz --gfn 2 --uhf 2 --gbsa toluene --ohess vtight --parallel 40 --molden --ceasefiles --namespace data2507/toluene/DPE-DPXZ/DPE-DPXZ_toluene_T1_finalOpt
      * Solvation model:               GBSA
        Solvent                        toluene
        Solvent mass                       9.2140E+01 g/mol
          :  Hamiltonian                  GFN2-xTB          :
 * total energy  :  -107.5399532 Eh     change       -0.1348232E-07 Eh
 * total energy  :  -107.5399830 Eh     change       -0.2978273E-04 Eh
 * total energy  :  -107.5399950 Eh     change       -0.1202986E-04 Eh
 * total energy  :  -107.5399996 Eh     change       -0.4580327E-05 Eh
 * total energy  :  -107.5400015 Eh     change       -0.1870712E-05 Eh
 * total energy  :  -107.5400027 Eh     change       -0.1192303E-05 Eh
 * total energy  :  -107.5400033 Eh     change       -0.6789462E-06 Eh
 * total energy  :  -107.5400039 Eh     change       -0.5761462E-06 Eh
 * total energy  :  -107.5400045 Eh     change       -0.5838624E-06 Eh
 * total energy  :  -107.5400049 Eh     change       -0.3656475E-06 Eh
 * total energy  :  -107.5400049 Eh     change       -0.5253236E-07 Eh
   *** GEOMETRY OPTIMIZATION CONVERGED AFTER 11 ITERATIONS ***

 final structure:
================
66
 xtb: 6.7.1 (edcfbbe)
C            0.61712625536531        0.00809135572507       -0.00272342398251
C           -0.61711397804194        0.00885755955884       -0.00241342470925
C           -1.98580041321327        0.00846390413332       -0.00139525196852
C           -2.72496938514659        0.02757201737990        1.22036454062252
C           -4.08885821150993        0.01653459867812        1.21549599419789
C           -4.80247194450019        0.00470830156263        0.00143543485234
N           -6.21121248706936        0.00172770213456        0.00257834211201
C           -6.92340864603139        1.03444781105052       -0.59881502719884
C           -6.29209898989790        2.14118109216297       -1.16571435033810
C           -7.02921545338507        3.14786526656953       -1.76323094187173
C           -8.41133418066046        3.08131189833614       -1.79749795866093
C           -9.05960895631668        2.01001838726653       -1.20373508542282
C           -8.32795548049452        0.99970980699389       -0.60281681922309
O           -9.03572433253313       -0.00697651447942       -0.00095095674422
C           -8.32322937335640       -1.00833946421778        0.60422424989857
C           -9.05027134828741       -2.02229009872564        1.20464002824324
C           -8.39705601613776       -3.08875389105185        1.80165356892986
C           -7.01448124256053       -3.14676705065954        1.77127205596848
C           -6.28196603119008       -2.13650962658785        1.17409798428054
C           -6.91847618268841       -1.03450137503342        0.60385643498700
C           -4.09121682990802       -0.00428206625250       -1.21406443038346
C           -2.72731490075633       -0.01161308770279       -1.22169424268138
C            1.98581306589397        0.00647632106405       -0.00220329326984
C            2.72691965862704        0.02484365807344       -1.22277424738506
C            4.09079717063989        0.01327725826419       -1.21565567828316
C            4.80248068938428        0.00171756390854       -0.00043715575307
N            6.21122481916982       -0.00091914740479        0.00026000564794
C            6.92278115053342        1.03221371034948        0.60175423879034
C            6.29085138591637        2.13736536145140        1.17101586992757
C            7.02750428983381        3.14442523319525        1.76849903557316
C            8.40976915704647        3.07995046285198        1.80023004489238
C            9.05858254701834        2.01027763824288        1.20414941525527
C            8.32739487081405        0.99952228306103        0.60339822268944
O            9.03574681670159       -0.00537018716785       -0.00078834314896
C            8.32382258527517       -1.00868886058348       -0.60338174071691
C            9.05132651556864       -2.02236677260430       -1.20367925695946
C            8.39863165311421       -3.09058516685109       -1.79813306201369
C            7.01618883875453       -3.15063210126663       -1.76525479972901
C            6.28321402256276       -2.14058486243731       -1.16831773783246
C            6.91912435643902       -1.03687809944414       -0.60067579462441
C            4.08930056856514       -0.00739805244733        1.21390681650361
C            2.72538644062553       -0.01420403958431        1.21928813218453
H           -2.17911603413268        0.06128566137096        2.15223790639540
H           -4.63955808227975        0.04690644233034        2.14566454779362
H           -5.21712109634778        2.21214212269164       -1.12639138777693
H           -6.51455613727698        3.99032456388264       -2.19890558842843
H           -8.98735166005505        3.86292001473596       -2.26688395878893
H          -10.13572371305048        1.93983206657052       -1.18829380740076
H          -10.12675227062810       -1.95877905951110        1.18610328523275
H           -8.96950404648147       -3.87322695990572        2.27062969512308
H           -6.49574973450232       -3.98527482367224        2.20971383871047
H           -5.20650184711660       -2.20113648990538        1.13773848073966
H           -4.64372928983115       -0.03548079624682       -2.14313625907948
H           -2.18324526763221       -0.04343637055976       -2.15468285383701
H            2.18260431067502        0.05844475208224       -2.15555616013875
H            4.64305657194176        0.04295596225959       -2.14492821926683
H            5.21572404177348        2.20691864343774        1.13358974290318
H            6.51231137994049        3.98553373988282        2.20614872568943
H            8.98543675685585        3.86188479575066        2.26950326935876
H           10.13477340683803        1.94174398020474        1.18666968902452
H           10.12774200802383       -1.95722608820432       -1.18716641967733
H            8.97142594170869       -3.87486713681828       -2.26700657988232
H            6.49797453189149       -3.99057268797268       -2.20155863781100
H            5.20788695386246       -2.20657568573863       -1.13009075037069
H            4.64025625889884       -0.03916514364553        2.14387624100227
H            2.17977785746069       -0.04602922953169        2.15137214832908

          :  Hamiltonian                  GFN2-xTB          :
         :: gradient norm              0.000056498091 Eh/a0 ::
         :: HOMO-LUMO gap              0.377495297304 eV    ::
         :: SCC energy              -109.478488225427 Eh    ::
         :: -> dispersion             -0.086888901378 Eh    ::
         :: -> Gsolv                  -0.045316364265 Eh    ::
         :: repulsion energy           1.938483252275 Eh    ::

    * Orbital Energies and Occupations

         #    Occupation            Energy/Eh            Energy/eV
      -------------------------------------------------------------
         1        2.0000           -0.7425718             -20.2064
       ...           ...                  ...                  ...
        88        2.0000           -0.4206213             -11.4457
        89        2.0000           -0.4201908             -11.4340
        90        2.0000           -0.4201846             -11.4338
        91        2.0000           -0.4047426             -11.0136
        92        2.0000           -0.4017489             -10.9321
        93        2.0000           -0.4017036             -10.9309
        94        2.0000           -0.3986423             -10.8476
        95        2.0000           -0.3960508             -10.7771
        96        2.0000           -0.3784495             -10.2981
        97        2.0000           -0.3631772              -9.8826
        98        1.9805           -0.3503056              -9.5323
        99        1.0195           -0.3428618              -9.3297
       100        0.9990           -0.2618306              -7.1248 (HOMO)
       101        0.0005           -0.2479586              -6.7473 (LUMO)
       102        0.0005           -0.2479570              -6.7473
       103                         -0.2373736              -6.4593
       104                         -0.2373722              -6.4592
       105                         -0.2258436              -6.1455
       106                         -0.2226158              -6.0577
       107                         -0.2136819              -5.8146
       108                         -0.2136812              -5.8146
       109                         -0.2116668              -5.7597
       110                         -0.2040912              -5.5536
       111                         -0.1981607              -5.3922
       ...                                ...                  ...
       192                          1.3964979              38.0006
      -------------------------------------------------------------
                  HL-Gap            0.0138720 Eh            0.3775 eV

     #   Z          covCN         q      C6AA      α(0)
     1   6 C        1.982    -0.063    32.758     9.243
     2   6 C        1.982    -0.063    32.758     9.243
     3   6 C        2.963     0.014    27.699     8.633
     4   6 C        2.920    -0.042    29.056     8.839
     5   6 C        2.911    -0.044    29.086     8.843
     6   6 C        2.920     0.028    27.380     8.581
     7   7 N        2.750    -0.038    21.967     6.961
     8   6 C        2.924     0.044    27.004     8.522
     9   6 C        2.922    -0.054    29.333     8.882
    10   6 C        2.918    -0.035    28.864     8.810
    11   6 C        2.919    -0.035    28.879     8.812
    12   6 C        2.918    -0.056    29.386     8.889
    13   6 C        2.884     0.126    25.231     8.235
    14   8 O        1.709    -0.249    18.132     5.749
    15   6 C        2.884     0.126    25.231     8.235
    16   6 C        2.918    -0.056    29.386     8.889
    17   6 C        2.919    -0.035    28.879     8.812
    18   6 C        2.918    -0.035    28.864     8.810
    19   6 C        2.922    -0.054    29.334     8.882
    20   6 C        2.924     0.044    27.004     8.522
    21   6 C        2.911    -0.044    29.085     8.843
    22   6 C        2.920    -0.042    29.055     8.839
    23   6 C        2.963     0.014    27.699     8.633
    24   6 C        2.920    -0.042    29.055     8.839
    25   6 C        2.911    -0.044    29.085     8.843
    26   6 C        2.920     0.028    27.380     8.581
    27   7 N        2.750    -0.038    21.967     6.961
    28   6 C        2.924     0.044    27.004     8.522
    29   6 C        2.922    -0.054    29.334     8.882
    30   6 C        2.918    -0.035    28.864     8.810
    31   6 C        2.919    -0.035    28.879     8.812
    32   6 C        2.918    -0.056    29.386     8.889
    33   6 C        2.884     0.126    25.231     8.235
    34   8 O        1.709    -0.249    18.132     5.749
    35   6 C        2.884     0.126    25.231     8.235
    36   6 C        2.918    -0.056    29.386     8.889
    37   6 C        2.919    -0.035    28.879     8.812
    38   6 C        2.918    -0.035    28.864     8.810
    39   6 C        2.922    -0.054    29.334     8.882
    40   6 C        2.924     0.044    27.004     8.522
    41   6 C        2.911    -0.044    29.085     8.843
    42   6 C        2.920    -0.042    29.056     8.839
    43   1 H        0.926     0.021     2.717     2.577
    44   1 H        0.925     0.024     2.673     2.557
    45   1 H        0.926     0.051     2.311     2.377
    46   1 H        0.926     0.048     2.342     2.393
    47   1 H        0.926     0.050     2.321     2.383
    48   1 H        0.926     0.055     2.256     2.349
    49   1 H        0.926     0.055     2.256     2.349
    50   1 H        0.926     0.050     2.321     2.383
    51   1 H        0.926     0.048     2.342     2.393
    52   1 H        0.926     0.051     2.310     2.377
    53   1 H        0.925     0.024     2.674     2.557
    54   1 H        0.926     0.021     2.717     2.577
    55   1 H        0.926     0.021     2.716     2.577
    56   1 H        0.925     0.024     2.674     2.557
    57   1 H        0.926     0.051     2.310     2.377
    58   1 H        0.926     0.048     2.342     2.393
    59   1 H        0.926     0.050     2.321     2.383
    60   1 H        0.926     0.055     2.256     2.349
    61   1 H        0.926     0.055     2.256     2.349
    62   1 H        0.926     0.050     2.321     2.383
    63   1 H        0.926     0.048     2.342     2.393
    64   1 H        0.926     0.051     2.311     2.377
    65   1 H        0.925     0.024     2.673     2.557
    66   1 H        0.926     0.021     2.717     2.577

molecular dipole:
                 x           y           z       tot (Debye)
 q only:       -0.000      -0.003       0.003
   full:       -0.000      -0.003       0.003       0.011

 projected vibrational frequencies (cm⁻¹)
eigval :       -0.00    -0.00    -0.00    -0.00     0.00     0.00
eigval :       11.01    11.92    19.42    26.00    26.09    39.98
eigval :       62.15    65.45    68.14    73.66    85.84    92.62
eigval :      106.78   119.06   119.29   126.89   187.65   193.72
eigval :      197.46   202.51   242.80   250.38   257.80   273.77
eigval :      275.08   279.05   297.64   334.02   360.74   373.41
eigval :      373.74   374.08   375.71   384.39   393.27   419.17
eigval :      420.62   420.76   435.82   436.58   442.04   449.02
eigval :      456.70   459.11   467.37   477.14   502.66   502.77
eigval :      527.19   527.50   530.30   537.60   538.52   581.70
eigval :      581.89   594.89   605.93   608.95   618.81   635.64
eigval :      638.48   656.96   664.13   665.60   666.91   666.94
eigval :      679.73   714.09   775.36   775.48   777.86   778.18
eigval :      786.70   787.69   790.94   799.00   820.95   829.08
eigval :      838.35   853.94   853.95   865.17   865.26   865.67
eigval :      865.98   897.82   897.90   898.22   898.31   900.92
eigval :      901.36   905.71   905.95   912.51   912.63   912.88
eigval :      913.00   917.53   917.68   919.58   919.88   981.49
eigval :      985.39  1086.03  1086.05  1086.48  1087.29  1109.70
eigval :     1109.80  1116.21  1117.21  1126.40  1129.91  1154.19
eigval :     1158.25  1167.79  1170.66  1170.68  1174.95  1181.73
eigval :     1186.30  1199.26  1205.58  1205.65  1212.85  1229.08
eigval :     1235.66  1236.19  1245.51  1250.79  1254.38  1255.03
eigval :     1296.12  1298.35  1300.36  1307.82  1310.94  1312.33
eigval :     1321.67  1323.57  1339.26  1344.18  1384.48  1385.03
eigval :     1387.13  1413.37  1413.41  1424.28  1438.28  1438.95
eigval :     1447.69  1447.75  1468.70  1469.11  1474.91  1476.76
eigval :     1513.81  1534.11  1549.87  1549.89  1556.17  1556.19
eigval :     1566.55  1571.23  1579.79  1583.79  1599.34  2144.54
eigval :     3060.67  3060.70  3062.79  3062.95  3077.16  3077.41
eigval :     3080.11  3081.33  3092.00  3092.01  3092.10  3092.14
eigval :     3100.30  3100.31  3100.42  3100.46  3109.83  3109.84
eigval :     3110.12  3110.19  3113.68  3113.71  3113.85  3113.99

   temp. (K)  partition function   enthalpy   heat capacity  entropy
                                   cal/mol     cal/K/mol   cal/K/mol   J/K/mol
 298.15  VIB  0.544E+15            19194.904    123.426    118.435
         ROT  0.230E+08              888.752      2.981     36.666
         INT  0.125E+23            20083.657    126.407    155.101
         TR   0.122E+29             1481.254      4.968     44.728
         TOT                       21564.9105   131.3748   199.8292   836.0855

       T/K    H(0)-H(T)+PV         H(T)/Eh          T*S/Eh         G(T)/Eh
   ------------------------------------------------------------------------
    298.15    0.343659E-01    0.526333E+00    0.949453E-01    0.431388E+00
   ------------------------------------------------------------------------

         :::::::::::::::::::::::::::::::::::::::::::::::::::::
         ::                  THERMODYNAMIC                  ::
         :::::::::::::::::::::::::::::::::::::::::::::::::::::
         :: total free energy        -107.108617031769 Eh   ::
         ::.................................................::
         :: total energy             -107.540004972931 Eh   ::
         :: zero point energy           0.491967386943 Eh   ::
         :: G(RRHO) w/o ZPVE           -0.060579445780 Eh   ::
         :: G(RRHO) contrib.            0.431387941162 Eh   ::
         :::::::::::::::::::::::::::::::::::::::::::::::::::::

           -------------------------------------------------
          | TOTAL ENERGY             -107.540004972931 Eh   |
          | TOTAL ENTHALPY           -107.013671713677 Eh   |
          | TOTAL FREE ENERGY        -107.108617031769 Eh   |
          | GRADIENT NORM               0.000056408279 Eh/α |
          | HOMO-LUMO GAP               0.377476145154 eV   |
           -------------------------------------------------

 * finished run on 2025/09/09 at 21:49:20.346
