   * xtb version 6.7.1 (edcfbbe) compiled by 'albert@albert-system' on 2024-07-22

   ID    Z sym.   atoms
    1    6 C      1-6, 8-13, 15-26, 28-33, 35-42
    2    7 N      7, 27
    3    8 O      14, 34
    4    1 H      43-66

          program call               : xtb data2507/toluene/DPE-DPXZ/DPE-DPXZ_toluene_S0_finalOpt.xtbopt.xyz --gfn 2 --uhf 2 --gbsa toluene --ohess vtight --parallel 40 --molden --ceasefiles --namespace data2507/toluene/DPE-DPXZ/DPE-DPXZ_toluene_T1_preOpt
      * Solvation model:               GBSA
        Solvent                        toluene
        Solvent mass                       9.2140E+01 g/mol
          :  Hamiltonian                  GFN2-xTB          :
 * total energy  :  -107.5329460 Eh     change       -0.2625944E-07 Eh
 * total energy  :  -107.5378819 Eh     change       -0.4935920E-02 Eh
 * total energy  :  -107.5394801 Eh     change       -0.1598111E-02 Eh
 * total energy  :  -107.5395857 Eh     change       -0.1056655E-03 Eh
 * total energy  :  -107.5396700 Eh     change       -0.8429742E-04 Eh
 * total energy  :  -107.5397113 Eh     change       -0.4128661E-04 Eh
 * total energy  :  -107.5397638 Eh     change       -0.5248867E-04 Eh
 * total energy  :  -107.5398227 Eh     change       -0.5893565E-04 Eh
 * total energy  :  -107.5398657 Eh     change       -0.4296724E-04 Eh
 * total energy  :  -107.5398970 Eh     change       -0.3126739E-04 Eh
 * total energy  :  -107.5399204 Eh     change       -0.1257161E-05 Eh
 * total energy  :  -107.5399212 Eh     change       -0.7254982E-06 Eh
 * total energy  :  -107.5399215 Eh     change       -0.3351166E-06 Eh
 * total energy  :  -107.5399218 Eh     change       -0.3416082E-06 Eh
 * total energy  :  -107.5399218 Eh     change        0.2551418E-07 Eh
 * total energy  :  -107.5399223 Eh     change       -0.4831922E-06 Eh
 * total energy  :  -107.5399225 Eh     change       -0.1576503E-06 Eh
 * total energy  :  -107.5399226 Eh     change       -0.1871963E-06 Eh
 * total energy  :  -107.5399226 Eh     change       -0.4037588E-08 Eh
   *** GEOMETRY OPTIMIZATION CONVERGED AFTER 22 ITERATIONS ***

 final structure:
================
66
 xtb: 6.7.1 (edcfbbe)
C            0.61702449540086        0.00204444670513        0.03413462591479
C           -0.61722421398784       -0.00058354552646        0.03361919272036
C           -1.98581043105477       -0.00403806504352        0.02862716763139
C           -2.73268875554484        0.60634487074937        1.08154026099875
C           -4.09661158148006        0.60869995793857        1.06344176636689
C           -4.80116175272957       -0.01012611721168        0.01309371953580
N           -6.21022341335679       -0.01245675828488        0.00418549465599
C           -6.92156950178639        1.18217101087450       -0.03491759350237
C           -6.28855080135801        2.42133943536740       -0.12607504074465
C           -7.02511604873366        3.59189206062295       -0.15771277356388
C           -8.40797089717468        3.55343307472469       -0.11145870389572
C           -9.05734590169767        2.33020774554875       -0.06031747140918
C           -8.32626639490623        1.15473022317951       -0.03068744369390
O           -9.03421315375527       -0.01815306304731       -0.02182495717531
C           -8.32189709693655       -1.18820196187625        0.00020776359413
C           -9.04853619299069       -2.36668237224934        0.01585318605498
C           -8.39514200056108       -3.58723165307380        0.07882947694668
C           -7.01321406794247       -3.62000139480280        0.15100763598744
C           -6.28104857411227       -2.44642156812830        0.13357621676709
C           -6.91743633253670       -1.20985277634014        0.03077519923927
C           -4.08240661343032       -0.62654292533156       -1.02911465276425
C           -2.71851141498593       -0.61829195158692       -1.03210619624547
C            1.98552943377046        0.00444087696020        0.02862902079958
C            2.72040090699584       -0.59967453830686       -1.03652058245557
C            4.08421266209191       -0.60158570585962       -1.03459304549576
C            4.80119074627251        0.00976476851918        0.01207556613714
N            6.20994992913005        0.01305518874551        0.00215956551953
C            6.91716688405305        1.21070909160230       -0.02013204355302
C            6.28004818406490        2.44913567888104       -0.09113142628955
C            7.01263183579615        3.62254328905709       -0.10320089123726
C            8.39563764954387        3.58806982380602       -0.05798288172110
C            9.04911188478979        2.36633232959374       -0.02891714208785
C            8.32197944529299        1.18805569258841       -0.01890776684502
O            9.03401328891498        0.01778557861097       -0.03271392405130
C            8.32592051853499       -1.15492212085469       -0.02757696290423
C            9.05680085637019       -2.33087508748304       -0.03481622080404
C            8.40809413300218       -3.55463164639057        0.01174643577772
C            7.02670149922986       -3.59346873821180        0.09144988824960
C            6.29037030322334       -2.42240967839464        0.09674960974982
C            6.92168348543590       -1.18203962060987        0.00873983708667
C            4.09433498074544        0.61741643558976        1.06759746453511
C            2.73048204932484        0.61027822269742        1.08561239264518
H           -2.19241258300674        1.05978662442271        1.90010587875882
H           -4.65434950918688        1.06127858489478        1.87177219741386
H           -5.21260408928509        2.46006876260967       -0.18224072069918
H           -6.50942782648274        4.53744259238454       -0.22439838426039
H           -8.98353191059392        4.46524072180348       -0.13122275242882
H          -10.13372500331767        2.26266205633303       -0.04991838734756
H          -10.12479996609641       -2.30361397019152       -0.01486974952423
H           -8.96716895099140       -4.50142894307447        0.08738362170805
H           -6.49502031071131       -4.56346833406674        0.22706492093407
H           -5.20616634200741       -2.48064250665925        0.20975786473138
H           -4.62930442932639       -1.08183003114510       -1.84333164986454
H           -2.16719010731910       -1.06927335223736       -1.84463303682769
H            2.17052962885580       -1.04698742298000       -1.85205060454672
H            4.63242052517492       -1.04754205887116       -1.85309943553850
H            5.20401609043095        2.48544430348502       -0.14683191162614
H            6.49364293732869        4.56729070739843       -0.15365797830918
H            8.96808446591108        4.50203504591628       -0.06203823606664
H           10.12572062960063        2.30217133624562       -0.02120010885349
H           10.13266398273807       -2.26342014564203       -0.06980687779624
H            8.98332124070261       -4.46680138214167        0.00204631088360
H            6.51223537133440       -4.53984801928156        0.15573825365174
H            5.21612859297485       -2.46183837188281        0.17896865251408
H            4.65027394540279        1.06495849676140        1.87998463804919
H            2.18871114678590        1.05537160776750        1.90775425662022

          :  Hamiltonian                  GFN2-xTB          :
         :: gradient norm              0.000084697756 Eh/a0 ::
         :: HOMO-LUMO gap              0.375090847772 eV    ::
         :: SCC energy              -109.478618167090 Eh    ::
         :: -> dispersion             -0.086893491616 Eh    ::
         :: -> Gsolv                  -0.045246207865 Eh    ::
         :: repulsion energy           1.938695515283 Eh    ::

    * Orbital Energies and Occupations

         #    Occupation            Energy/Eh            Energy/eV
      -------------------------------------------------------------
         1        2.0000           -0.7426303             -20.2080
       ...           ...                  ...                  ...
        88        2.0000           -0.4206625             -11.4468
        89        2.0000           -0.4202406             -11.4353
        90        2.0000           -0.4202327             -11.4351
        91        2.0000           -0.4044512             -11.0057
        92        2.0000           -0.4017821             -10.9330
        93        2.0000           -0.4017384             -10.9319
        94        2.0000           -0.3989454             -10.8559
        95        2.0000           -0.3960205             -10.7763
        96        2.0000           -0.3784179             -10.2973
        97        2.0000           -0.3629910              -9.8775
        98        1.9794           -0.3503150              -9.5326
        99        1.0206           -0.3429777              -9.3329
       100        0.9990           -0.2618087              -7.1242 (HOMO)
       101        0.0005           -0.2480251              -6.7491 (LUMO)
       102        0.0005           -0.2479452              -6.7469
       103                         -0.2374200              -6.4605
       104                         -0.2373636              -6.4590
       105                         -0.2257547              -6.1431
       106                         -0.2226464              -6.0585
       107                         -0.2136835              -5.8146
       108                         -0.2136697              -5.8142
       109                         -0.2116327              -5.7588
       110                         -0.2041138              -5.5542
       111                         -0.1982816              -5.3955
       ...                                ...                  ...
       192                          1.3967163              38.0066
      -------------------------------------------------------------
                  HL-Gap            0.0137836 Eh            0.3751 eV

     #   Z          covCN         q      C6AA      α(0)
     1   6 C        1.982    -0.063    32.760     9.243
     2   6 C        1.982    -0.063    32.760     9.243
     3   6 C        2.963     0.014    27.700     8.633
     4   6 C        2.920    -0.043    29.056     8.840
     5   6 C        2.911    -0.044    29.084     8.843
     6   6 C        2.920     0.028    27.381     8.581
     7   7 N        2.750    -0.038    21.973     6.962
     8   6 C        2.924     0.045    27.001     8.521
     9   6 C        2.922    -0.054    29.333     8.882
    10   6 C        2.918    -0.035    28.863     8.810
    11   6 C        2.919    -0.035    28.879     8.812
    12   6 C        2.918    -0.056    29.385     8.889
    13   6 C        2.884     0.126    25.232     8.235
    14   8 O        1.709    -0.250    18.133     5.749
    15   6 C        2.884     0.126    25.232     8.235
    16   6 C        2.918    -0.056    29.385     8.889
    17   6 C        2.919    -0.035    28.879     8.812
    18   6 C        2.918    -0.035    28.864     8.810
    19   6 C        2.922    -0.054    29.332     8.882
    20   6 C        2.924     0.045    27.002     8.522
    21   6 C        2.911    -0.044    29.084     8.843
    22   6 C        2.920    -0.042    29.055     8.839
    23   6 C        2.963     0.014    27.700     8.633
    24   6 C        2.920    -0.042    29.056     8.839
    25   6 C        2.911    -0.044    29.084     8.843
    26   6 C        2.920     0.028    27.383     8.581
    27   7 N        2.750    -0.037    21.965     6.961
    28   6 C        2.924     0.044    27.003     8.522
    29   6 C        2.922    -0.054    29.333     8.882
    30   6 C        2.918    -0.035    28.863     8.810
    31   6 C        2.919    -0.035    28.878     8.812
    32   6 C        2.918    -0.056    29.385     8.889
    33   6 C        2.884     0.126    25.231     8.235
    34   8 O        1.709    -0.249    18.131     5.749
    35   6 C        2.884     0.126    25.231     8.235
    36   6 C        2.918    -0.056    29.385     8.889
    37   6 C        2.919    -0.035    28.878     8.812
    38   6 C        2.918    -0.035    28.863     8.810
    39   6 C        2.922    -0.054    29.331     8.881
    40   6 C        2.924     0.044    27.004     8.522
    41   6 C        2.911    -0.044    29.085     8.843
    42   6 C        2.920    -0.043    29.057     8.840
    43   1 H        0.926     0.021     2.716     2.577
    44   1 H        0.925     0.024     2.675     2.558
    45   1 H        0.926     0.051     2.312     2.378
    46   1 H        0.926     0.048     2.342     2.393
    47   1 H        0.926     0.050     2.321     2.382
    48   1 H        0.926     0.055     2.256     2.349
    49   1 H        0.926     0.055     2.256     2.349
    50   1 H        0.926     0.050     2.321     2.383
    51   1 H        0.926     0.048     2.342     2.393
    52   1 H        0.926     0.051     2.313     2.378
    53   1 H        0.925     0.024     2.676     2.558
    54   1 H        0.926     0.021     2.717     2.578
    55   1 H        0.926     0.021     2.717     2.578
    56   1 H        0.925     0.024     2.676     2.558
    57   1 H        0.926     0.051     2.310     2.377
    58   1 H        0.926     0.048     2.341     2.393
    59   1 H        0.926     0.050     2.321     2.382
    60   1 H        0.926     0.055     2.255     2.348
    61   1 H        0.926     0.055     2.256     2.349
    62   1 H        0.926     0.050     2.321     2.382
    63   1 H        0.926     0.048     2.341     2.393
    64   1 H        0.926     0.051     2.311     2.377
    65   1 H        0.925     0.024     2.673     2.557
    66   1 H        0.926     0.021     2.716     2.577

molecular dipole:
                 x           y           z       tot (Debye)
 q only:        0.017       0.002      -0.009
   full:        0.017       0.001      -0.010       0.050

 projected vibrational frequencies (cm⁻¹)
eigval :       -0.00    -0.00    -0.00     0.00     0.00     0.00
eigval :        8.63    11.06    15.11    25.09    28.90    39.27
eigval :       61.16    63.34    68.05    71.39    86.71    92.13
eigval :      107.26   120.87   124.48   125.96   183.28   193.52
eigval :      199.03   203.90   241.11   247.33   255.92   273.48
eigval :      275.08   277.58   297.51   332.71   358.11   371.48
eigval :      374.02   374.60   380.63   383.33   392.64   419.83
eigval :      420.65   421.28   435.10   435.61   445.30   452.75
eigval :      454.77   461.61   466.98   476.43   501.66   502.10
eigval :      526.49   527.10   528.16   537.85   538.89   581.87
eigval :      582.41   594.74   605.77   608.38   618.03   637.04
eigval :      639.63   656.81   662.70   664.59   666.49   667.34
eigval :      678.96   714.15   775.26   775.72   777.60   777.89
eigval :      789.22   790.26   790.66   798.81   826.29   828.58
eigval :      838.77   853.87   853.94   865.57   865.99   866.98
eigval :      867.06   897.18   897.44   897.73   897.99   901.10
eigval :      901.16   905.55   905.88   912.28   912.50   912.92
eigval :      913.12   918.07   918.58   920.27   921.03   982.18
eigval :      985.68  1085.84  1085.88  1086.59  1087.23  1109.74
eigval :     1109.86  1116.21  1117.25  1125.87  1129.58  1152.22
eigval :     1159.58  1168.51  1171.33  1171.41  1175.11  1181.92
eigval :     1185.72  1200.08  1204.93  1205.02  1214.45  1228.54
eigval :     1235.44  1235.97  1244.40  1249.88  1253.86  1254.40
eigval :     1296.53  1298.46  1299.85  1307.14  1311.27  1312.59
eigval :     1321.97  1323.91  1339.71  1344.33  1384.39  1385.06
eigval :     1387.07  1413.78  1413.99  1424.01  1438.62  1439.27
eigval :     1447.44  1447.65  1468.44  1468.84  1473.21  1476.68
eigval :     1513.42  1534.13  1549.97  1550.33  1556.30  1556.72
eigval :     1566.89  1571.56  1579.62  1583.86  1599.09  2144.10
eigval :     3060.75  3061.84  3063.30  3064.01  3076.26  3076.64
eigval :     3079.44  3080.57  3091.52  3091.57  3091.61  3091.69
eigval :     3099.64  3099.67  3099.77  3099.79  3109.13  3109.15
eigval :     3109.44  3109.49  3113.08  3113.24  3113.39  3113.49

   temp. (K)  partition function   enthalpy   heat capacity  entropy
                                   cal/mol     cal/K/mol   cal/K/mol   J/K/mol
 298.15  VIB  0.945E+15            19209.989    123.363    118.979
         ROT  0.919E+08              888.752      2.981     39.419
         INT  0.868E+23            20098.741    126.344    158.398
         TR   0.122E+29             1481.254      4.968     44.728
         TOT                       21579.9954   131.3117   203.1258   849.8784

       T/K    H(0)-H(T)+PV         H(T)/Eh          T*S/Eh         G(T)/Eh
   ------------------------------------------------------------------------
    298.15    0.343899E-01    0.526325E+00    0.965116E-01    0.429814E+00
   ------------------------------------------------------------------------

         :::::::::::::::::::::::::::::::::::::::::::::::::::::
         ::                  THERMODYNAMIC                  ::
         :::::::::::::::::::::::::::::::::::::::::::::::::::::
         :: total free energy        -107.110108780504 Eh   ::
         ::.................................................::
         :: total energy             -107.539922651889 Eh   ::
         :: zero point energy           0.491935587871 Eh   ::
         :: G(RRHO) w/o ZPVE           -0.062121716486 Eh   ::
         :: G(RRHO) contrib.            0.429813871385 Eh   ::
         :::::::::::::::::::::::::::::::::::::::::::::::::::::

           -------------------------------------------------
          | TOTAL ENERGY             -107.539922651889 Eh   |
          | TOTAL ENTHALPY           -107.013597152314 Eh   |
          | TOTAL FREE ENERGY        -107.110108780504 Eh   |
          | GRADIENT NORM               0.000082288190 Eh/α |
          | HOMO-LUMO GAP               0.375070831503 eV   |
           -------------------------------------------------

 * finished run on 2025/09/09 at 21:45:22.789
