   * xtb version 6.7.1 (edcfbbe) compiled by 'albert@albert-system' on 2024-07-22

   ID    Z sym.   atoms
    1    6 C      1-6, 8-13, 15-26, 28-33, 35-42
    2    7 N      7, 27
    3    8 O      14, 34
    4    1 H      43-66

          program call               : xtb data2507/toluene/DPE-DPXZ/DPE-DPXZ.xyz --gfn 2 --gbsa toluene --ohess vtight --parallel 40 --molden --ceasefiles --namespace data2507/toluene/DPE-DPXZ/DPE-DPXZ_toluene_S0_preOpt
      * Solvation model:               GBSA
        Solvent                        toluene
        Solvent mass                       9.2140E+01 g/mol
          :  Hamiltonian                  GFN2-xTB          :
 * total energy  :  -107.6054765 Eh     change       -0.9813334E-08 Eh
 * total energy  :  -107.6144661 Eh     change       -0.8989572E-02 Eh
 * total energy  :  -107.6172755 Eh     change       -0.2809362E-02 Eh
 * total energy  :  -107.6181019 Eh     change       -0.8263932E-03 Eh
 * total energy  :  -107.6186164 Eh     change       -0.5145085E-03 Eh
 * total energy  :  -107.6189181 Eh     change       -0.3017224E-03 Eh
 * total energy  :  -107.6190976 Eh     change       -0.1795402E-03 Eh
 * total energy  :  -107.6192353 Eh     change       -0.1376729E-03 Eh
 * total energy  :  -107.6192832 Eh     change       -0.4787712E-04 Eh
 * total energy  :  -107.6193146 Eh     change       -0.3144996E-04 Eh
 * total energy  :  -107.6207600 Eh     change       -0.3958655E-06 Eh
 * total energy  :  -107.6207604 Eh     change       -0.3627126E-06 Eh
 * total energy  :  -107.6207608 Eh     change       -0.3506371E-06 Eh
 * total energy  :  -107.6207611 Eh     change       -0.3352652E-06 Eh
 * total energy  :  -107.6207614 Eh     change       -0.3324484E-06 Eh
 * total energy  :  -107.6207618 Eh     change       -0.3298459E-06 Eh
 * total energy  :  -107.6207621 Eh     change       -0.3395208E-06 Eh
 * total energy  :  -107.6207624 Eh     change       -0.3336298E-06 Eh
 * total energy  :  -107.6207624 Eh     change       -0.2953186E-08 Eh
   *** GEOMETRY OPTIMIZATION CONVERGED AFTER 94 ITERATIONS ***

 final structure:
================
66
 xtb: 6.7.1 (edcfbbe)
C            0.60326413407794        0.00255449470580       -0.00359926951092
C           -0.60519814130914        0.00212586757100       -0.00402678041538
C           -2.01572468293765        0.00147318582050       -0.00368915442132
C           -2.72047652144379       -0.28658847312663        1.16833586088652
C           -4.09989719999068       -0.29177057310789        1.16594042085267
C           -4.79927066053471       -0.00001017046674       -0.00239932622442
N           -6.21462320321389       -0.00082380756171       -0.00127356052632
C           -6.92279935304910        0.94625878403435        0.73953758715077
C           -6.28812017456037        1.95219030166991        1.45826782615746
C           -7.02161802718867        2.87910069887828        2.18394768906003
C           -8.40046734228496        2.82283616446929        2.19694279437051
C           -9.05098027297706        1.84070170460577        1.46270773131207
C           -8.32416643155859        0.91649692090894        0.73629669009906
O           -9.04096320985232       -0.00893042363651        0.01128504778852
C           -8.32524836432198       -0.92887183254817       -0.72178628165669
C           -9.05333461419534       -1.85595438034077       -1.44323363729129
C           -8.40397097957560       -2.83305588283807       -2.18514835233593
C           -7.02476758118979       -2.88127703041949       -2.18494260634939
C           -6.28999377012424       -1.95144697646787       -1.46428474535264
C           -6.92378039387026       -0.95072218339828       -0.73755432398368
C           -4.10134740765352        0.29265145845719       -1.17134654793116
C           -2.72186375589538        0.28889288211466       -1.17500255937829
C            2.01388841597117        0.00279953772366       -0.00298280563424
C            2.71929748877863        0.10446295048234        1.19930797008818
C            4.09868902051808        0.11029495756684        1.19778438934344
C            4.79890461410229        0.00273404405632       -0.00145789895978
N            6.21364879756115        0.00244509185280       -0.00066332836672
C            6.92258905359289       -1.03550120100461        0.60663812690551
C            6.28896126266646       -2.12614483069419        1.19014554620544
C            7.02278566511881       -3.14016095617735        1.78754741397304
C            8.40176388836111       -3.08778111167710        1.80367261683617
C            9.05139917680363       -2.02026990153469        1.19959807669537
C            8.32405609474938       -1.00838820740854        0.60176635034558
O            9.04089509430382        0.00102348862044       -0.00056673482543
C            8.32512018391822        1.01115968814494       -0.60294231650554
C            9.05349839167406        2.02232927636750       -1.20071748408812
C            8.40494553913834        3.09049995555805       -1.80479111568867
C            7.02601799967872        3.14426976068634       -1.78871120555302
C            6.29115790286525        2.13095346278950       -1.19139625780593
C            6.92368488321389        1.03965286338764       -0.60792255325946
C            4.09998257280317       -0.10465456170910       -1.20147510172924
C            2.72059132880661       -0.09876189674900       -1.20451392477494
H           -2.17676871213223       -0.51419498443165        2.07330603161145
H           -4.64728825263498       -0.52233873253339        2.06831491792826
H           -5.21138044550394        2.01466280640402        1.44648801824330
H           -6.50125620690209        3.64672154692343        2.73622756835452
H           -8.97676526579201        3.53799908920405        2.76267464334246
H          -10.12775766850750        1.77801476253534        1.43716447739197
H          -10.13017768732055       -1.79953768646179       -1.40765439800557
H           -8.98129484644735       -3.55060668405875       -2.74679167500502
H           -6.50503441184839       -3.64479394064843       -2.74346721051904
H           -5.21287481810168       -2.00792788936070       -1.46246909170019
H           -4.64976407192573        0.52305139613778       -2.07313367832507
H           -2.17926531127574        0.51715642906228       -2.08047586881910
H            2.17636304977058        0.18828196644457        2.12911188865164
H            4.64516875176542        0.19881132822685        2.12548696591106
H            5.21228630708902       -2.18656852893706        1.17270296939169
H            6.50249903714883       -3.97177518527307        2.23782303526207
H            8.97856136667106       -3.87073774686269        2.27046547950020
H           10.12818836748419       -1.95670160487039        1.17802286904076
H           10.13022275178078        1.95768297823260       -1.17911615147147
H            8.98254449340431        3.87289089245133       -2.27154134220669
H            6.50659721595321        3.97644336157796       -2.23895628441205
H            5.21453841513639        2.19241085233026       -1.17398732502521
H            4.64746633631674       -0.19317533405528       -2.12858582025220
H            2.17866018489712       -0.18256623166480       -2.13490528436780

          :  Hamiltonian                  GFN2-xTB          :
         :: gradient norm              0.000043951415 Eh/a0 ::
         :: HOMO-LUMO gap              1.947959007457 eV    ::
         :: SCC energy              -109.578836298388 Eh    ::
         :: -> dispersion             -0.086691353306 Eh    ::
         :: -> Gsolv                  -0.045510321971 Eh    ::
         :: repulsion energy           1.958073868593 Eh    ::

    * Orbital Energies and Occupations

         #    Occupation            Energy/Eh            Energy/eV
      -------------------------------------------------------------
         1        2.0000           -0.7291330             -19.8407
       ...           ...                  ...                  ...
        87        2.0000           -0.4223426             -11.4925
        88        2.0000           -0.4174410             -11.3591
        89        2.0000           -0.4172138             -11.3530
        90        2.0000           -0.4155399             -11.3074
        91        2.0000           -0.4154147             -11.3040
        92        2.0000           -0.4122134             -11.2169
        93        2.0000           -0.4121524             -11.2152
        94        2.0000           -0.4067273             -11.0676
        95        2.0000           -0.3920573             -10.6684
        96        2.0000           -0.3904515             -10.6247
        97        2.0000           -0.3838869             -10.4461
        98        2.0000           -0.3431990              -9.3389
        99        2.0000           -0.3418925              -9.3034 (HOMO)
       100                         -0.2703063              -7.3554 (LUMO)
       101                         -0.2383677              -6.4863
       102                         -0.2382532              -6.4832
       103                         -0.2353936              -6.4054
       104                         -0.2352756              -6.4022
       105                         -0.2297546              -6.2519
       106                         -0.2294479              -6.2436
       107                         -0.2293678              -6.2414
       108                         -0.2152488              -5.8572
       109                         -0.2132637              -5.8032
       110                         -0.1962123              -5.3392
       ...                                ...                  ...
       192                          1.4242108              38.7547
      -------------------------------------------------------------
                  HL-Gap            0.0715862 Eh            1.9480 eV

     #   Z          covCN         q      C6AA      α(0)
     1   6 C        1.982    -0.040    32.118     9.152
     2   6 C        1.982    -0.040    32.122     9.153
     3   6 C        2.971     0.038    27.151     8.547
     4   6 C        2.926    -0.028    28.707     8.787
     5   6 C        2.920    -0.039    28.967     8.826
     6   6 C        2.920     0.064    26.561     8.451
     7   7 N        2.751    -0.077    22.730     7.081
     8   6 C        2.922     0.044    27.023     8.525
     9   6 C        2.924    -0.061    29.527     8.911
    10   6 C        2.919    -0.040    28.987     8.829
    11   6 C        2.919    -0.042    29.050     8.838
    12   6 C        2.919    -0.059    29.460     8.901
    13   6 C        2.882     0.121    25.334     8.252
    14   8 O        1.708    -0.276    18.581     5.820
    15   6 C        2.882     0.121    25.334     8.252
    16   6 C        2.919    -0.059    29.460     8.901
    17   6 C        2.919    -0.042    29.050     8.838
    18   6 C        2.919    -0.040    28.987     8.829
    19   6 C        2.924    -0.061    29.528     8.911
    20   6 C        2.922     0.044    27.023     8.525
    21   6 C        2.920    -0.039    28.967     8.826
    22   6 C        2.926    -0.028    28.707     8.787
    23   6 C        2.971     0.037    27.158     8.548
    24   6 C        2.926    -0.028    28.708     8.787
    25   6 C        2.920    -0.039    28.974     8.827
    26   6 C        2.920     0.064    26.563     8.452
    27   7 N        2.751    -0.076    22.719     7.079
    28   6 C        2.921     0.043    27.026     8.525
    29   6 C        2.924    -0.061    29.526     8.911
    30   6 C        2.919    -0.040    28.986     8.829
    31   6 C        2.919    -0.042    29.047     8.838
    32   6 C        2.919    -0.059    29.459     8.901
    33   6 C        2.882     0.121    25.332     8.251
    34   8 O        1.708    -0.276    18.577     5.819
    35   6 C        2.882     0.121    25.332     8.251
    36   6 C        2.919    -0.059    29.459     8.901
    37   6 C        2.919    -0.042    29.047     8.838
    38   6 C        2.919    -0.040    28.986     8.829
    39   6 C        2.924    -0.061    29.526     8.911
    40   6 C        2.922     0.043    27.026     8.525
    41   6 C        2.920    -0.039    28.974     8.827
    42   6 C        2.926    -0.028    28.708     8.787
    43   1 H        0.926     0.044     2.394     2.420
    44   1 H        0.926     0.041     2.431     2.438
    45   1 H        0.926     0.039     2.463     2.454
    46   1 H        0.926     0.040     2.451     2.448
    47   1 H        0.926     0.040     2.450     2.448
    48   1 H        0.926     0.045     2.380     2.413
    49   1 H        0.926     0.045     2.380     2.413
    50   1 H        0.926     0.040     2.450     2.448
    51   1 H        0.926     0.040     2.451     2.448
    52   1 H        0.926     0.039     2.463     2.454
    53   1 H        0.926     0.041     2.429     2.437
    54   1 H        0.926     0.044     2.394     2.419
    55   1 H        0.926     0.044     2.396     2.421
    56   1 H        0.926     0.041     2.430     2.438
    57   1 H        0.926     0.039     2.457     2.451
    58   1 H        0.926     0.040     2.449     2.447
    59   1 H        0.926     0.040     2.448     2.447
    60   1 H        0.926     0.045     2.379     2.412
    61   1 H        0.926     0.045     2.379     2.412
    62   1 H        0.926     0.040     2.448     2.447
    63   1 H        0.926     0.040     2.449     2.447
    64   1 H        0.926     0.039     2.457     2.451
    65   1 H        0.926     0.041     2.430     2.438
    66   1 H        0.926     0.044     2.396     2.421

molecular dipole:
                 x           y           z       tot (Debye)
 q only:        0.029       0.003      -0.004
   full:        0.029       0.002      -0.003       0.075

 projected vibrational frequencies (cm⁻¹)
eigval :       -0.00    -0.00    -0.00     0.00     0.00     0.00
eigval :       -8.22    -1.93     8.33    19.10    24.37    31.72
eigval :       43.73    53.25    56.76    58.32    63.28    92.50
eigval :      109.00   111.74   115.35   119.04   187.00   191.66
eigval :      193.04   209.57   243.15   249.11   255.28   266.23
eigval :      270.07   272.80   299.97   362.22   363.20   371.75
eigval :      372.41   376.20   390.93   394.53   402.51   418.69
eigval :      425.25   429.69   430.88   432.32   438.72   442.15
eigval :      456.58   467.48   496.82   504.11   507.18   510.02
eigval :      519.14   521.43   538.61   548.94   553.03   586.69
eigval :      587.29   595.59   612.73   615.07   622.78   655.65
eigval :      657.33   658.32   659.70   661.77   681.47   682.94
eigval :      688.28   724.75   773.99   774.93   777.25   777.55
eigval :      790.21   800.28   811.47   816.10   851.85   852.22
eigval :      852.85   859.39   860.43   861.56   863.14   869.02
eigval :      869.58   892.74   894.12   895.45   896.61   909.64
eigval :      910.85   911.18   912.77   913.79   914.42   916.75
eigval :      920.12   921.41   927.09   928.75   933.38  1011.62
eigval :     1021.64  1089.22  1089.56  1090.34  1090.82  1104.98
eigval :     1105.36  1116.73  1117.43  1126.81  1130.15  1158.91
eigval :     1169.13  1169.44  1172.52  1173.50  1179.33  1180.33
eigval :     1186.01  1190.60  1196.29  1196.80  1215.68  1222.35
eigval :     1241.38  1242.29  1258.99  1259.28  1260.32  1262.54
eigval :     1293.23  1303.49  1304.60  1304.68  1306.55  1308.58
eigval :     1334.53  1335.00  1344.93  1353.76  1362.52  1398.37
eigval :     1401.79  1421.67  1421.95  1440.48  1440.94  1467.64
eigval :     1481.20  1481.48  1494.87  1503.84  1505.36  1545.32
eigval :     1548.47  1565.04  1565.41  1578.76  1579.01  1579.09
eigval :     1586.23  1587.66  1590.80  1602.55  1602.66  2315.87
eigval :     3079.72  3079.95  3081.25  3081.52  3085.54  3085.86
eigval :     3085.92  3086.04  3090.88  3091.39  3093.18  3093.95
eigval :     3094.01  3094.17  3094.38  3094.44  3102.68  3102.95
eigval :     3103.52  3103.80  3107.15  3107.70  3107.99  3108.55

   temp. (K)  partition function   enthalpy   heat capacity  entropy
                                   cal/mol     cal/K/mol   cal/K/mol   J/K/mol
 298.15  VIB  0.519E+17            19229.051    121.144    122.177
         ROT  0.230E+08              888.752      2.981     36.668
         INT  0.119E+25            20117.803    124.125    158.845
         TR   0.122E+29             1481.254      4.968     44.728
         TOT                       21599.0573   129.0929   203.5731   851.7498

       T/K    H(0)-H(T)+PV         H(T)/Eh          T*S/Eh         G(T)/Eh
   ------------------------------------------------------------------------
    298.15    0.344203E-01    0.529069E+00    0.967241E-01    0.432345E+00
   ------------------------------------------------------------------------

         :::::::::::::::::::::::::::::::::::::::::::::::::::::
         ::                  THERMODYNAMIC                  ::
         :::::::::::::::::::::::::::::::::::::::::::::::::::::
         :: total free energy        -107.188417269611 Eh   ::
         ::.................................................::
         :: total energy             -107.620762429050 Eh   ::
         :: zero point energy           0.494649012299 Eh   ::
         :: G(RRHO) w/o ZPVE           -0.062303852860 Eh   ::
         :: G(RRHO) contrib.            0.432345159439 Eh   ::
         :::::::::::::::::::::::::::::::::::::::::::::::::::::

           -------------------------------------------------
          | TOTAL ENERGY             -107.620762429050 Eh   |
          | TOTAL ENTHALPY           -107.091693128048 Eh   |
          | TOTAL FREE ENERGY        -107.188417269611 Eh   |
          | GRADIENT NORM               0.000043950468 Eh/α |
          | HOMO-LUMO GAP               1.947958989340 eV   |
           -------------------------------------------------

 * finished run on 2025/09/09 at 21:41:48.666
