   * xtb version 6.7.1 (edcfbbe) compiled by 'albert@albert-system' on 2024-07-22

   ID    Z sym.   atoms
    1    9 F      1, 3
    2    5 B      2
    3    8 O      4, 27
    4    6 C      5-19, 21-26, 28-35, 37
    5    7 N      20, 36, 38
    6    1 H      39-58

          program call               : xtb data2507/toluene/MBF/MBF_toluene_S0_crest.xyz --gfn 2 --gbsa toluene --ohess vtight --parallel 40 --molden --ceasefiles --namespace data2507/toluene/MBF/MBF_toluene_S0_finalOpt
      * Solvation model:               GBSA
        Solvent                        toluene
        Solvent mass                       9.2140E+01 g/mol
          :  Hamiltonian                  GFN2-xTB          :
 * total energy  :  -102.2792919 Eh     change       -0.1798838E-08 Eh
 * total energy  :  -102.2795063 Eh     change       -0.2144392E-03 Eh
 * total energy  :  -102.2796304 Eh     change       -0.1241353E-03 Eh
 * total energy  :  -102.2796427 Eh     change       -0.1225687E-04 Eh
 * total energy  :  -102.2796482 Eh     change       -0.5555491E-05 Eh
 * total energy  :  -102.2796500 Eh     change       -0.1791801E-05 Eh
 * total energy  :  -102.2796520 Eh     change       -0.1950864E-05 Eh
 * total energy  :  -102.2796535 Eh     change       -0.1515771E-05 Eh
 * total energy  :  -102.2796548 Eh     change       -0.1271364E-05 Eh
 * total energy  :  -102.2796555 Eh     change       -0.7005610E-06 Eh
 * total energy  :  -102.2796583 Eh     change       -0.2944007E-06 Eh
 * total energy  :  -102.2796587 Eh     change       -0.3091403E-06 Eh
 * total energy  :  -102.2796590 Eh     change       -0.3427484E-06 Eh
 * total energy  :  -102.2796593 Eh     change       -0.3381626E-06 Eh
 * total energy  :  -102.2796597 Eh     change       -0.3389701E-06 Eh
 * total energy  :  -102.2796598 Eh     change       -0.1292447E-06 Eh
 * total energy  :  -102.2796601 Eh     change       -0.2763578E-06 Eh
 * total energy  :  -102.2796602 Eh     change       -0.1212166E-06 Eh
 * total energy  :  -102.2796602 Eh     change       -0.3332219E-07 Eh
   *** GEOMETRY OPTIMIZATION CONVERGED AFTER 25 ITERATIONS ***

 final structure:
================
58
 xtb: 6.7.1 (edcfbbe)
F            5.21800260050446        2.28362119790368       -2.08263248083033
B            5.02706928107323        1.91726017475228       -0.75730541933191
F            5.18575361866173        3.04724262987011        0.03873017520266
O            5.97994336215024        0.89376681559669       -0.37467987529294
C            5.63770507667432       -0.28107590153180        0.11181073152583
C            6.76092595570266       -1.15039887376720        0.48460531874501
C            6.63377808637778       -2.53996786468519        0.53987433995989
C            7.71448037308022       -3.32294002037893        0.89930997907232
C            8.93186613760633       -2.73707604875449        1.21095472125981
C            9.07032288326665       -1.35923500675203        1.14947943279245
C            7.99602525569462       -0.57087649265630        0.78443998579674
C            4.32847501883130       -0.66160717418421        0.27989622221072
C            3.26363470313456        0.19002846838179       -0.08189784548695
C            1.91301733274228       -0.16723602646903        0.05940116860617
C            0.92781516831712        0.73025633834573       -0.31758138909048
C           -0.49960891610926        0.47281353899531       -0.20169953525020
C           -1.39936887297249        1.29904361230516       -0.88638779732225
C           -2.75709042343839        1.08653879411471       -0.80579821402960
C           -3.26053088956552        0.03916153722648       -0.03163869955685
N           -4.64430850940791       -0.18239447474984        0.05579880290173
C           -5.50005247624711        0.81731242738939        0.53545163914535
C           -5.02956300857528        2.03694225142203        1.00933574221254
C           -5.90419880023936        3.00185922860074        1.48418231744834
C           -7.26399386924060        2.76201041778740        1.50898428892751
C           -7.74718188986298        1.53578710556767        1.07870275745128
C           -6.87747876981611        0.56916055301029        0.60558976948708
O           -7.43164313315549       -0.63290113105879        0.23759843819450
C           -6.58036748443315       -1.60612967067883       -0.22592586411018
C           -7.15511376623821       -2.80605661954230       -0.60597214249956
C           -6.37049657891492       -3.82539317689569       -1.12327882651119
C           -5.01285810529400       -3.62497055782649       -1.27752758682613
C           -4.43266217663291       -2.42540322686194       -0.89538631043051
C           -5.19755764168882       -1.40747804567089       -0.33655470780136
C           -2.37002024505138       -0.78332819280346        0.66124665769320
C           -1.01171509710049       -0.56952042363585        0.57903883592340
N            1.27775362970579        1.93551301653151       -0.84604694153017
C            2.53130851756279        2.21713205943268       -0.95825746793144
N            3.54651776025700        1.41854353671537       -0.59638281790536
H            5.70083614671673       -3.01031465184595        0.27347706287764
H            7.60866173767566       -4.39693573079429        0.93345561363013
H            9.77179391673944       -3.35301004517601        1.49530388428044
H           10.01752103971243       -0.89782117571485        1.38576349139357
H            8.08995203200034        0.50347949755354        0.73382885868864
H            4.08787478136523       -1.61595263777139        0.71111751069985
H            1.68088994429650       -1.14313092401984        0.44924639609348
H           -1.00398584296009        2.09846512711182       -1.49221052575610
H           -3.44011771973452        1.71922227875362       -1.35246665344146
H           -3.96965132499869        2.23405165948552        1.01767197799708
H           -5.50886543563020        3.94097964393113        1.83936089439652
H           -7.94943007361003        3.51132114925522        1.87238393397016
H           -8.80024800046803        1.30359778983551        1.10694630032025
H           -8.22233019975718       -2.91726831245539       -0.49493988484640
H           -6.82686887343037       -4.75843813974377       -1.41390967654923
H           -4.39209355745247       -4.39841490355745       -1.70291177756695
H           -3.37513864750656       -2.27740902367653       -1.04381615386678
H           -2.75726327244242       -1.57930611710259        1.27960804721219
H           -0.35031360428377       -1.19812659237724        1.15310132749629
H            2.81253490870878        3.17439365376215       -1.37507864834951

          :  Hamiltonian                  GFN2-xTB          :
         :: gradient norm              0.000169092521 Eh/a0 ::
         :: HOMO-LUMO gap              0.907741789812 eV    ::
         :: SCC energy              -103.849922176939 Eh    ::
         :: -> dispersion             -0.073874297015 Eh    ::
         :: -> Gsolv                  -0.050731274452 Eh    ::
         :: repulsion energy           1.570261941331 Eh    ::

    * Orbital Energies and Occupations

         #    Occupation            Energy/Eh            Energy/eV
      -------------------------------------------------------------
         1        2.0000           -0.7879091             -21.4401
       ...           ...                  ...                  ...
        80        2.0000           -0.4363870             -11.8747
        81        2.0000           -0.4332772             -11.7901
        82        2.0000           -0.4322750             -11.7628
        83        2.0000           -0.4284215             -11.6579
        84        2.0000           -0.4242557             -11.5446
        85        2.0000           -0.4215385             -11.4706
        86        2.0000           -0.4197103             -11.4209
        87        2.0000           -0.4195882             -11.4176
        88        2.0000           -0.4165524             -11.3350
        89        2.0000           -0.4065075             -11.0616
        90        2.0000           -0.4002038             -10.8901
        91        2.0000           -0.3941543             -10.7255
        92        2.0000           -0.3493288              -9.5057 (HOMO)
        93                         -0.3159698              -8.5980 (LUMO)
        94                         -0.2916648              -7.9366
        95                         -0.2548846              -6.9358
        96                         -0.2439049              -6.6370
        97                         -0.2424713              -6.5980
        98                         -0.2368518              -6.4451
        99                         -0.2343887              -6.3780
       100                         -0.2336430              -6.3578
       101                         -0.2183101              -5.9405
       102                         -0.2006118              -5.4589
       103                         -0.1885309              -5.1302
       ...                                ...                  ...
       172                          0.6706514              18.2494
      -------------------------------------------------------------
                  HL-Gap            0.0333590 Eh            0.9077 eV

     #   Z          covCN         q      C6AA      α(0)
     1   9 F        0.721    -0.400    13.535     4.344
     2   5 B        3.071     0.598    13.520     6.133
     3   9 F        0.721    -0.402    13.558     4.348
     4   8 O        1.639    -0.338    19.700     5.991
     5   6 C        2.848     0.181    24.119     8.049
     6   6 C        2.974     0.001    28.007     8.681
     7   6 C        2.921    -0.029    28.725     8.789
     8   6 C        2.918    -0.024    28.610     8.771
     9   6 C        2.920    -0.020    28.510     8.756
    10   6 C        2.917    -0.024    28.605     8.770
    11   6 C        2.925    -0.018    28.464     8.749
    12   6 C        2.905    -0.118    31.001     9.130
    13   6 C        2.939     0.106    25.659     8.308
    14   6 C        2.914    -0.066    29.644     8.928
    15   6 C        2.963     0.110    25.563     8.293
    16   6 C        2.977     0.003    27.963     8.674
    17   6 C        2.924    -0.022    28.548     8.762
    18   6 C        2.918    -0.038    28.938     8.821
    19   6 C        2.920     0.071    26.403     8.426
    20   7 N        2.750    -0.059    22.387     7.027
    21   6 C        2.921     0.040    27.097     8.536
    22   6 C        2.924    -0.059    29.468     8.902
    23   6 C        2.919    -0.038    28.939     8.822
    24   6 C        2.919    -0.039    28.958     8.825
    25   6 C        2.919    -0.057    29.407     8.893
    26   6 C        2.884     0.124    25.272     8.242
    27   8 O        1.709    -0.266    18.413     5.794
    28   6 C        2.884     0.124    25.269     8.241
    29   6 C        2.919    -0.057    29.407     8.893
    30   6 C        2.919    -0.039    28.962     8.825
    31   6 C        2.919    -0.038    28.945     8.823
    32   6 C        2.924    -0.059    29.475     8.903
    33   6 C        2.921     0.040    27.097     8.536
    34   6 C        2.919    -0.039    28.971     8.827
    35   6 C        2.920    -0.028    28.702     8.785
    36   7 N        1.842    -0.238    27.080     7.712
    37   6 C        2.860     0.150    24.740     8.153
    38   7 N        2.671    -0.136    23.960     7.270
    39   1 H        0.926     0.055     2.262     2.352
    40   1 H        0.926     0.055     2.261     2.351
    41   1 H        0.926     0.053     2.280     2.361
    42   1 H        0.926     0.049     2.328     2.386
    43   1 H        0.926     0.049     2.327     2.385
    44   1 H        0.926     0.081     1.964     2.191
    45   1 H        0.926     0.082     1.959     2.189
    46   1 H        0.926     0.069     2.097     2.265
    47   1 H        0.926     0.057     2.234     2.337
    48   1 H        0.926     0.045     2.378     2.411
    49   1 H        0.926     0.044     2.394     2.419
    50   1 H        0.926     0.044     2.392     2.418
    51   1 H        0.926     0.050     2.318     2.381
    52   1 H        0.926     0.050     2.321     2.382
    53   1 H        0.926     0.044     2.392     2.418
    54   1 H        0.926     0.044     2.390     2.418
    55   1 H        0.926     0.045     2.379     2.412
    56   1 H        0.926     0.058     2.225     2.333
    57   1 H        0.926     0.058     2.218     2.329
    58   1 H        0.925     0.068     2.105     2.269

molecular dipole:
                 x           y           z       tot (Debye)
 q only:       -2.064      -3.303       1.273
   full:       -1.792      -3.283       1.286      10.053

 projected vibrational frequencies (cm⁻¹)
eigval :       -0.00    -0.00    -0.00    -0.00     0.00     0.00
eigval :        9.76    14.30    23.00    35.66    37.16    45.04
eigval :       55.56    57.90    64.72    68.11   104.03   110.92
eigval :      113.28   126.94   155.08   178.08   183.52   213.78
eigval :      229.27   232.85   252.39   267.42   274.01   284.87
eigval :      292.85   316.65   342.12   359.34   367.96   374.05
eigval :      379.36   396.40   403.92   420.28   431.24   435.06
eigval :      444.39   456.64   464.99   480.07   491.63   508.01
eigval :      509.93   524.47   546.24   561.75   571.18   585.48
eigval :      586.56   607.05   607.24   615.65   642.99   650.74
eigval :      662.60   664.26   668.44   670.31   693.40   695.64
eigval :      722.67   762.56   767.71   777.04   780.20   780.61
eigval :      801.57   823.02   831.11   837.61   854.23   862.51
eigval :      867.72   871.05   873.69   874.52   899.34   900.32
eigval :      904.92   905.72   909.09   913.46   915.07   917.01
eigval :      928.71   929.33   930.85   936.01   938.75   943.74
eigval :      963.33   986.02  1011.28  1058.32  1079.84  1080.85
eigval :     1088.00  1091.35  1099.24  1106.73  1118.17  1119.80
eigval :     1131.98  1167.48  1172.07  1172.57  1175.86  1182.24
eigval :     1189.33  1194.03  1199.83  1219.53  1240.06  1242.38
eigval :     1248.43  1258.39  1265.08  1267.15  1275.31  1303.65
eigval :     1306.94  1315.05  1322.38  1330.75  1336.39  1348.35
eigval :     1356.03  1383.00  1400.96  1418.40  1422.82  1436.98
eigval :     1440.95  1458.90  1470.63  1474.74  1478.33  1497.85
eigval :     1542.15  1549.88  1561.85  1566.41  1576.00  1577.33
eigval :     1586.43  1588.11  1594.30  1599.61  3077.24  3080.48
eigval :     3084.40  3088.44  3089.04  3091.27  3092.66  3093.25
eigval :     3096.69  3097.42  3098.46  3104.30  3106.91  3107.07
eigval :     3107.24  3111.58  3112.21  3115.35  3126.32  3147.32

   temp. (K)  partition function   enthalpy   heat capacity  entropy
                                   cal/mol     cal/K/mol   cal/K/mol   J/K/mol
 298.15  VIB  0.269E+14            17303.638    109.597    107.419
         ROT  0.591E+08              888.752      2.981     38.542
         INT  0.159E+22            18192.391    112.578    145.961
         TR   0.109E+29             1481.254      4.968     44.515
         TOT                       19673.6446   117.5465   190.4763   796.9529

       T/K    H(0)-H(T)+PV         H(T)/Eh          T*S/Eh         G(T)/Eh
   ------------------------------------------------------------------------
    298.15    0.313519E-01    0.453278E+00    0.905014E-01    0.362777E+00
   ------------------------------------------------------------------------

         :::::::::::::::::::::::::::::::::::::::::::::::::::::
         ::                  THERMODYNAMIC                  ::
         :::::::::::::::::::::::::::::::::::::::::::::::::::::
         :: total free energy        -101.916883500095 Eh   ::
         ::.................................................::
         :: total energy             -102.279660237217 Eh   ::
         :: zero point energy           0.421926228424 Eh   ::
         :: G(RRHO) w/o ZPVE           -0.059149491302 Eh   ::
         :: G(RRHO) contrib.            0.362776737122 Eh   ::
         :::::::::::::::::::::::::::::::::::::::::::::::::::::

           -------------------------------------------------
          | TOTAL ENERGY             -102.279660237217 Eh   |
          | TOTAL ENTHALPY           -101.826382060453 Eh   |
          | TOTAL FREE ENERGY        -101.916883500095 Eh   |
          | GRADIENT NORM               0.000169078251 Eh/α |
          | HOMO-LUMO GAP               0.907744729584 eV   |
           -------------------------------------------------

 * finished run on 2025/07/20 at 12:40:35.741
