   * xtb version 6.7.1 (edcfbbe) compiled by 'albert@albert-system' on 2024-07-22

   ID    Z sym.   atoms
    1    9 F      1, 3
    2    5 B      2
    3    8 O      4, 27
    4    6 C      5-19, 21-26, 28-35, 37
    5    7 N      20, 36, 38
    6    1 H      39-58

          program call               : xtb data2507/toluene/MBF/MBF_toluene_T1_crest.xyz --gfn 2 --uhf 2 --gbsa toluene --ohess vtight --parallel 40 --molden --ceasefiles --namespace data2507/toluene/MBF/MBF_toluene_T1_finalOpt
      * Solvation model:               GBSA
        Solvent                        toluene
        Solvent mass                       9.2140E+01 g/mol
          :  Hamiltonian                  GFN2-xTB          :
 * total energy  :  -102.2181962 Eh     change       -0.2991655E-08 Eh
 * total energy  :  -102.2187455 Eh     change       -0.5493600E-03 Eh
 * total energy  :  -102.2190453 Eh     change       -0.2997316E-03 Eh
 * total energy  :  -102.2190681 Eh     change       -0.2281904E-04 Eh
 * total energy  :  -102.2190804 Eh     change       -0.1230702E-04 Eh
 * total energy  :  -102.2190832 Eh     change       -0.2832830E-05 Eh
 * total energy  :  -102.2190826 Eh     change        0.6187996E-06 Eh
 * total energy  :  -102.2190853 Eh     change       -0.2696169E-05 Eh
 * total energy  :  -102.2190873 Eh     change       -0.2020917E-05 Eh
 * total energy  :  -102.2190907 Eh     change       -0.3370270E-05 Eh
 * total energy  :  -102.2192074 Eh     change       -0.1898557E-05 Eh
 * total energy  :  -102.2192088 Eh     change       -0.1443133E-05 Eh
 * total energy  :  -102.2192095 Eh     change       -0.6490170E-06 Eh
 * total energy  :  -102.2192100 Eh     change       -0.5158027E-06 Eh
 * total energy  :  -102.2192106 Eh     change       -0.6187458E-06 Eh
 * total energy  :  -102.2192112 Eh     change       -0.6181394E-06 Eh
 * total energy  :  -102.2192117 Eh     change       -0.4161634E-06 Eh
 * total energy  :  -102.2192118 Eh     change       -0.1930263E-06 Eh
 * total energy  :  -102.2192119 Eh     change       -0.9653166E-07 Eh
   *** GEOMETRY OPTIMIZATION CONVERGED AFTER 54 ITERATIONS ***

 final structure:
================
58
 xtb: 6.7.1 (edcfbbe)
F            5.20078660011306       -1.62174321916310        2.42220857724217
B            5.01269232007485       -1.74145183164459        1.02912424699095
F            5.22940323541742       -3.08476800454305        0.70242446364797
O            5.97580673924381       -0.91385204478771        0.32930425689525
C            5.64309770016240        0.23129768634443       -0.27502494906909
C            6.76511985019581        1.01396223227180       -0.77434613440951
C            6.60619064882410        2.12256031726336       -1.61828920543365
C            7.70403954823247        2.83231439050288       -2.06011923874057
C            8.98595937197019        2.46048378338516       -1.68110226306848
C            9.16078915152089        1.36134499900941       -0.85243462860835
C            8.06878963370617        0.64701914713703       -0.40698012595348
C            4.32462541632456        0.62014427950894       -0.41364299101773
C            3.25454688560112       -0.17313901036555        0.04536330287073
C            1.91817710125144        0.16465118087699       -0.12704588896220
C            0.90656042007443       -0.68067476969489        0.34220058983109
C           -0.49547902038083       -0.43524186816935        0.21505217626290
C           -1.41102662026438       -1.37683671869904        0.74043833348225
C           -2.76423854416414       -1.19348084584026        0.64026151776453
C           -3.27305736849135       -0.04633242836704        0.01590822168659
N           -4.66776749385287        0.15166784676277       -0.08682133267536
C           -5.44982780749254       -0.73683025660050       -0.80278372999018
C           -4.90808369042170       -1.82949481370605       -1.48733329819698
C           -5.72705383956024       -2.69395453768249       -2.18390202498191
C           -7.10186498774328       -2.48859934439405       -2.22829382637318
C           -7.65633655932775       -1.39681162616889       -1.58804678931233
C           -6.84217666426269       -0.51875713975626       -0.88465101485666
O           -7.43590209507843        0.55429986544278       -0.30182787318764
C           -6.65985338802536        1.42179017774872        0.39708654553298
C           -7.28949265404657        2.50456282074495        0.99696162361563
C           -6.55365960810482        3.39953778130676        1.74989569305567
C           -5.18767659752319        3.20260068401401        1.92188364556154
C           -4.55050355538524        2.13300111724634        1.32777262073668
C           -5.26755703998829        1.23324782847280        0.53270814088298
C           -2.38612341421022        0.90336431561359       -0.50374478761539
C           -1.03068639544383        0.71140922123158       -0.41279857382494
N            1.27132091513936       -1.86405601266332        0.96813162271054
C            2.51707368186997       -2.12477506480261        1.11278394261534
N            3.55084836236640       -1.36434347748889        0.69948926036445
H            5.62296766738476        2.42314705502189       -1.94256151953110
H            7.56222852630996        3.68301400898486       -2.71083099072093
H            9.84068936751877        3.02041246771080       -2.02989431986190
H           10.15450465134249        1.06120079761192       -0.55267598556800
H            8.19471267960414       -0.20773730262782        0.24057706210129
H            4.08075031975425        1.55551629161398       -0.88500081220547
H            1.69185912107417        1.08124897432017       -0.64632193333346
H           -1.00331891662269       -2.24402547641254        1.23434831321091
H           -3.44723678381132       -1.91386684220514        1.06573773974250
H           -3.84233960455788       -1.98828979954565       -1.47201978005944
H           -5.28960278914428       -3.53246929217450       -2.70216650747114
H           -7.73600898726039       -3.17036145396904       -2.77180815551359
H           -8.71524702614877       -1.19749644370610       -1.62074649895136
H           -8.35337259486740        2.61600503981675        0.86313485054681
H           -7.04415091122091        4.23978872594844        2.21436733515450
H           -4.61652607781036        3.88566378755634        2.53039762799023
H           -3.49505421234810        1.97807292777726        1.48057363977238
H           -2.77900595485908        1.77709766720259       -1.00296364422931
H           -0.37159715032112        1.44983622539357       -0.83908256991229
H            2.79598952436257       -3.04490451043552        1.60983928386817

          :  Hamiltonian                  GFN2-xTB          :
         :: gradient norm              0.000104293564 Eh/a0 ::
         :: HOMO-LUMO gap              0.609941719616 eV    ::
         :: SCC energy              -103.775052676121 Eh    ::
         :: -> dispersion             -0.073867042260 Eh    ::
         :: -> Gsolv                  -0.070216592855 Eh    ::
         :: repulsion energy           1.555840718268 Eh    ::

    * Orbital Energies and Occupations

         #    Occupation            Energy/Eh            Energy/eV
      -------------------------------------------------------------
         1        2.0000           -0.7727291             -21.0270
       ...           ...                  ...                  ...
        81        2.0000           -0.4367330             -11.8841
        82        2.0000           -0.4311370             -11.7318
        83        2.0000           -0.4228771             -11.5071
        84        2.0000           -0.4214233             -11.4675
        85        2.0000           -0.4202917             -11.4367
        86        2.0000           -0.4150842             -11.2950
        87        2.0000           -0.4124817             -11.2242
        88        2.0000           -0.4071389             -11.0788
        89        2.0000           -0.4067371             -11.0679
        90        1.9954           -0.3803943             -10.3511
        91        1.9492           -0.3780606             -10.2876
        92        1.0554           -0.3725857             -10.1386
        93        1.0000           -0.2960709              -8.0565 (HOMO)
        94        0.0000           -0.2736565              -7.4466 (LUMO)
        95        0.0000           -0.2704466              -7.3592
        96                         -0.2585355              -7.0351
        97                         -0.2454141              -6.6781
        98                         -0.2344794              -6.3805
        99                         -0.2321030              -6.3158
       100                         -0.2267955              -6.1714
       101                         -0.2232870              -6.0759
       102                         -0.2141762              -5.8280
       103                         -0.1687452              -4.5918
       104                         -0.1342818              -3.6540
       ...                                ...                  ...
       172                          0.6777909              18.4436
      -------------------------------------------------------------
                  HL-Gap            0.0224144 Eh            0.6099 eV

     #   Z          covCN         q      C6AA      α(0)
     1   9 F        0.720    -0.428    13.885     4.400
     2   5 B        3.073     0.600    13.493     6.127
     3   9 F        0.721    -0.420    13.784     4.384
     4   8 O        1.638    -0.377    20.424     6.100
     5   6 C        2.845     0.152    24.692     8.144
     6   6 C        2.970    -0.003    28.108     8.696
     7   6 C        2.921    -0.036    28.902     8.816
     8   6 C        2.917    -0.029    28.719     8.788
     9   6 C        2.919    -0.030    28.738     8.791
    10   6 C        2.916    -0.028    28.710     8.786
    11   6 C        2.925    -0.025    28.625     8.774
    12   6 C        2.904    -0.104    30.625     9.074
    13   6 C        2.928     0.081    26.187     8.392
    14   6 C        2.911    -0.061    29.518     8.909
    15   6 C        2.951     0.072    26.394     8.426
    16   6 C        2.973     0.004    27.931     8.669
    17   6 C        2.924    -0.033    28.821     8.804
    18   6 C        2.914    -0.037    28.917     8.818
    19   6 C        2.925     0.034    27.245     8.560
    20   7 N        2.752     0.017    20.953     6.798
    21   6 C        2.926     0.046    26.979     8.518
    22   6 C        2.919    -0.044    29.081     8.843
    23   6 C        2.917    -0.023    28.570     8.765
    24   6 C        2.918    -0.020    28.506     8.755
    25   6 C        2.915    -0.046    29.153     8.854
    26   6 C        2.888     0.138    24.997     8.197
    27   8 O        1.710    -0.197    17.288     5.614
    28   6 C        2.888     0.138    24.997     8.197
    29   6 C        2.915    -0.046    29.153     8.854
    30   6 C        2.918    -0.020    28.510     8.756
    31   6 C        2.917    -0.023    28.574     8.766
    32   6 C        2.919    -0.044    29.083     8.844
    33   6 C        2.926     0.045    26.982     8.519
    34   6 C        2.914    -0.038    28.936     8.821
    35   6 C        2.919    -0.040    28.985     8.829
    36   7 N        1.839    -0.279    28.079     7.853
    37   6 C        2.841     0.156    24.622     8.132
    38   7 N        2.671    -0.189    25.109     7.442
    39   1 H        0.926     0.042     2.426     2.436
    40   1 H        0.926     0.044     2.392     2.419
    41   1 H        0.926     0.043     2.413     2.429
    42   1 H        0.926     0.038     2.475     2.460
    43   1 H        0.926     0.039     2.459     2.452
    44   1 H        0.926     0.060     2.202     2.320
    45   1 H        0.926     0.054     2.269     2.356
    46   1 H        0.926     0.061     2.183     2.311
    47   1 H        0.926     0.051     2.306     2.374
    48   1 H        0.926     0.070     2.088     2.260
    49   1 H        0.926     0.068     2.111     2.272
    50   1 H        0.926     0.070     2.081     2.256
    51   1 H        0.926     0.077     2.015     2.220
    52   1 H        0.926     0.076     2.016     2.220
    53   1 H        0.926     0.070     2.082     2.257
    54   1 H        0.926     0.068     2.111     2.272
    55   1 H        0.926     0.069     2.094     2.263
    56   1 H        0.926     0.051     2.305     2.374
    57   1 H        0.926     0.045     2.384     2.415
    58   1 H        0.925     0.040     2.446     2.446

molecular dipole:
                 x           y           z       tot (Debye)
 q only:      -11.020       3.575      -2.266
   full:      -10.613       3.578      -2.251      29.035

 projected vibrational frequencies (cm⁻¹)
eigval :       -0.00    -0.00     0.00     0.00     0.00     0.00
eigval :       14.25    15.06    27.09    33.85    36.37    47.87
eigval :       51.29    55.09    74.42    75.01   107.94   111.34
eigval :      116.17   124.18   145.59   159.67   186.78   220.39
eigval :      230.25   232.61   244.90   270.10   280.05   287.54
eigval :      301.95   321.34   329.99   368.51   370.27   377.62
eigval :      380.49   382.31   400.60   416.22   429.15   433.49
eigval :      438.08   446.26   466.72   478.87   486.49   488.94
eigval :      503.83   531.84   537.38   550.42   552.08   567.74
eigval :      583.03   586.80   599.45   607.09   609.34   646.11
eigval :      651.62   655.83   665.95   670.71   673.92   682.38
eigval :      691.01   747.26   755.05   756.69   776.80   780.21
eigval :      795.62   802.10   802.77   843.65   850.31   858.33
eigval :      860.57   866.96   873.41   875.91   881.09   891.18
eigval :      894.52   895.14   901.89   909.11   910.84   913.67
eigval :      914.30   918.70   918.99   923.86   925.01   930.85
eigval :      932.35   975.41   993.74  1033.33  1060.30  1076.42
eigval :     1079.68  1080.95  1081.66  1117.58  1120.65  1121.68
eigval :     1123.55  1149.43  1167.38  1169.35  1176.33  1178.51
eigval :     1191.41  1196.99  1213.75  1216.98  1235.02  1238.17
eigval :     1241.27  1249.04  1250.68  1279.32  1281.16  1287.70
eigval :     1292.63  1303.28  1320.20  1323.57  1328.59  1333.08
eigval :     1337.98  1343.68  1383.05  1407.29  1413.32  1416.23
eigval :     1425.72  1431.08  1435.00  1450.59  1458.00  1469.04
eigval :     1479.66  1494.08  1540.46  1551.10  1555.01  1555.80
eigval :     1560.08  1574.18  1579.92  1596.21  3055.72  3073.50
eigval :     3075.66  3081.33  3083.52  3089.10  3096.15  3101.91
eigval :     3102.12  3102.75  3102.94  3109.33  3109.77  3109.95
eigval :     3113.68  3117.85  3118.67  3121.70  3121.94  3132.40

   temp. (K)  partition function   enthalpy   heat capacity  entropy
                                   cal/mol     cal/K/mol   cal/K/mol   J/K/mol
 298.15  VIB  0.165E+14            17444.625    110.979    107.558
         ROT  0.591E+08              888.752      2.981     38.543
         INT  0.974E+21            18333.377    113.960    146.101
         TR   0.109E+29             1481.254      4.968     44.515
         TOT                       19814.6309   118.9279   190.6159   797.5371

       T/K    H(0)-H(T)+PV         H(T)/Eh          T*S/Eh         G(T)/Eh
   ------------------------------------------------------------------------
    298.15    0.315766E-01    0.450543E+00    0.905678E-01    0.359975E+00
   ------------------------------------------------------------------------

         :::::::::::::::::::::::::::::::::::::::::::::::::::::
         ::                  THERMODYNAMIC                  ::
         :::::::::::::::::::::::::::::::::::::::::::::::::::::
         :: total free energy        -101.859236748506 Eh   ::
         ::.................................................::
         :: total energy             -102.219211959532 Eh   ::
         :: zero point energy           0.418966374839 Eh   ::
         :: G(RRHO) w/o ZPVE           -0.058991163814 Eh   ::
         :: G(RRHO) contrib.            0.359975211025 Eh   ::
         :::::::::::::::::::::::::::::::::::::::::::::::::::::

           -------------------------------------------------
          | TOTAL ENERGY             -102.219211959532 Eh   |
          | TOTAL ENTHALPY           -101.768668960420 Eh   |
          | TOTAL FREE ENERGY        -101.859236748506 Eh   |
          | GRADIENT NORM               0.000107921297 Eh/α |
          | HOMO-LUMO GAP               0.609927961157 eV   |
           -------------------------------------------------

 * finished run on 2025/07/20 at 12:44:11.313
