   * xtb version 6.7.1 (edcfbbe) compiled by 'albert@albert-system' on 2024-07-22

   ID    Z sym.   atoms
    1    9 F      1, 3
    2    5 B      2
    3    8 O      4, 27
    4    6 C      5-19, 21-26, 28-35, 37
    5    7 N      20, 36, 38
    6    1 H      39-58

          program call               : xtb data2507/toluene/MBF/MBF_toluene_S0_finalOpt.xtbopt.xyz --gfn 2 --uhf 2 --gbsa toluene --ohess vtight --parallel 40 --molden --ceasefiles --namespace data2507/toluene/MBF/MBF_toluene_T1_preOpt
      * Solvation model:               GBSA
        Solvent                        toluene
        Solvent mass                       9.2140E+01 g/mol
          :  Hamiltonian                  GFN2-xTB          :
 * total energy  :  -102.2140522 Eh     change       -0.6475744E-09 Eh
 * total energy  :  -102.2172753 Eh     change       -0.3223093E-02 Eh
 * total energy  :  -102.2182810 Eh     change       -0.1005747E-02 Eh
 * total energy  :  -102.2183740 Eh     change       -0.9294167E-04 Eh
 * total energy  :  -102.2184345 Eh     change       -0.6047359E-04 Eh
 * total energy  :  -102.2184566 Eh     change       -0.2212048E-04 Eh
 * total energy  :  -102.2184850 Eh     change       -0.2841752E-04 Eh
 * total energy  :  -102.2185099 Eh     change       -0.2487531E-04 Eh
 * total energy  :  -102.2185315 Eh     change       -0.2161105E-04 Eh
 * total energy  :  -102.2185519 Eh     change       -0.2037170E-04 Eh
 * total energy  :  -102.2190683 Eh     change       -0.1477397E-05 Eh
 * total energy  :  -102.2190698 Eh     change       -0.1444388E-05 Eh
 * total energy  :  -102.2190712 Eh     change       -0.1488198E-05 Eh
 * total energy  :  -102.2190727 Eh     change       -0.1483751E-05 Eh
 * total energy  :  -102.2190743 Eh     change       -0.1532678E-05 Eh
 * total energy  :  -102.2190759 Eh     change       -0.1629338E-05 Eh
 * total energy  :  -102.2190776 Eh     change       -0.1725674E-05 Eh
 * total energy  :  -102.2190793 Eh     change       -0.1701584E-05 Eh
 * total energy  :  -102.2190793 Eh     change       -0.4161663E-08 Eh
   *** GEOMETRY OPTIMIZATION CONVERGED AFTER 68 ITERATIONS ***

 final structure:
================
58
 xtb: 6.7.1 (edcfbbe)
F            5.21179504417589        1.97657315817673       -2.47310539956493
B            5.00403938697099        1.72454185598849       -1.11111837751906
F            5.19515229418914        2.94670257114855       -0.43469204446603
O            5.97484523498439        0.75210506661192       -0.64624894608946
C            5.64318728952326       -0.30877560536532        0.09497868594517
C            6.76693937462106       -1.10006368877939        0.57791183311204
C            6.61483068506473       -2.39063824420331        1.10379268562571
C            7.71175173418337       -3.10288203545662        1.54417130663999
C            8.98451720108098       -2.55488202774327        1.47385553104553
C            9.15218480571632       -1.28145020786355        0.94872734782959
C            8.06122679027183       -0.56439363889711        0.50452379255501
C            4.32715088730345       -0.61364353272882        0.38181129579310
C            3.25340447109365        0.15365564951368       -0.11230987737151
C            1.91896867130940       -0.15226398131148        0.12085179885564
C            0.90303721008735        0.63196373471033       -0.43796109258394
C           -0.49749840541963        0.40104811765939       -0.27508499591496
C           -1.41858286493115        1.25852449685186       -0.92142590374270
C           -2.77060209687346        1.07796614581071       -0.80291781088807
C           -3.27288481528300        0.01727754574468       -0.03642869029419
N           -4.66656711948689       -0.18330220681863        0.07755596900429
C           -5.46584406091017        0.78043354855160        0.66498420356069
C           -4.94075153958383        1.95172051321123        1.22022038928027
C           -5.77566187877004        2.89004220332879        1.79060009230001
C           -7.15040661910987        2.68347027832829        1.83468429724565
C           -7.68902409442488        1.51821912724733        1.32335993746421
C           -6.85850937965522        0.56508166315961        0.74864676060223
O           -7.43628647475670       -0.57553365847940        0.29217417789948
C           -6.64210012026886       -1.52105896234782       -0.27206209864187
C           -7.25443218063633       -2.67822458756180       -0.73545474051840
C           -6.49945015721531       -3.65963509986006       -1.34863644155528
C           -5.13123761228843       -3.47709373418604       -1.51908497238286
C           -4.51129826793477       -2.33330570195013       -1.06046258467306
C           -5.24828429031415       -1.34144728460022       -0.40544151188761
C           -2.38066219642312       -0.84436057784987        0.61179432494578
C           -1.02653221546919       -0.65354195851809        0.50210998450832
N            1.26248912651959        1.72422912065498       -1.21436396074184
C            2.50704161313648        1.97139470903250       -1.38917078487734
N            3.54482752787572        1.26551867554943       -0.89544712751171
H            5.63886329979259       -2.84685572197941        1.14796513008215
H            7.57661977780099       -4.09791627696874        1.94261919884914
H            9.83869774343590       -3.11686316915187        1.82082724974428
H           10.13935184908914       -0.84678034667108        0.88635986112443
H            8.18064945944389        0.42793436792925        0.09597811606738
H            4.08995036440151       -1.45693693849338        1.00582733096119
H            1.69720235609983       -1.00665533788595        0.73873549842219
H           -1.01605552672298        2.05655449846685       -1.52404035343513
H           -3.45731569668708        1.73045421316972       -1.32172277386958
H           -3.87536854490755        2.11310819030256        1.20390237472718
H           -5.35135214219171        3.78844215298081        2.21002068343277
H           -7.79692249755061        3.42354182149620        2.27814393328584
H           -8.74763852201171        1.31797166417064        1.36121651703109
H           -8.32011863585234       -2.77902246971719       -0.60786161620963
H           -6.97630300746633       -4.55824156033542       -1.70566196959076
H           -4.54449967956004       -4.23144156535386       -2.01885113779435
H           -3.45377540443448       -2.19207655132711       -1.21208897135446
H           -2.76881456687414       -1.64632666647527        1.22263166360054
H           -0.36362779490441       -1.31981186692264        1.02938733522619
H            2.78196726206894        2.82640771821881       -1.99324921697963

          :  Hamiltonian                  GFN2-xTB          :
         :: gradient norm              0.000080452915 Eh/a0 ::
         :: HOMO-LUMO gap              0.597486101054 eV    ::
         :: SCC energy              -103.775091573767 Eh    ::
         :: -> dispersion             -0.073862291262 Eh    ::
         :: -> Gsolv                  -0.070305789410 Eh    ::
         :: repulsion energy           1.556012249909 Eh    ::

    * Orbital Energies and Occupations

         #    Occupation            Energy/Eh            Energy/eV
      -------------------------------------------------------------
         1        2.0000           -0.7729351             -21.0326
       ...           ...                  ...                  ...
        81        2.0000           -0.4365723             -11.8797
        82        2.0000           -0.4311353             -11.7318
        83        2.0000           -0.4229777             -11.5098
        84        2.0000           -0.4215654             -11.4714
        85        2.0000           -0.4200896             -11.4312
        86        2.0000           -0.4152585             -11.2998
        87        2.0000           -0.4123986             -11.2219
        88        2.0000           -0.4070767             -11.0771
        89        2.0000           -0.4067868             -11.0692
        90        1.9935           -0.3800704             -10.3422
        91        1.9433           -0.3779646             -10.2849
        92        1.0632           -0.3727308             -10.1425
        93        1.0000           -0.2957565              -8.0479 (HOMO)
        94        0.0000           -0.2737985              -7.4504 (LUMO)
        95        0.0000           -0.2699921              -7.3469
        96                         -0.2586283              -7.0376
        97                         -0.2454650              -6.6794
        98                         -0.2342573              -6.3745
        99                         -0.2319310              -6.3112
       100                         -0.2268311              -6.1724
       101                         -0.2235548              -6.0832
       102                         -0.2142775              -5.8308
       103                         -0.1690126              -4.5991
       104                         -0.1343898              -3.6569
       ...                                ...                  ...
       172                          0.6779470              18.4479
      -------------------------------------------------------------
                  HL-Gap            0.0219580 Eh            0.5975 eV

     #   Z          covCN         q      C6AA      α(0)
     1   9 F        0.721    -0.421    13.797     4.386
     2   5 B        3.073     0.600    13.495     6.127
     3   9 F        0.720    -0.427    13.876     4.399
     4   8 O        1.638    -0.377    20.414     6.099
     5   6 C        2.845     0.153    24.683     8.142
     6   6 C        2.971    -0.003    28.104     8.696
     7   6 C        2.921    -0.036    28.899     8.816
     8   6 C        2.917    -0.029    28.717     8.788
     9   6 C        2.919    -0.029    28.735     8.791
    10   6 C        2.916    -0.028    28.708     8.786
    11   6 C        2.925    -0.025    28.620     8.773
    12   6 C        2.904    -0.105    30.638     9.076
    13   6 C        2.928     0.081    26.186     8.392
    14   6 C        2.911    -0.061    29.524     8.910
    15   6 C        2.951     0.072    26.398     8.427
    16   6 C        2.972     0.004    27.935     8.670
    17   6 C        2.924    -0.033    28.824     8.804
    18   6 C        2.914    -0.037    28.916     8.818
    19   6 C        2.925     0.033    27.255     8.561
    20   7 N        2.752     0.018    20.946     6.797
    21   6 C        2.927     0.046    26.977     8.518
    22   6 C        2.919    -0.043    29.076     8.842
    23   6 C        2.917    -0.023    28.568     8.765
    24   6 C        2.918    -0.020    28.503     8.755
    25   6 C        2.915    -0.046    29.152     8.854
    26   6 C        2.888     0.138    24.996     8.197
    27   8 O        1.710    -0.197    17.282     5.613
    28   6 C        2.888     0.138    24.995     8.197
    29   6 C        2.915    -0.046    29.152     8.854
    30   6 C        2.918    -0.020    28.508     8.756
    31   6 C        2.917    -0.023    28.572     8.765
    32   6 C        2.919    -0.044    29.083     8.843
    33   6 C        2.926     0.045    26.980     8.518
    34   6 C        2.914    -0.038    28.939     8.821
    35   6 C        2.919    -0.040    28.990     8.829
    36   7 N        1.838    -0.280    28.099     7.856
    37   6 C        2.841     0.156    24.621     8.132
    38   7 N        2.671    -0.190    25.117     7.443
    39   1 H        0.926     0.042     2.423     2.434
    40   1 H        0.926     0.045     2.389     2.417
    41   1 H        0.926     0.043     2.410     2.427
    42   1 H        0.926     0.038     2.471     2.458
    43   1 H        0.926     0.039     2.464     2.455
    44   1 H        0.926     0.060     2.200     2.320
    45   1 H        0.926     0.054     2.271     2.357
    46   1 H        0.926     0.061     2.187     2.312
    47   1 H        0.926     0.051     2.311     2.377
    48   1 H        0.926     0.070     2.089     2.260
    49   1 H        0.926     0.068     2.110     2.272
    50   1 H        0.926     0.070     2.080     2.255
    51   1 H        0.926     0.077     2.013     2.219
    52   1 H        0.926     0.077     2.014     2.219
    53   1 H        0.926     0.070     2.081     2.256
    54   1 H        0.926     0.068     2.109     2.271
    55   1 H        0.926     0.069     2.091     2.261
    56   1 H        0.926     0.051     2.307     2.375
    57   1 H        0.926     0.045     2.387     2.416
    58   1 H        0.925     0.040     2.452     2.449

molecular dipole:
                 x           y           z       tot (Debye)
 q only:      -11.009      -3.715       2.214
   full:      -10.600      -3.694       2.227      29.089

 projected vibrational frequencies (cm⁻¹)
eigval :       -0.00    -0.00    -0.00    -0.00    -0.00     0.00
eigval :       10.40    17.43    26.23    31.46    34.89    47.11
eigval :       52.04    55.12    66.74    73.21   106.50   110.90
eigval :      113.86   122.18   146.50   159.29   186.07   219.65
eigval :      230.48   231.84   243.90   269.49   278.63   286.98
eigval :      300.95   323.41   326.75   367.09   368.54   374.32
eigval :      378.07   382.88   399.89   417.06   429.71   433.01
eigval :      436.95   445.57   465.50   478.63   485.19   488.38
eigval :      504.27   529.66   537.08   548.62   552.23   567.55
eigval :      582.95   586.61   600.61   606.65   609.28   646.87
eigval :      650.81   656.11   665.81   667.44   673.11   681.96
eigval :      690.81   744.21   754.55   756.92   775.56   780.74
eigval :      788.92   799.90   802.15   842.68   852.74   858.30
eigval :      860.44   866.69   871.22   875.69   883.90   890.29
eigval :      892.19   894.86   899.61   908.77   910.74   913.03
eigval :      913.60   917.94   921.99   922.90   926.42   927.08
eigval :      929.61   975.84   992.77  1032.55  1061.26  1076.73
eigval :     1079.45  1080.87  1081.18  1117.63  1120.44  1121.56
eigval :     1122.96  1149.51  1167.23  1169.27  1175.73  1177.66
eigval :     1191.25  1196.10  1213.54  1216.81  1234.98  1236.34
eigval :     1240.25  1248.64  1250.28  1278.48  1280.65  1287.93
eigval :     1292.39  1303.12  1320.17  1323.38  1328.03  1333.20
eigval :     1338.10  1343.86  1383.37  1407.38  1413.55  1415.95
eigval :     1425.89  1430.72  1435.21  1450.93  1457.91  1469.17
eigval :     1478.55  1494.32  1540.26  1550.55  1555.58  1555.84
eigval :     1559.82  1574.26  1579.93  1597.17  3055.42  3073.19
eigval :     3075.82  3081.21  3083.87  3088.53  3095.67  3100.85
eigval :     3102.04  3102.45  3103.39  3109.48  3109.58  3110.91
eigval :     3114.42  3118.19  3118.84  3121.35  3122.00  3131.11

   temp. (K)  partition function   enthalpy   heat capacity  entropy
                                   cal/mol     cal/K/mol   cal/K/mol   J/K/mol
 298.15  VIB  0.266E+14            17493.138    110.928    108.149
         ROT  0.591E+08              888.752      2.981     38.542
         INT  0.157E+22            18381.891    113.909    146.691
         TR   0.109E+29             1481.254      4.968     44.515
         TOT                       19863.1447   118.8769   191.2061   800.0065

       T/K    H(0)-H(T)+PV         H(T)/Eh          T*S/Eh         G(T)/Eh
   ------------------------------------------------------------------------
    298.15    0.316539E-01    0.450426E+00    0.908482E-01    0.359578E+00
   ------------------------------------------------------------------------

         :::::::::::::::::::::::::::::::::::::::::::::::::::::
         ::                  THERMODYNAMIC                  ::
         :::::::::::::::::::::::::::::::::::::::::::::::::::::
         :: total free energy        -101.859501349954 Eh   ::
         ::.................................................::
         :: total energy             -102.219079326175 Eh   ::
         :: zero point energy           0.418772244088 Eh   ::
         :: G(RRHO) w/o ZPVE           -0.059194267866 Eh   ::
         :: G(RRHO) contrib.            0.359577976222 Eh   ::
         :::::::::::::::::::::::::::::::::::::::::::::::::::::

           -------------------------------------------------
          | TOTAL ENERGY             -102.219079326175 Eh   |
          | TOTAL ENTHALPY           -101.768653146135 Eh   |
          | TOTAL FREE ENERGY        -101.859501349954 Eh   |
          | GRADIENT NORM               0.000080620521 Eh/α |
          | HOMO-LUMO GAP               0.597507620789 eV   |
           -------------------------------------------------

 * finished run on 2025/07/20 at 12:40:41.244
