   * xtb version 6.7.1 (edcfbbe) compiled by 'albert@albert-system' on 2024-07-22

   ID    Z sym.   atoms
    1    9 F      1, 3
    2    5 B      2
    3    8 O      4, 27
    4    6 C      5-19, 21-26, 28-35, 37
    5    7 N      20, 36, 38
    6    1 H      39-58

          program call               : xtb data2507/toluene/MBF/MBF.xyz --gfn 2 --gbsa toluene --ohess vtight --parallel 40 --molden --ceasefiles --namespace data2507/toluene/MBF/MBF_toluene_S0_preOpt
      * Solvation model:               GBSA
        Solvent                        toluene
        Solvent mass                       9.2140E+01 g/mol
          :  Hamiltonian                  GFN2-xTB          :
 * total energy  :  -102.2435770 Eh     change       -0.1072522E-08 Eh
 * total energy  :  -102.2683968 Eh     change       -0.2481980E-01 Eh
 * total energy  :  -102.2768273 Eh     change       -0.8430565E-02 Eh
 * total energy  :  -102.2779922 Eh     change       -0.1164910E-02 Eh
 * total energy  :  -102.2784178 Eh     change       -0.4255311E-03 Eh
 * total energy  :  -102.2785899 Eh     change       -0.1720817E-03 Eh
 * total energy  :  -102.2787339 Eh     change       -0.1440030E-03 Eh
 * total energy  :  -102.2788208 Eh     change       -0.8693727E-04 Eh
 * total energy  :  -102.2788768 Eh     change       -0.5601186E-04 Eh
 * total energy  :  -102.2789071 Eh     change       -0.3029993E-04 Eh
 * total energy  :  -102.2796548 Eh     change       -0.4111067E-06 Eh
 * total energy  :  -102.2796551 Eh     change       -0.3120813E-06 Eh
 * total energy  :  -102.2796553 Eh     change       -0.1891926E-06 Eh
 * total energy  :  -102.2796554 Eh     change       -0.1494620E-06 Eh
 * total energy  :  -102.2796557 Eh     change       -0.2075058E-06 Eh
 * total energy  :  -102.2796559 Eh     change       -0.2734258E-06 Eh
 * total energy  :  -102.2796563 Eh     change       -0.3502870E-06 Eh
 * total energy  :  -102.2796566 Eh     change       -0.3504519E-06 Eh
 * total energy  :  -102.2796566 Eh     change       -0.7170954E-08 Eh
   *** GEOMETRY OPTIMIZATION CONVERGED AFTER 94 ITERATIONS ***

 final structure:
================
58
 xtb: 6.7.1 (edcfbbe)
F            5.23465753849283        2.75580365252089       -2.36865146234715
B            5.08418189284950        2.42581300276083       -1.02842051793888
F            5.19483230124237        3.58922902849165       -0.27386578937769
O            6.09612466290582        1.46787997771489       -0.62798209180169
C            5.82455755742267        0.28838673732118       -0.10950874091489
C            6.99845361057291       -0.50886761863608        0.26837590358469
C            6.95104284586867       -1.90225420577913        0.34739268965621
C            8.07813783104260       -2.61644021099910        0.70766291410916
C            9.26297254803662       -1.95717790065747        0.99721021305306
C            9.32176644575181       -0.57478151051701        0.91360849866796
C            8.20091021385483        0.14498379293115        0.54693842820658
C            4.54048994872808       -0.15866689858833        0.08585398765849
C            3.42614268446356        0.62672379546566       -0.27680638502848
C            2.09889384134772        0.20389829444683       -0.10007390055047
C            1.06146899423320        1.04050301460007       -0.47704178072820
C           -0.34812380405207        0.71302418878983       -0.32562928624157
C           -1.30218457046383        1.47037945202144       -1.01627815739023
C           -2.64522316715818        1.19028627342402       -0.90282135421108
C           -3.07909086855044        0.14216639936595       -0.08845270713441
N           -4.44743339834846       -0.14872178944999        0.03211686162646
C           -5.34704397172316        0.81991753513273        0.49526197349570
C           -4.93395744186256        2.07717067771164        0.92207502318858
C           -5.85042205616435        3.01001394826114        1.38179355506361
C           -7.19513265486480        2.70056901110550        1.43786955991904
C           -7.61990464994569        1.43750070253132        1.05521604666135
C           -6.70823234910452        0.50264854369374        0.59745781653769
O           -7.20381341631533       -0.73847875722523        0.27869929446906
C           -6.30978194320952       -1.68063923596028       -0.16826292682432
C           -6.82631977203822       -2.92111895410286       -0.49839657209002
C           -5.99757177926919       -3.91453680871086       -0.99693793887648
C           -4.65557904904084       -3.64779165865440       -1.18413842563408
C           -4.13347499841959       -2.40744016299824       -0.85168866641170
C           -4.94153090041735       -1.41335261263972       -0.31096919189685
C           -2.13414737262049       -0.61102625937039        0.61126336548757
C           -0.79057309886770       -0.32996144298220        0.49575267849906
N            1.33811470361435        2.24906408750748       -1.04025554894986
C            2.57301735277901        2.59188858958798       -1.18456727219608
N            3.63506571906862        1.85546222167220       -0.82513732943189
H            6.04360161695124       -2.42883918219320        0.09860459433072
H            8.03448899722960       -3.69401452956952        0.75953620535393
H           10.13975781918381       -2.51958908090267        1.28113664886791
H           10.24307706868430       -0.05626211506546        1.13318025244159
H            8.23283986848341        1.22196220448812        0.47871901858077
H            4.35840533567688       -1.11415202973707        0.54258843068280
H            1.92493090604475       -0.77325752591320        0.31608154561071
H           -0.96016300207274        2.27060629774789       -1.65277169767129
H           -3.36998339699493        1.76984815794438       -1.45450057793841
H           -3.88588812951228        2.32935492780169        0.90596734015611
H           -5.49946619552049        3.97974470280332        1.69936387454905
H           -7.91342740643458        3.42435075140932        1.78925616911851
H           -8.65874998389654        1.15216966178513        1.10994151373266
H           -7.88405905202638       -3.08457046135912       -0.36384428713697
H           -6.40842561449338       -4.87969866761106       -1.24783474784615
H           -4.00196908900164       -4.40124489181824       -1.59598194088102
H           -3.08816222131467       -2.20901723270150       -1.02543080252600
H           -2.46781292774729       -1.40629537345196        1.26099837560391
H           -0.08659482634266       -0.90536202924701        1.07498819826347
H            2.79631080325700        3.55221151580059       -1.62865987720424

          :  Hamiltonian                  GFN2-xTB          :
         :: gradient norm              0.000050224057 Eh/a0 ::
         :: HOMO-LUMO gap              0.909704961186 eV    ::
         :: SCC energy              -103.849916852531 Eh    ::
         :: -> dispersion             -0.073872492027 Eh    ::
         :: -> Gsolv                  -0.050727272178 Eh    ::
         :: repulsion energy           1.570260213955 Eh    ::

    * Orbital Energies and Occupations

         #    Occupation            Energy/Eh            Energy/eV
      -------------------------------------------------------------
         1        2.0000           -0.7879166             -21.4403
       ...           ...                  ...                  ...
        80        2.0000           -0.4363741             -11.8743
        81        2.0000           -0.4333081             -11.7909
        82        2.0000           -0.4322825             -11.7630
        83        2.0000           -0.4283496             -11.6560
        84        2.0000           -0.4242360             -11.5441
        85        2.0000           -0.4215270             -11.4703
        86        2.0000           -0.4197176             -11.4211
        87        2.0000           -0.4195779             -11.4173
        88        2.0000           -0.4165586             -11.3351
        89        2.0000           -0.4065199             -11.0620
        90        2.0000           -0.4002344             -10.8909
        91        2.0000           -0.3941576             -10.7256
        92        2.0000           -0.3493527              -9.5064 (HOMO)
        93                         -0.3159217              -8.5967 (LUMO)
        94                         -0.2916217              -7.9354
        95                         -0.2548335              -6.9344
        96                         -0.2438936              -6.6367
        97                         -0.2424848              -6.5983
        98                         -0.2368418              -6.4448
        99                         -0.2344270              -6.3791
       100                         -0.2336517              -6.3580
       101                         -0.2183187              -5.9408
       102                         -0.2006390              -5.4597
       103                         -0.1886302              -5.1329
       ...                                ...                  ...
       172                          0.6705955              18.2478
      -------------------------------------------------------------
                  HL-Gap            0.0334310 Eh            0.9097 eV

     #   Z          covCN         q      C6AA      α(0)
     1   9 F        0.721    -0.400    13.536     4.345
     2   5 B        3.071     0.597    13.520     6.133
     3   9 F        0.721    -0.402    13.556     4.348
     4   8 O        1.639    -0.338    19.698     5.991
     5   6 C        2.848     0.181    24.118     8.049
     6   6 C        2.974     0.001    28.007     8.681
     7   6 C        2.921    -0.029    28.724     8.789
     8   6 C        2.918    -0.024    28.610     8.771
     9   6 C        2.920    -0.020    28.511     8.756
    10   6 C        2.917    -0.024    28.605     8.770
    11   6 C        2.925    -0.018    28.464     8.749
    12   6 C        2.905    -0.118    31.001     9.130
    13   6 C        2.939     0.106    25.658     8.308
    14   6 C        2.914    -0.066    29.644     8.928
    15   6 C        2.963     0.110    25.563     8.293
    16   6 C        2.977     0.003    27.963     8.674
    17   6 C        2.924    -0.022    28.548     8.762
    18   6 C        2.918    -0.038    28.939     8.822
    19   6 C        2.920     0.071    26.404     8.426
    20   7 N        2.750    -0.059    22.386     7.027
    21   6 C        2.921     0.040    27.098     8.536
    22   6 C        2.924    -0.059    29.468     8.902
    23   6 C        2.919    -0.038    28.938     8.822
    24   6 C        2.919    -0.039    28.958     8.824
    25   6 C        2.919    -0.057    29.406     8.893
    26   6 C        2.883     0.124    25.272     8.242
    27   8 O        1.709    -0.266    18.413     5.794
    28   6 C        2.883     0.124    25.269     8.241
    29   6 C        2.919    -0.057    29.407     8.893
    30   6 C        2.919    -0.039    28.962     8.825
    31   6 C        2.919    -0.038    28.945     8.823
    32   6 C        2.924    -0.059    29.475     8.903
    33   6 C        2.921     0.040    27.098     8.536
    34   6 C        2.919    -0.039    28.972     8.827
    35   6 C        2.920    -0.028    28.702     8.786
    36   7 N        1.842    -0.238    27.079     7.712
    37   6 C        2.860     0.150    24.740     8.153
    38   7 N        2.671    -0.136    23.960     7.270
    39   1 H        0.926     0.055     2.263     2.352
    40   1 H        0.926     0.055     2.261     2.352
    41   1 H        0.926     0.053     2.280     2.361
    42   1 H        0.926     0.049     2.328     2.386
    43   1 H        0.926     0.049     2.328     2.386
    44   1 H        0.926     0.081     1.964     2.191
    45   1 H        0.926     0.082     1.959     2.189
    46   1 H        0.926     0.069     2.098     2.265
    47   1 H        0.926     0.057     2.234     2.337
    48   1 H        0.926     0.045     2.377     2.411
    49   1 H        0.926     0.044     2.393     2.419
    50   1 H        0.926     0.044     2.392     2.418
    51   1 H        0.926     0.050     2.318     2.381
    52   1 H        0.926     0.050     2.320     2.382
    53   1 H        0.926     0.044     2.392     2.418
    54   1 H        0.926     0.044     2.390     2.417
    55   1 H        0.926     0.045     2.379     2.412
    56   1 H        0.926     0.058     2.225     2.333
    57   1 H        0.926     0.058     2.219     2.329
    58   1 H        0.925     0.068     2.106     2.269

molecular dipole:
                 x           y           z       tot (Debye)
 q only:       -1.869      -3.366       1.406
   full:       -1.599      -3.332       1.413      10.056

 projected vibrational frequencies (cm⁻¹)
eigval :       -0.00    -0.00    -0.00     0.00     0.00     0.00
eigval :       11.46    16.94    21.57    37.01    38.67    45.90
eigval :       56.76    59.76    65.28    69.56   104.11   111.37
eigval :      114.27   128.09   156.32   179.22   184.18   214.90
eigval :      230.84   233.12   252.46   267.95   274.76   285.10
eigval :      293.21   316.83   342.51   359.39   368.36   374.13
eigval :      378.71   396.60   404.32   420.53   431.45   435.39
eigval :      445.27   456.87   465.09   480.52   491.88   508.08
eigval :      509.56   524.80   546.26   561.86   571.30   585.74
eigval :      587.02   606.93   607.36   616.43   644.13   650.77
eigval :      660.73   664.04   668.80   671.51   693.58   695.86
eigval :      724.08   763.23   768.00   778.51   779.17   780.18
eigval :      801.80   823.76   831.77   838.55   854.30   862.25
eigval :      866.85   872.91   874.07   875.10   898.60   899.49
eigval :      902.81   905.32   910.73   914.51   915.69   919.76
eigval :      929.16   930.02   931.84   934.28   939.27   944.07
eigval :      963.10   986.47  1011.40  1058.57  1080.12  1081.04
eigval :     1089.42  1090.63  1099.72  1107.08  1118.52  1121.94
eigval :     1133.03  1168.18  1172.71  1173.58  1178.33  1182.54
eigval :     1189.72  1196.20  1199.84  1219.46  1240.37  1242.37
eigval :     1248.91  1258.00  1265.62  1267.74  1275.89  1303.61
eigval :     1306.82  1315.00  1322.60  1330.72  1336.65  1348.35
eigval :     1355.92  1383.25  1401.01  1418.76  1423.35  1437.26
eigval :     1440.98  1459.13  1470.79  1474.48  1478.53  1497.79
eigval :     1542.03  1549.97  1561.94  1566.63  1576.66  1577.38
eigval :     1586.61  1588.18  1594.22  1599.49  3075.73  3081.39
eigval :     3085.76  3088.99  3090.05  3090.94  3093.63  3094.43
eigval :     3097.55  3098.36  3099.20  3105.18  3106.76  3107.19
eigval :     3107.85  3112.04  3112.85  3115.01  3126.09  3146.10

   temp. (K)  partition function   enthalpy   heat capacity  entropy
                                   cal/mol     cal/K/mol   cal/K/mol   J/K/mol
 298.15  VIB  0.170E+14            17271.960    109.682    106.946
         ROT  0.591E+08              888.752      2.981     38.542
         INT  0.100E+22            18160.712    112.663    145.488
         TR   0.109E+29             1481.254      4.968     44.515
         TOT                       19641.9660   117.6314   190.0027   794.9711

       T/K    H(0)-H(T)+PV         H(T)/Eh          T*S/Eh         G(T)/Eh
   ------------------------------------------------------------------------
    298.15    0.313015E-01    0.453376E+00    0.902764E-01    0.363099E+00
   ------------------------------------------------------------------------

         :::::::::::::::::::::::::::::::::::::::::::::::::::::
         ::                  THERMODYNAMIC                  ::
         :::::::::::::::::::::::::::::::::::::::::::::::::::::
         :: total free energy        -101.916557264991 Eh   ::
         ::.................................................::
         :: total energy             -102.279656639592 Eh   ::
         :: zero point energy           0.422074300429 Eh   ::
         :: G(RRHO) w/o ZPVE           -0.058974925827 Eh   ::
         :: G(RRHO) contrib.            0.363099374601 Eh   ::
         :::::::::::::::::::::::::::::::::::::::::::::::::::::

           -------------------------------------------------
          | TOTAL ENERGY             -102.279656639592 Eh   |
          | TOTAL ENTHALPY           -101.826280873972 Eh   |
          | TOTAL FREE ENERGY        -101.916557264991 Eh   |
          | GRADIENT NORM               0.000050249785 Eh/α |
          | HOMO-LUMO GAP               0.909703837225 eV   |
           -------------------------------------------------

 * finished run on 2025/07/20 at 12:38:11.442
