   * xtb version 6.7.1 (edcfbbe) compiled by 'albert@albert-system' on 2024-07-22

   ID    Z sym.   atoms
    1    6 C      1-9, 11-19, 21-39, 41-46
    2    7 N      10, 20
    3    8 O      40
    4    1 H      47-80

          program call               : xtb data2507/gas/DMAC-FO/DMAC-FO_gas_T1_crest.xyz --gfn 2 --spinpol --tblite --uhf 2 --ohess vtight --parallel 40 --molden --ceasefiles --namespace data2507/gas/DMAC-FO/DMAC-FO_gas_T1_finalOpt
 * total energy  :  -119.3431708 Eh     change       -0.1641834E-07 Eh
 * total energy  :  -119.3431984 Eh     change       -0.2757848E-04 Eh
 * total energy  :  -119.3432057 Eh     change       -0.7305684E-05 Eh
 * total energy  :  -119.3432066 Eh     change       -0.8489881E-06 Eh
 * total energy  :  -119.3432076 Eh     change       -0.1046073E-05 Eh
 * total energy  :  -119.3432088 Eh     change       -0.1216224E-05 Eh
 * total energy  :  -119.3432103 Eh     change       -0.1489972E-05 Eh
 * total energy  :  -119.3432117 Eh     change       -0.1367076E-05 Eh
 * total energy  :  -119.3432130 Eh     change       -0.1313257E-05 Eh
 * total energy  :  -119.3432142 Eh     change       -0.1159966E-05 Eh
 * total energy  :  -119.3432182 Eh     change       -0.7083872E-06 Eh
 * total energy  :  -119.3432190 Eh     change       -0.8914385E-06 Eh
 * total energy  :  -119.3432205 Eh     change       -0.1467492E-05 Eh
 * total energy  :  -119.3432223 Eh     change       -0.1745324E-05 Eh
 * total energy  :  -119.3432235 Eh     change       -0.1240927E-05 Eh
 * total energy  :  -119.3432242 Eh     change       -0.7251331E-06 Eh
 * total energy  :  -119.3432248 Eh     change       -0.6021011E-06 Eh
 * total energy  :  -119.3432256 Eh     change       -0.7569423E-06 Eh
 * total energy  :  -119.3432256 Eh     change       -0.2253921E-07 Eh
   *** GEOMETRY OPTIMIZATION CONVERGED AFTER 22 ITERATIONS ***

 final structure:
================
80
 xtb: 6.7.1 (edcfbbe)
C           -5.80529459444553       -3.46486092528871       -0.23037452595409
C           -6.05176704394562       -1.94711113542996       -0.32365353978624
C           -7.54963395567822       -1.66415216998430       -0.54484717563385
C           -5.27695601214813       -1.39947413205549       -1.50453598891954
C           -5.54381399040102       -1.87412654704302       -2.78107672640187
C           -4.87643144951659       -1.39702980529680       -3.89420800523797
C           -3.91570035888870       -0.41018840558814       -3.74168178402549
C           -3.62870411581317        0.07928526784549       -2.48743017065541
C           -4.29429890925806       -0.40981549002906       -1.35518889429113
N           -3.97932065464081        0.09572527995709       -0.11184736638974
C           -2.99434728207720        1.12430494971618       -0.00881950593873
C           -3.42125432595620        2.45851440375451        0.07264767292827
C           -2.50454640952885        3.48133383230714        0.17869401424109
C           -1.14986283855374        3.16627979271496        0.20394340253828
C           -0.71445152129502        1.80910450648923        0.11395307719445
C           -1.64862742038770        0.79177114685513        0.00926728701072
C            0.71765996593930        1.80603274300345        0.16519646721583
C            1.65308099356133        0.78604055716165        0.11056288854803
C            2.99842893289154        1.11293346508955        0.18319157332315
N            3.98383327423414        0.08143146311287        0.12778040995571
C            4.27574817955431       -0.63017962370348        1.27211912159323
C            3.59226489900217       -0.33729980663733        2.46013624866716
C            3.85491848631248       -1.03601124942006        3.61681340715606
C            4.80927163123608       -2.04063943708719        3.61468421280382
C            5.49594813832867       -2.32342214211615        2.44827244732239
C            5.25367703367370       -1.63567022298878        1.26741953286939
C            6.05104867416041       -1.97531220987613        0.02506340267614
C            7.54396483387398       -1.73646399757547        0.31976132795774
C            5.80910093886643       -3.45440407784661       -0.33086032745965
C            5.64545395194011       -1.12133299426643       -1.15838491163350
C            6.27458771034447       -1.29958785038175       -2.38250458956379
C            5.93222292868979       -0.55601855338267       -3.49695844295143
C            4.92488824911671        0.39066617198276       -3.40129891219244
C            4.28318053364814        0.58999595251899       -2.19981702241179
C            4.63853012359782       -0.14971565348962       -1.06355405658425
C            3.42354104730524        2.44405363610062        0.31230263127924
C            2.50557436935507        3.46982141901145        0.36572889553825
C            1.15131988133956        3.16112931617185        0.28918710616356
C            0.00016372319191        4.04369581311263        0.31558183745040
O           -0.00073684353001        5.28775715065050        0.41363057261431
C           -4.61436869942148       -0.33366431534976        1.03415466348748
C           -4.23824938193659        0.20402307876386        2.27266531737191
C           -4.85945213522888       -0.19631421382482        3.43408992189744
C           -5.86687714868595       -1.14650901734600        3.38568671939456
C           -6.23062626782814       -1.69056911126329        2.16754739286844
C           -5.62248402791631       -1.30718271186474        0.98044490246630
H           -4.74574584197266       -3.65907760339604       -0.07487400135661
H           -6.11554048998422       -3.96441729396723       -1.14373203010882
H           -6.35850601879409       -3.89661826170043        0.59881656046180
H           -7.89906807233191       -2.12431811671790       -1.46470962591276
H           -8.14291017151481       -2.05373035660450        0.27749289003355
H           -7.71778106560408       -0.59100518904889       -0.61200270517226
H           -6.29485972490566       -2.63717083606765       -2.91815431903994
H           -5.10853955357863       -1.78872790795100       -4.87263864289970
H           -3.39140038488172       -0.02043445495230       -4.60088926775759
H           -2.88554999957646        0.85196373853408       -2.36982213605131
H           -4.48098363483749        2.66665221594076        0.05034718005460
H           -2.82387034105430        4.51012116690290        0.24208051474318
H           -1.34687560585755       -0.24383302419144       -0.05655261900463
H            1.35261195114981       -0.24746139312625        0.01320503768105
H            2.85465525283487        0.44946166583583        2.46445751931120
H            3.31669827060063       -0.79538361096559        4.52094542974755
H            5.02206439543319       -2.59577926697230        4.51532969187905
H            6.24281155195001       -3.10250835915114        2.46587701993557
H            7.87682849411965       -2.34803927892836        1.15354733124708
H            7.70868872316207       -0.69095688504452        0.57317844741711
H            8.15332604435477       -1.97992313043936       -0.54592816111625
H            4.75351677356819       -3.61701666478826       -0.54022350165835
H            6.10017703501817       -4.10308256411264        0.49041600360194
H            6.38098318673340       -3.73978611699805       -1.20920981932780
H            7.05547551269636       -2.03887559421580       -2.47614365118508
H            6.44408917772753       -0.71824891376723       -4.43305510565394
H            4.63846691771241        0.97300232260672       -4.26375251845845
H            3.49534532575377        1.32285409374085       -2.12755021388014
H            4.48290579606456        2.64741307143327        0.36928777571341
H            2.82355441633723        4.49620054206596        0.46488755086570
H           -3.45084451789269        0.93991092385269        2.31134003251950
H           -4.55716573955957        0.23213327753997        4.37750927470151
H           -6.36275763559872       -1.46527255185805        4.28962542333925
H           -7.01183276314995       -2.43519191527148        2.14833963803325

 projected vibrational frequencies (cm⁻¹)
eigval :       -0.00    -0.00    -0.00    -0.00     0.00     0.00
eigval :        5.31     7.22    14.54    22.05    26.51    37.25
eigval :       39.76    57.93    87.83    91.71    92.93   101.08
eigval :      101.95   113.20   122.73   129.60   129.72   137.75
eigval :      161.24   162.82   187.18   192.22   192.31   217.49
eigval :      217.61   234.10   234.50   237.13   245.98   275.85
eigval :      279.03   301.70   307.46   327.57   327.66   336.48
eigval :      337.62   342.04   343.08   353.90   378.63   381.34
eigval :      382.25   393.50   395.83   407.26   410.57   421.79
eigval :      450.08   450.64   460.82   461.48   501.12   507.92
eigval :      507.97   512.01   533.14   538.32   544.23   544.60
eigval :      547.70   550.36   563.04   576.98   585.03   585.40
eigval :      605.48   618.83   620.52   641.03   652.15   664.66
eigval :      684.06   686.29   686.43   688.05   699.25   699.34
eigval :      705.37   732.06   741.94   774.71   774.99   776.42
eigval :      776.66   806.89   807.86   808.13   825.78   825.82
eigval :      857.72   860.84   866.70   868.95   869.19   869.49
eigval :      869.70   900.03   900.13   913.56   913.73   914.71
eigval :      914.77   915.37   915.39   922.32   922.36   922.51
eigval :      922.57   935.59   937.44   940.37   957.72   957.72
eigval :      981.04  1013.57  1013.58  1017.93  1076.13  1076.17
eigval :     1079.46  1082.87  1087.81  1105.89  1107.21  1112.97
eigval :     1114.34  1114.46  1138.82  1138.87  1153.40  1153.70
eigval :     1153.73  1164.81  1174.73  1183.06  1183.20  1184.50
eigval :     1184.70  1184.90  1185.38  1204.03  1225.91  1231.70
eigval :     1235.08  1241.48  1243.93  1244.11  1257.55  1260.29
eigval :     1264.52  1294.68  1294.79  1306.32  1309.54  1316.92
eigval :     1320.89  1323.03  1332.48  1332.76  1335.18  1335.25
eigval :     1354.38  1400.28  1401.87  1401.96  1405.81  1420.16
eigval :     1420.21  1426.64  1426.88  1430.82  1432.90  1436.42
eigval :     1460.28  1460.39  1461.48  1480.54  1482.61  1488.11
eigval :     1488.15  1488.93  1488.94  1498.83  1498.84  1502.46
eigval :     1502.49  1508.43  1520.23  1546.09  1555.77  1559.14
eigval :     1559.20  1568.51  1573.71  1574.20  1581.99  1582.03
eigval :     1593.29  1593.30  3029.00  3029.05  3031.03  3031.08
eigval :     3042.67  3042.68  3045.15  3045.18  3051.58  3051.59
eigval :     3054.95  3055.24  3072.72  3076.26  3080.46  3080.49
eigval :     3083.25  3083.28  3083.45  3083.58  3089.01  3089.08
eigval :     3089.26  3089.40  3098.34  3098.68  3098.80  3098.94
eigval :     3099.06  3099.55  3109.21  3109.88  3110.35  3110.61

   temp. (K)  partition function   enthalpy   heat capacity  entropy
                                   cal/mol     cal/K/mol   cal/K/mol   J/K/mol
 298.15  VIB  0.228E+18            22504.160    144.078    139.011
         ROT  0.769E+08              888.752      2.981     39.066
         INT  0.175E+26            23392.912    147.059    178.078
         TR   0.140E+29             1481.254      4.968     45.012
         TOT                       24874.1661   152.0270   223.0901   933.4092

       T/K    H(0)-H(T)+PV         H(T)/Eh          T*S/Eh         G(T)/Eh
   ------------------------------------------------------------------------
    298.15    0.396395E-01    0.670679E+00    0.105997E+00    0.564682E+00
   ------------------------------------------------------------------------

         :::::::::::::::::::::::::::::::::::::::::::::::::::::
         ::                  THERMODYNAMIC                  ::
         :::::::::::::::::::::::::::::::::::::::::::::::::::::
         :: total free energy        -118.778543632671 Eh   ::
         ::.................................................::
         :: total energy             -119.343225610077 Eh   ::
         :: zero point energy           0.631039799075 Eh   ::
         :: G(RRHO) w/o ZPVE           -0.066357821668 Eh   ::
         :: G(RRHO) contrib.            0.564681977406 Eh   ::
         :::::::::::::::::::::::::::::::::::::::::::::::::::::

           -------------------------------------------------
          | TOTAL ENERGY             -119.343225610077 Eh   |
          | TOTAL ENTHALPY           -118.672546304080 Eh   |
          | TOTAL FREE ENERGY        -118.778543632671 Eh   |
          | GRADIENT NORM               0.000063283437 Eh/α |
           -------------------------------------------------

 * finished run on 2025/08/24 at 03:19:07.259
