   * xtb version 6.7.1 (edcfbbe) compiled by 'albert@albert-system' on 2024-07-22

   ID    Z sym.   atoms
    1    6 C      1-9, 11-19, 21-39, 41-46
    2    7 N      10, 20
    3    8 O      40
    4    1 H      47-80

          program call               : xtb data2507/gas/DMAC-FO/DMAC-FO_gas_S0_crest.xyz --gfn 2 --ohess vtight --parallel 40 --molden --ceasefiles --namespace data2507/gas/DMAC-FO/DMAC-FO_gas_S0_finalOpt
          :  Hamiltonian                  GFN2-xTB          :
 * total energy  :  -119.4002501 Eh     change       -0.1633268E-08 Eh
 * total energy  :  -119.4002508 Eh     change       -0.6849649E-06 Eh
 * total energy  :  -119.4002515 Eh     change       -0.7124469E-06 Eh
 * total energy  :  -119.4002537 Eh     change       -0.2138179E-05 Eh
 * total energy  :  -119.4002555 Eh     change       -0.1802671E-05 Eh
 * total energy  :  -119.4002564 Eh     change       -0.9492074E-06 Eh
 * total energy  :  -119.4002570 Eh     change       -0.6058923E-06 Eh
 * total energy  :  -119.4002575 Eh     change       -0.5252153E-06 Eh
 * total energy  :  -119.4002581 Eh     change       -0.5149620E-06 Eh
 * total energy  :  -119.4002587 Eh     change       -0.6176877E-06 Eh
 * total energy  :  -119.4002604 Eh     change       -0.3891677E-06 Eh
 * total energy  :  -119.4002608 Eh     change       -0.3587460E-06 Eh
 * total energy  :  -119.4002611 Eh     change       -0.3532610E-06 Eh
 * total energy  :  -119.4002615 Eh     change       -0.3257428E-06 Eh
 * total energy  :  -119.4002617 Eh     change       -0.2595790E-06 Eh
 * total energy  :  -119.4002619 Eh     change       -0.2185403E-06 Eh
 * total energy  :  -119.4002622 Eh     change       -0.2316681E-06 Eh
 * total energy  :  -119.4002625 Eh     change       -0.3276800E-06 Eh
 * total energy  :  -119.4002625 Eh     change       -0.6675677E-08 Eh
   *** GEOMETRY OPTIMIZATION CONVERGED AFTER 22 ITERATIONS ***

 final structure:
================
80
 xtb: 6.7.1 (edcfbbe)
C           -5.70112946340452        2.88757600992768       -1.96151763985418
C           -5.94362315778347        1.80737550721758       -0.89140234579803
C           -7.39206281211872        1.88268162257275       -0.37488430174807
C           -5.00485144530391        2.05233489102709        0.27373301171100
C           -5.08092043025685        3.25375568065949        0.96584622710429
C           -4.28239882987965        3.52324857857070        2.06110911746597
C           -3.39377201078682        2.55908001216612        2.50056697886238
C           -3.29798839697928        1.35724515046639        1.83157697996539
C           -4.07733720404009        1.09638715975018        0.70025573499385
N           -3.95019366217417       -0.11888600868768        0.03805861447370
C           -3.00083187977040       -1.05915602574792        0.50269867075798
C           -3.43231838845120       -2.24299307970924        1.09426365389208
C           -2.51843534273950       -3.17938890659671        1.55793316247586
C           -1.17149373193491       -2.90929160687568        1.42187193555802
C           -0.73026214972624       -1.71309722592509        0.82458566472625
C           -1.63572439420085       -0.78457517900147        0.36279946207875
C            0.73261664435649       -1.70990211988321        0.82861301816045
C            1.63654507992891       -0.77798830176343        0.37056291475344
C            3.00199921041271       -1.04718186362852        0.51696511875162
N            3.95020356151734       -0.10538072028757        0.05289190648772
C            4.74452889288132       -0.42641104655986       -1.04162962361860
C            4.54053975746246       -1.63308992331009       -1.71779376873772
C            5.32190243381058       -1.98442148626819       -2.79802437484597
C            6.31807134179035       -1.13010051654726       -3.23454052174769
C            6.49590479006187        0.08074283448225       -2.59273785134392
C            5.72143532831970        0.46058186152826       -1.50446741710895
C            5.94062160261386        1.82351305304156       -0.87749890037207
C            7.38788513344958        1.90492849843188       -0.35867743015981
C            5.69657325654884        2.89978394101566       -1.95123544821077
C            4.99885230900201        2.06905598743582        0.28510425414976
C            5.07013460271877        3.27259570589053        0.97400224238366
C            4.26846127230935        3.54290164432890        2.06677681415534
C            3.38134126869837        2.57761029046540        2.50684215783391
C            3.29005352849899        1.37376970250736        1.84081676783113
C            4.07277391235562        1.11190299849758        0.71208152455657
C            3.43533462917119       -2.22824213524168        1.11270548859918
C            2.52304380197351       -3.16791458809517        1.57285401123999
C            1.17571091481427       -2.90388709423821        1.42894101575940
C            0.00275185962338       -3.72255044794817        1.82903545163545
O            0.00362667928730       -4.80785615491703        2.36372849245862
C           -4.74128222241296       -0.43898763348754       -1.05905644921378
C           -4.53283669603820       -1.64343472735821       -1.73783041131275
C           -5.31057752643619       -1.99361683937919       -2.82105480248561
C           -6.30738197587073       -1.14026594589571       -3.25801716917955
C           -6.48976214550548        0.06838412260283       -2.61336769865926
C           -5.71914502333529        0.44694755513106       -1.52192452676450
H           -6.37632554823993        2.75989080404371       -2.80289474802904
H           -4.67872022706350        2.82124734707942       -2.32903710560983
H           -5.85414433452125        3.88190586816401       -1.55144028797488
H           -7.59842311956868        2.85506317937139        0.06349594308043
H           -8.10068295655958        1.71582922861216       -1.18132860326257
H           -7.55310488601517        1.12188445291687        0.38671281107433
H           -5.78694776721624        4.00517214672558        0.64642148127194
H           -4.36458973095911        4.46970323693789        2.57309377889321
H           -2.77647067798901        2.73636693455171        3.36849556626739
H           -2.61583661682026        0.60587685886711        2.19813669044899
H           -4.49307397298943       -2.42251155430570        1.18766694074388
H           -2.84740285467072       -4.09573200812022        2.02340007414500
H           -1.31966161369427        0.13813749439274       -0.10040432718022
H            1.31903151488056        0.14289496745404       -0.09528471667368
H            3.75518770640022       -2.30029226599239       -1.39795049847936
H            5.14686106150146       -2.92472758720633       -3.29892582042098
H            6.94155586813148       -1.39606003145626       -4.07428507952197
H            7.26188823752994        0.74860529846221       -2.95658690755680
H            8.09849520686291        1.73934489395418       -1.16362310010680
H            7.55039548714414        1.14600566762795        0.40446685589335
H            7.59000013225037        2.87877216001009        0.07842547397382
H            4.67399705912417        2.83122848450813       -2.31787957025246
H            6.37135710830295        2.76976868666769       -2.79260475726731
H            5.84890930966098        3.89565332068717       -1.54465274706140
H            5.77474257545987        4.02506031765251        0.65391286789356
H            4.34702423328078        4.49092312169772        2.57642957744292
H            2.76167791450291        2.75569724430659        3.37292246230891
H            2.60890472511934        0.62156008068878        2.20757372868737
H            4.49634942745737       -2.40330096375427        1.21144757834875
H            2.85352203037114       -4.08230585001056        2.04107548192721
H           -3.74681542521768       -2.30966578882023       -1.41758379316537
H           -5.13219116881721       -2.93218084026807       -3.32404293616688
H           -6.92790581543339       -1.40528950978044       -4.10024821829649
H           -7.25628308306197        0.73547108437190       -2.97750164003918

          :  Hamiltonian                  GFN2-xTB          :
         :: gradient norm              0.000057075068 Eh/a0 ::
         :: HOMO-LUMO gap              1.085376337798 eV    ::
         :: SCC energy              -121.531130726640 Eh    ::
         :: -> dispersion             -0.112369943572 Eh    ::
         :: repulsion energy           2.130868224051 Eh    ::

    * Orbital Energies and Occupations

         #    Occupation            Energy/Eh            Energy/eV
      -------------------------------------------------------------
         1        2.0000           -0.7085996             -19.2820
       ...           ...                  ...                  ...
        99        2.0000           -0.4116627             -11.2019
       100        2.0000           -0.4104123             -11.1679
       101        2.0000           -0.4100004             -11.1567
       102        2.0000           -0.4064313             -11.0596
       103        2.0000           -0.4061681             -11.0524
       104        2.0000           -0.4020094             -10.9392
       105        2.0000           -0.4003663             -10.8945
       106        2.0000           -0.3998012             -10.8791
       107        2.0000           -0.3950560             -10.7500
       108        2.0000           -0.3949727             -10.7478
       109        2.0000           -0.3940064             -10.7215
       110        2.0000           -0.3506983              -9.5430
       111        2.0000           -0.3504461              -9.5361 (HOMO)
       112                         -0.3105593              -8.4507 (LUMO)
       113                         -0.2653165              -7.2196
       114                         -0.2448857              -6.6637
       115                         -0.2269681              -6.1761
       116                         -0.2269463              -6.1755
       117                         -0.2218718              -6.0374
       118                         -0.2217581              -6.0343
       119                         -0.2210851              -6.0160
       120                         -0.2206669              -6.0047
       121                         -0.2130918              -5.7985
       122                         -0.1992835              -5.4228
       ...                                ...                  ...
       218                          0.7392027              20.1147
      -------------------------------------------------------------
                  HL-Gap            0.0398868 Eh            1.0854 eV

     #   Z          covCN         q      C6AA      α(0)
     1   6 C        3.761    -0.103    22.520     6.765
     2   6 C        3.909     0.022    20.155     6.381
     3   6 C        3.761    -0.103    22.518     6.765
     4   6 C        2.980    -0.013    28.327     8.730
     5   6 C        2.928    -0.036    28.891     8.815
     6   6 C        2.917    -0.043    29.077     8.842
     7   6 C        2.920    -0.033    28.811     8.802
     8   6 C        2.924    -0.058    29.451     8.900
     9   6 C        2.927     0.058    26.709     8.475
    10   7 N        2.754    -0.067    22.542     7.052
    11   6 C        2.929     0.076    26.312     8.412
    12   6 C        2.923    -0.040    28.995     8.830
    13   6 C        2.912    -0.015    28.397     8.738
    14   6 C        3.046    -0.028    28.656     8.780
    15   6 C        3.039     0.007    27.817     8.651
    16   6 C        2.915    -0.040    28.983     8.828
    17   6 C        3.039     0.007    27.817     8.651
    18   6 C        2.915    -0.040    28.983     8.828
    19   6 C        2.929     0.076    26.312     8.412
    20   7 N        2.754    -0.067    22.543     7.052
    21   6 C        2.927     0.057    26.715     8.476
    22   6 C        2.924    -0.058    29.448     8.899
    23   6 C        2.920    -0.032    28.809     8.802
    24   6 C        2.917    -0.043    29.075     8.842
    25   6 C        2.928    -0.036    28.892     8.815
    26   6 C        2.980    -0.013    28.328     8.730
    27   6 C        3.909     0.022    20.155     6.381
    28   6 C        3.761    -0.103    22.519     6.765
    29   6 C        3.761    -0.103    22.519     6.765
    30   6 C        2.980    -0.013    28.327     8.730
    31   6 C        2.928    -0.036    28.891     8.815
    32   6 C        2.917    -0.043    29.077     8.843
    33   6 C        2.920    -0.033    28.811     8.802
    34   6 C        2.924    -0.058    29.451     8.900
    35   6 C        2.927     0.058    26.709     8.475
    36   6 C        2.923    -0.040    28.994     8.830
    37   6 C        2.912    -0.015    28.397     8.738
    38   6 C        3.046    -0.028    28.655     8.780
    39   6 C        2.866     0.229    23.195     7.894
    40   8 O        0.856    -0.353    20.771     6.110
    41   6 C        2.927     0.057    26.715     8.476
    42   6 C        2.924    -0.058    29.448     8.899
    43   6 C        2.920    -0.032    28.809     8.802
    44   6 C        2.917    -0.043    29.075     8.842
    45   6 C        2.928    -0.036    28.892     8.815
    46   6 C        2.980    -0.013    28.328     8.730
    47   1 H        0.925     0.040     2.450     2.448
    48   1 H        0.925     0.031     2.567     2.506
    49   1 H        0.925     0.040     2.451     2.448
    50   1 H        0.925     0.040     2.451     2.448
    51   1 H        0.925     0.040     2.449     2.447
    52   1 H        0.925     0.032     2.561     2.503
    53   1 H        0.926     0.031     2.568     2.506
    54   1 H        0.926     0.028     2.618     2.530
    55   1 H        0.926     0.029     2.606     2.524
    56   1 H        0.926     0.025     2.664     2.552
    57   1 H        0.926     0.049     2.327     2.385
    58   1 H        0.926     0.059     2.209     2.324
    59   1 H        0.926     0.048     2.345     2.395
    60   1 H        0.926     0.048     2.345     2.395
    61   1 H        0.926     0.025     2.659     2.550
    62   1 H        0.926     0.029     2.598     2.521
    63   1 H        0.926     0.028     2.617     2.530
    64   1 H        0.926     0.031     2.568     2.506
    65   1 H        0.925     0.040     2.449     2.447
    66   1 H        0.925     0.032     2.561     2.503
    67   1 H        0.925     0.040     2.451     2.448
    68   1 H        0.925     0.031     2.567     2.506
    69   1 H        0.925     0.040     2.451     2.448
    70   1 H        0.925     0.040     2.451     2.448
    71   1 H        0.926     0.031     2.568     2.506
    72   1 H        0.926     0.028     2.619     2.531
    73   1 H        0.926     0.029     2.606     2.524
    74   1 H        0.926     0.025     2.665     2.553
    75   1 H        0.926     0.049     2.327     2.385
    76   1 H        0.926     0.059     2.209     2.324
    77   1 H        0.926     0.025     2.658     2.550
    78   1 H        0.926     0.029     2.598     2.521
    79   1 H        0.926     0.028     2.617     2.530
    80   1 H        0.926     0.031     2.568     2.506

molecular dipole:
                 x           y           z       tot (Debye)
 q only:       -0.003       1.196      -0.596
   full:       -0.003       1.274      -0.632       3.614

 projected vibrational frequencies (cm⁻¹)
eigval :       -0.00     0.00     0.00     0.00     0.00     0.00
eigval :       10.37    10.56    12.76    19.36    29.36    36.79
eigval :       44.32    56.30    85.21    91.01    94.07   102.17
eigval :      109.59   117.49   122.13   127.31   127.60   127.96
eigval :      165.61   165.83   189.08   189.30   191.33   218.90
eigval :      219.27   233.83   235.92   237.81   248.42   272.57
eigval :      282.65   302.24   308.87   325.57   331.77   331.84
eigval :      339.39   343.08   344.91   352.62   377.93   379.09
eigval :      387.88   392.75   399.15   409.12   410.90   428.90
eigval :      452.96   453.45   462.60   488.41   489.25   507.29
eigval :      514.45   514.76   531.51   542.04   547.35   547.46
eigval :      553.76   567.90   577.87   580.69   587.01   592.53
eigval :      612.31   633.86   650.92   657.55   662.80   670.52
eigval :      683.11   683.28   694.27   694.30   704.58   706.20
eigval :      737.52   742.12   747.00   776.95   777.60   778.32
eigval :      778.60   806.54   823.42   824.76   833.13   840.96
eigval :      867.23   867.71   869.30   869.43   875.91   882.93
eigval :      884.94   913.58   913.70   914.45   914.55   915.55
eigval :      915.92   920.15   920.45   921.64   921.86   922.92
eigval :      923.12   938.08   938.50   950.30   957.46   957.46
eigval :      987.57  1014.53  1014.54  1032.15  1076.91  1077.00
eigval :     1080.16  1083.44  1090.00  1114.80  1115.26  1120.06
eigval :     1120.55  1120.69  1141.32  1141.39  1157.95  1160.20
eigval :     1160.25  1170.22  1173.24  1183.17  1184.21  1188.00
eigval :     1188.61  1188.73  1189.76  1208.91  1220.01  1231.85
eigval :     1233.91  1245.26  1250.91  1251.17  1252.94  1268.75
eigval :     1269.56  1295.11  1295.45  1303.31  1311.74  1312.30
eigval :     1322.39  1325.34  1333.74  1334.04  1337.55  1337.93
eigval :     1367.63  1399.69  1403.24  1403.27  1421.27  1421.33
eigval :     1429.18  1435.33  1437.38  1441.25  1441.28  1453.42
eigval :     1460.36  1478.23  1478.91  1489.75  1489.79  1490.79
eigval :     1490.80  1493.88  1495.04  1500.39  1500.40  1504.99
eigval :     1505.10  1570.81  1574.65  1576.09  1576.87  1583.66
eigval :     1589.29  1591.25  1592.64  1592.85  1593.26  1602.33
eigval :     1602.48  1738.52  3026.75  3026.82  3028.87  3028.91
eigval :     3040.50  3040.51  3043.18  3043.24  3049.33  3049.33
eigval :     3053.24  3053.33  3079.86  3079.98  3080.26  3080.29
eigval :     3084.63  3084.77  3084.92  3084.94  3089.95  3090.43
eigval :     3090.68  3093.55  3095.32  3095.51  3095.70  3096.12
eigval :     3101.38  3101.60  3101.69  3101.83  3102.50  3102.57

   temp. (K)  partition function   enthalpy   heat capacity  entropy
                                   cal/mol     cal/K/mol   cal/K/mol   J/K/mol
 298.15  VIB  0.782E+17            22351.354    143.105    137.437
         ROT  0.756E+08              888.752      2.981     39.032
         INT  0.592E+25            23240.106    146.086    176.468
         TR   0.140E+29             1481.254      4.968     45.012
         TOT                       24721.3601   151.0541   221.4806   926.6750

       T/K    H(0)-H(T)+PV         H(T)/Eh          T*S/Eh         G(T)/Eh
   ------------------------------------------------------------------------
    298.15    0.393960E-01    0.673152E+00    0.105233E+00    0.567919E+00
   ------------------------------------------------------------------------

         :::::::::::::::::::::::::::::::::::::::::::::::::::::
         ::                  THERMODYNAMIC                  ::
         :::::::::::::::::::::::::::::::::::::::::::::::::::::
         :: total free energy        -118.832343263353 Eh   ::
         ::.................................................::
         :: total energy             -119.400262502588 Eh   ::
         :: zero point energy           0.633755837774 Eh   ::
         :: G(RRHO) w/o ZPVE           -0.065836598539 Eh   ::
         :: G(RRHO) contrib.            0.567919239236 Eh   ::
         :::::::::::::::::::::::::::::::::::::::::::::::::::::

           -------------------------------------------------
          | TOTAL ENERGY             -119.400262502588 Eh   |
          | TOTAL ENTHALPY           -118.727110669816 Eh   |
          | TOTAL FREE ENERGY        -118.832343263353 Eh   |
          | GRADIENT NORM               0.000057062886 Eh/α |
          | HOMO-LUMO GAP               1.085374506809 eV   |
           -------------------------------------------------

 * finished run on 2025/08/24 at 03:12:26.458
