   * xtb version 6.7.1 (edcfbbe) compiled by 'albert@albert-system' on 2024-07-22

   ID    Z sym.   atoms
    1    6 C      1-9, 11-19, 21-39, 41-46
    2    7 N      10, 20
    3    8 O      40
    4    1 H      47-80

          program call               : xtb data2507/gas/DMAC-FO/DMAC-FO.xyz --gfn 2 --ohess vtight --parallel 40 --molden --ceasefiles --namespace data2507/gas/DMAC-FO/DMAC-FO_gas_S0_preOpt
          :  Hamiltonian                  GFN2-xTB          :
 * total energy  :  -119.3729807 Eh     change       -0.1329298E-08 Eh
 * total energy  :  -119.3916745 Eh     change       -0.1869380E-01 Eh
 * total energy  :  -119.3978946 Eh     change       -0.6220065E-02 Eh
 * total energy  :  -119.3987950 Eh     change       -0.9004387E-03 Eh
 * total energy  :  -119.3991702 Eh     change       -0.3751613E-03 Eh
 * total energy  :  -119.3992512 Eh     change       -0.8100907E-04 Eh
 * total energy  :  -119.3992749 Eh     change       -0.2373251E-04 Eh
 * total energy  :  -119.3992924 Eh     change       -0.1743149E-04 Eh
 * total energy  :  -119.3993026 Eh     change       -0.1027089E-04 Eh
 * total energy  :  -119.3993094 Eh     change       -0.6769018E-05 Eh
 * total energy  :  -119.3993354 Eh     change       -0.1132698E-05 Eh
 * total energy  :  -119.3993357 Eh     change       -0.2741190E-06 Eh
 * total energy  :  -119.3993360 Eh     change       -0.3463791E-06 Eh
 * total energy  :  -119.3993363 Eh     change       -0.2807105E-06 Eh
 * total energy  :  -119.3993365 Eh     change       -0.2460103E-06 Eh
 * total energy  :  -119.3993367 Eh     change       -0.1873140E-06 Eh
 * total energy  :  -119.3993369 Eh     change       -0.1310469E-06 Eh
 * total energy  :  -119.3993370 Eh     change       -0.1093556E-06 Eh
 * total energy  :  -119.3993371 Eh     change       -0.9753626E-07 Eh
   *** GEOMETRY OPTIMIZATION CONVERGED AFTER 29 ITERATIONS ***

 final structure:
================
80
 xtb: 6.7.1 (edcfbbe)
C           -5.64244858723692        0.02092592049012        3.12197955059600
C           -5.95608913005416        0.01129054058243        1.61466784114549
C           -7.47859022414177        0.01054196195352        1.38702856518967
C           -5.37340040861024       -1.25050522520146        1.00611231659523
C           -5.79640153886302       -2.49075589137905        1.46385046193196
C           -5.29926961929361       -3.67302767834854        0.94709286682694
C           -4.34954566352352       -3.62677031445006       -0.05712401948570
C           -3.91150975770577       -2.40821235958976       -0.53149801144175
C           -4.41471387937902       -1.21276942179278       -0.01113125462257
N           -3.95540160950414       -0.00345528377814       -0.50896591127858
C           -3.00066751310987       -0.01076145873103       -1.56094905734288
C           -3.43534260572681       -0.02034430264698       -2.88099909575834
C           -2.52056178543492       -0.02770996621415       -3.92691303932059
C           -1.17503928767125       -0.02532168804668       -3.62161449547166
C           -0.73169538594927       -0.01564200993111       -2.28600643558844
C           -1.63832914757526       -0.00826126929520       -1.24865006550685
C            0.73189087377470       -0.01563339618233       -2.28591260696149
C            1.63839205228992       -0.00826491486810       -1.24843974273523
C            3.00077021179902       -0.01073518890915       -1.56056556254886
N            3.95537898113510       -0.00346299942424       -0.50846815708723
C            4.41370085012558        1.21262793825939       -0.02649079008279
C            3.90976523157202        2.40075014308643       -0.56267457941180
C            4.34682767785501        3.62576483641637       -0.10430157939774
C            5.29633624952186        3.68592560543145        0.89938253109823
C            5.79430182493257        2.51091964265081        1.43167795560235
C            5.37228526343013        1.26444466989608        0.99022997375868
C            5.95598567324709        0.01119004682026        1.61524290261254
C            7.47848724000787        0.01020084071446        1.38760557353578
C            5.64234477053241        0.02101095350746        3.12255306320797
C            5.37312360843299       -1.25057751456903        1.00679532281427
C            5.79592254934656       -2.49084645487639        1.46467023566982
C            5.29863954191582       -3.67309471545296        0.94800399641993
C            4.34897551776770       -3.62679357771352       -0.05626748533507
C            3.91114243279459       -2.40821655972651       -0.53077978953018
C            4.41448736003656       -1.21279748875681       -0.01049401843519
C            3.43561280146800       -0.02026604909120       -2.88056086063027
C            2.52096602426735       -0.02762986468557       -3.92659172221191
C            1.17540478083604       -0.02528521193282       -3.62146432761480
C            0.00024111347013       -0.03182325928319       -4.53339393722038
O            0.00031867016510       -0.04049769445806       -5.74129932119528
C           -4.41357962201451        1.21265776140619       -0.02690696324195
C           -3.90948971859670        2.40075704820166       -0.56299637538781
C           -4.34641451535744        3.62579215050247       -0.10454653168772
C           -5.29594326215876        3.68599677394088        0.89911565424171
C           -5.79407364141886        2.51101346057563        1.43130626092160
C           -5.37219866924123        1.26451862930669        0.98977879243152
H           -6.05785319043298       -0.85600074230519        3.61063955532731
H           -6.05697350699431        0.90454613376694        3.59919557234557
H           -4.56487963650828        0.02138612403291        3.27568145596279
H           -7.93753408702609       -0.86671159241496        1.83444506145192
H           -7.93670606329785        0.89393782640166        1.82306269781594
H           -7.69324226702650        0.00374427062469        0.31996164356443
H           -6.53697894840586       -2.54269693229351        2.24756600270703
H           -5.65112037106727       -4.62019745484084        1.32635684589637
H           -3.94726854319746       -4.53791089300928       -0.47411565456067
H           -3.17034350717241       -2.37836586750458       -1.31600513045601
H           -4.49636245671009       -0.02199790494952       -3.08079680175999
H           -2.84787959864389       -0.03513964258645       -4.95519746798015
H           -1.32578356421054       -0.00076725944327       -0.21543559185359
H            1.32571406969608       -0.00080398232492       -0.21526507101778
H            3.16883886269162        2.36003390007672       -1.34692017884132
H            3.94399728462716        4.53104608470447       -0.53334588935291
H            5.64743853542563        4.63826086747429        1.26620114470563
H            6.53477516357265        2.57371013534048        2.21469735852902
H            7.93672628965193        0.89357917093877        1.82354647056065
H            7.69314200660197        0.00325804073057        0.32054005963673
H            7.93730415853129       -0.86707063473845        1.83511744203219
H            4.56477564732718        0.02164974219986        3.27625174174738
H            6.05700414726089        0.90460913816724        3.59969269594331
H            6.05761356740378       -0.85593505159128        3.61129318075859
H            6.53646543765433       -2.54282139956433        2.24841604407336
H            5.65034169441820       -4.62028007197998        1.32736709636037
H            3.94659593037939       -4.53791451970153       -0.47320254643965
H            3.17003201044229       -2.37833746565815       -1.31533816490667
H            4.49665814746123       -0.02188944075555       -3.08022344685084
H            2.84841497755953       -0.03503946103686       -4.95483448584508
H           -3.16855518345585        2.36000785303303       -1.34723265886368
H           -3.94346020598838        4.53105529049980       -0.53351341983942
H           -5.64693155870622        4.63834846040068        1.26600042954311
H           -6.53456197001909        2.57383811389946        2.21430888154084

          :  Hamiltonian                  GFN2-xTB          :
         :: gradient norm              0.000026993798 Eh/a0 ::
         :: HOMO-LUMO gap              0.855925642744 eV    ::
         :: SCC energy              -121.531510238195 Eh    ::
         :: -> dispersion             -0.112009880004 Eh    ::
         :: repulsion energy           2.132173167821 Eh    ::

    * Orbital Energies and Occupations

         #    Occupation            Energy/Eh            Energy/eV
      -------------------------------------------------------------
         1        2.0000           -0.7163027             -19.4916
       ...           ...                  ...                  ...
        99        2.0000           -0.4105286             -11.1711
       100        2.0000           -0.4094234             -11.1410
       101        2.0000           -0.4087792             -11.1234
       102        2.0000           -0.4065037             -11.0615
       103        2.0000           -0.4046001             -11.0097
       104        2.0000           -0.4040567             -10.9949
       105        2.0000           -0.4004000             -10.8954
       106        2.0000           -0.3991279             -10.8608
       107        2.0000           -0.3990576             -10.8589
       108        2.0000           -0.3938491             -10.7172
       109        2.0000           -0.3938420             -10.7170
       110        2.0000           -0.3487345              -9.4895
       111        2.0000           -0.3482016              -9.4750 (HOMO)
       112        0.0000           -0.3167469              -8.6191 (LUMO)
       113                         -0.2705043              -7.3608
       114                         -0.2489889              -6.7753
       115                         -0.2251755              -6.1273
       116                         -0.2251555              -6.1268
       117                         -0.2202106              -5.9922
       118                         -0.2202086              -5.9922
       119                         -0.2200844              -5.9888
       120                         -0.2192583              -5.9663
       121                         -0.2171824              -5.9098
       122                         -0.1976957              -5.3796
       ...                                ...                  ...
       218                          0.7353646              20.0103
      -------------------------------------------------------------
                  HL-Gap            0.0314547 Eh            0.8559 eV

     #   Z          covCN         q      C6AA      α(0)
     1   6 C        3.761    -0.103    22.515     6.764
     2   6 C        3.909     0.021    20.156     6.381
     3   6 C        3.761    -0.103    22.516     6.764
     4   6 C        2.979    -0.014    28.353     8.734
     5   6 C        2.928    -0.036    28.890     8.815
     6   6 C        2.917    -0.044    29.103     8.846
     7   6 C        2.920    -0.033    28.812     8.802
     8   6 C        2.924    -0.059    29.472     8.903
     9   6 C        2.929     0.058    26.702     8.474
    10   7 N        2.755    -0.074    22.666     7.071
    11   6 C        2.930     0.080    26.220     8.398
    12   6 C        2.924    -0.037    28.927     8.820
    13   6 C        2.912    -0.014    28.361     8.733
    14   6 C        3.044    -0.026    28.603     8.772
    15   6 C        3.039     0.009    27.777     8.644
    16   6 C        2.915    -0.038    28.934     8.821
    17   6 C        3.039     0.009    27.777     8.644
    18   6 C        2.915    -0.038    28.934     8.821
    19   6 C        2.930     0.080    26.220     8.398
    20   7 N        2.755    -0.074    22.666     7.071
    21   6 C        2.929     0.058    26.702     8.474
    22   6 C        2.924    -0.059    29.472     8.903
    23   6 C        2.920    -0.033    28.812     8.802
    24   6 C        2.917    -0.044    29.103     8.846
    25   6 C        2.928    -0.036    28.890     8.815
    26   6 C        2.979    -0.014    28.353     8.734
    27   6 C        3.909     0.021    20.156     6.381
    28   6 C        3.761    -0.103    22.516     6.764
    29   6 C        3.761    -0.103    22.515     6.764
    30   6 C        2.979    -0.014    28.353     8.734
    31   6 C        2.928    -0.036    28.890     8.815
    32   6 C        2.917    -0.044    29.103     8.846
    33   6 C        2.920    -0.033    28.812     8.802
    34   6 C        2.924    -0.059    29.472     8.903
    35   6 C        2.929     0.058    26.702     8.474
    36   6 C        2.924    -0.037    28.927     8.820
    37   6 C        2.912    -0.014    28.361     8.733
    38   6 C        3.044    -0.026    28.603     8.772
    39   6 C        2.865     0.232    23.145     7.886
    40   8 O        0.856    -0.344    20.598     6.085
    41   6 C        2.929     0.058    26.702     8.474
    42   6 C        2.924    -0.059    29.472     8.903
    43   6 C        2.920    -0.033    28.812     8.802
    44   6 C        2.917    -0.044    29.103     8.846
    45   6 C        2.928    -0.036    28.890     8.815
    46   6 C        2.979    -0.014    28.353     8.734
    47   1 H        0.925     0.039     2.456     2.451
    48   1 H        0.925     0.039     2.456     2.451
    49   1 H        0.925     0.031     2.573     2.509
    50   1 H        0.925     0.040     2.455     2.450
    51   1 H        0.925     0.040     2.455     2.450
    52   1 H        0.925     0.031     2.568     2.506
    53   1 H        0.926     0.031     2.578     2.511
    54   1 H        0.926     0.027     2.630     2.536
    55   1 H        0.926     0.028     2.618     2.530
    56   1 H        0.926     0.020     2.727     2.583
    57   1 H        0.926     0.052     2.292     2.368
    58   1 H        0.926     0.061     2.181     2.310
    59   1 H        0.926     0.051     2.313     2.378
    60   1 H        0.926     0.051     2.313     2.378
    61   1 H        0.926     0.020     2.727     2.583
    62   1 H        0.926     0.028     2.618     2.530
    63   1 H        0.926     0.027     2.630     2.536
    64   1 H        0.926     0.031     2.578     2.511
    65   1 H        0.925     0.040     2.455     2.450
    66   1 H        0.925     0.031     2.568     2.506
    67   1 H        0.925     0.040     2.455     2.450
    68   1 H        0.925     0.031     2.573     2.509
    69   1 H        0.925     0.039     2.456     2.451
    70   1 H        0.925     0.039     2.456     2.451
    71   1 H        0.926     0.031     2.578     2.511
    72   1 H        0.926     0.027     2.630     2.536
    73   1 H        0.926     0.028     2.618     2.530
    74   1 H        0.926     0.020     2.727     2.583
    75   1 H        0.926     0.052     2.292     2.368
    76   1 H        0.926     0.061     2.181     2.310
    77   1 H        0.926     0.020     2.727     2.583
    78   1 H        0.926     0.028     2.618     2.530
    79   1 H        0.926     0.027     2.630     2.536
    80   1 H        0.926     0.031     2.578     2.511

molecular dipole:
                 x           y           z       tot (Debye)
 q only:       -0.000       0.007       1.017
   full:       -0.000       0.008       1.073       2.726

 projected vibrational frequencies (cm⁻¹)
eigval :       -0.00    -0.00    -0.00    -0.00    -0.00     0.00
eigval :      -12.63   -10.66    13.11    21.49    23.57    34.17
eigval :       34.77    50.02    76.67    93.00    94.22    97.89
eigval :      101.21   104.37   122.10   122.88   128.87   128.90
eigval :      161.79   162.88   188.55   190.53   190.55   218.86
eigval :      219.25   228.93   233.20   234.29   235.12   265.62
eigval :      280.76   300.19   307.29   323.11   330.37   330.41
eigval :      338.64   342.32   344.61   349.84   378.03   379.65
eigval :      381.12   391.22   399.23   407.45   409.93   427.72
eigval :      447.59   447.69   461.43   483.34   491.79   496.03
eigval :      515.31   515.32   530.99   541.62   547.44   547.67
eigval :      549.04   567.23   578.60   579.12   587.11   591.78
eigval :      611.56   633.99   651.57   656.39   664.92   671.05
eigval :      681.31   681.31   692.71   692.73   704.97   706.04
eigval :      737.84   745.85   746.38   775.95   776.31   777.27
eigval :      777.51   807.41   820.31   823.03   830.88   838.37
eigval :      864.38   864.65   864.91   865.14   875.89   876.80
eigval :      878.15   912.78   912.82   913.60   913.63   916.49
eigval :      916.85   919.07   919.43   921.00   921.03   921.03
eigval :      921.06   938.26   938.66   950.79   957.30   957.31
eigval :      987.14  1014.37  1014.37  1032.13  1077.35  1077.36
eigval :     1080.08  1083.70  1089.16  1112.13  1112.61  1118.69
eigval :     1118.99  1118.99  1140.86  1140.89  1155.97  1160.80
eigval :     1160.84  1167.88  1169.44  1180.89  1183.17  1187.18
eigval :     1187.36  1187.57  1187.59  1208.73  1216.96  1231.49
eigval :     1231.57  1245.00  1249.46  1249.62  1252.55  1268.70
eigval :     1269.04  1294.44  1294.46  1297.84  1312.07  1316.55
eigval :     1325.72  1325.72  1335.07  1335.36  1345.24  1346.02
eigval :     1364.11  1396.75  1402.91  1402.92  1420.93  1421.01
eigval :     1430.37  1436.51  1437.68  1444.17  1444.68  1453.17
eigval :     1458.74  1481.66  1482.43  1489.92  1489.96  1490.78
eigval :     1490.78  1496.36  1497.48  1500.51  1500.52  1505.37
eigval :     1505.51  1574.66  1576.29  1576.31  1578.81  1586.46
eigval :     1590.42  1592.42  1593.14  1593.43  1593.93  1603.02
eigval :     1603.29  1752.12  3026.63  3026.70  3028.81  3028.82
eigval :     3039.86  3039.86  3042.61  3042.66  3048.63  3048.63
eigval :     3052.46  3052.53  3078.58  3078.62  3078.69  3078.77
eigval :     3082.83  3082.87  3082.98  3083.02  3091.28  3091.29
eigval :     3091.43  3091.66  3092.70  3092.88  3094.00  3097.11
eigval :     3098.29  3098.48  3099.30  3099.34  3102.53  3102.79

   temp. (K)  partition function   enthalpy   heat capacity  entropy
                                   cal/mol     cal/K/mol   cal/K/mol   J/K/mol
 298.15  VIB  0.155E+18            22496.073    142.925    138.458
         ROT  0.382E+08              888.752      2.981     37.677
         INT  0.592E+25            23384.825    145.906    176.134
         TR   0.140E+29             1481.254      4.968     45.012
         TOT                       24866.0793   150.8739   221.1463   925.2760

       T/K    H(0)-H(T)+PV         H(T)/Eh          T*S/Eh         G(T)/Eh
   ------------------------------------------------------------------------
    298.15    0.396266E-01    0.672898E+00    0.105074E+00    0.567824E+00
   ------------------------------------------------------------------------

         :::::::::::::::::::::::::::::::::::::::::::::::::::::
         ::                  THERMODYNAMIC                  ::
         :::::::::::::::::::::::::::::::::::::::::::::::::::::
         :: total free energy        -118.831512712267 Eh   ::
         ::.................................................::
         :: total energy             -119.399337070374 Eh   ::
         :: zero point energy           0.633271464716 Eh   ::
         :: G(RRHO) w/o ZPVE           -0.065447106609 Eh   ::
         :: G(RRHO) contrib.            0.567824358107 Eh   ::
         :::::::::::::::::::::::::::::::::::::::::::::::::::::

           -------------------------------------------------
          | TOTAL ENERGY             -119.399337070374 Eh   |
          | TOTAL ENTHALPY           -118.726438985985 Eh   |
          | TOTAL FREE ENERGY        -118.831512712267 Eh   |
          | GRADIENT NORM               0.000027004476 Eh/α |
          | HOMO-LUMO GAP               0.855925410783 eV   |
           -------------------------------------------------

 * finished run on 2025/08/24 at 03:06:39.777
