   * xtb version 6.7.1 (edcfbbe) compiled by 'albert@albert-system' on 2024-07-22

   ID    Z sym.   atoms
    1    6 C      1-9, 11-19, 21-39, 41-46
    2    7 N      10, 20
    3    8 O      40
    4    1 H      47-80

          program call               : xtb data2507/gas/DMAC-FO/DMAC-FO_gas_S0_finalOpt.xtbopt.xyz --gfn 2 --spinpol --tblite --uhf 2 --ohess vtight --parallel 40 --molden --ceasefiles --namespace data2507/gas/DMAC-FO/DMAC-FO_gas_T1_preOpt
 * total energy  :  -119.3374008 Eh     change       -0.1836696E-08 Eh
 * total energy  :  -119.3414527 Eh     change       -0.4051921E-02 Eh
 * total energy  :  -119.3423915 Eh     change       -0.9387564E-03 Eh
 * total energy  :  -119.3424556 Eh     change       -0.6417896E-04 Eh
 * total energy  :  -119.3425126 Eh     change       -0.5694534E-04 Eh
 * total energy  :  -119.3425473 Eh     change       -0.3472700E-04 Eh
 * total energy  :  -119.3425801 Eh     change       -0.3280697E-04 Eh
 * total energy  :  -119.3426027 Eh     change       -0.2258552E-04 Eh
 * total energy  :  -119.3426242 Eh     change       -0.2148746E-04 Eh
 * total energy  :  -119.3426435 Eh     change       -0.1928506E-04 Eh
 * total energy  :  -119.3430435 Eh     change       -0.9457051E-06 Eh
 * total energy  :  -119.3430444 Eh     change       -0.9122437E-06 Eh
 * total energy  :  -119.3430453 Eh     change       -0.9043800E-06 Eh
 * total energy  :  -119.3430462 Eh     change       -0.8994037E-06 Eh
 * total energy  :  -119.3430471 Eh     change       -0.9483007E-06 Eh
 * total energy  :  -119.3430480 Eh     change       -0.8763904E-06 Eh
 * total energy  :  -119.3430489 Eh     change       -0.8914308E-06 Eh
 * total energy  :  -119.3430498 Eh     change       -0.8925107E-06 Eh
 * total energy  :  -119.3430498 Eh     change       -0.2314106E-07 Eh
   *** GEOMETRY OPTIMIZATION CONVERGED AFTER 122 ITERATIONS ***

 final structure:
================
80
 xtb: 6.7.1 (edcfbbe)
C           -5.83510425984144        2.86010918251991       -1.97552183074158
C           -6.05441923246086        1.72810183026257       -0.95407599438586
C           -7.53273883495556        1.67831852429011       -0.52408770377628
C           -5.20635321739580        2.00311320882020        0.27044563741829
C           -5.40227169516787        3.17282152576854        0.99134831009551
C           -4.67283922562128        3.46297865318002        2.12952409852938
C           -3.72452552178957        2.55821603457319        2.57882744049650
C           -3.50782554240665        1.38974542119263        1.88399240524627
C           -4.23036275491907        1.10062103350632        0.71819660075901
N           -3.98038486839022       -0.07139525859290        0.03482725461541
C           -2.99652908651336       -0.97241222157581        0.54152781115647
C           -3.42273606310731       -2.11067042658211        1.24363143348855
C           -2.50541068129367       -2.99691648064965        1.76402999481565
C           -1.14994899382724       -2.74212607063012        1.58208569521942
C           -0.71545499872426       -1.58182412724346        0.87160696895555
C           -1.65013481709180       -0.70380524811708        0.34849139962660
C            0.71715955985058       -1.57995720316368        0.87320857411196
C            1.65071170450000       -0.69937886777126        0.35238769389286
C            2.99736857316237       -0.96440926956803        0.54853489621086
N            3.97999001179711       -0.06040655882086        0.04478687737401
C            4.68186969250808       -0.40230769896610       -1.09208942671981
C            4.36677299734254       -1.59060230271532       -1.76536402328576
C            5.05917830890425       -1.96812427541365       -2.89369443098731
C            6.07777673503378       -1.16417548452595       -3.37971725926911
C            6.37710185014391        0.01992566499910       -2.73141843287226
C            5.69557622494405        0.42729549431914       -1.59315419511289
C            6.05172665902083        1.74536118340250       -0.93752218094097
C            7.52898784204892        1.70050135674280       -0.50339210799789
C            5.83150411268578        2.87664002336179       -1.95958860467167
C            5.19925447990285        2.01758925118672        0.28455673213905
C            5.38958658194421        3.18773222290203        1.00625336026141
C            4.65594393328690        3.47552159868367        2.14231955984292
C            3.70897020352272        2.56788172410211        2.58863156834373
C            3.49773598736155        1.39894142936470        1.89290720072672
C            4.22454233808156        1.11217391138118        0.72918082067766
C            3.42496546625065       -2.10173194149633        1.25132138176530
C            2.50879739592576       -2.99048913908383        1.76946401526703
C            1.15308360515110       -2.73918174681827        1.58457231010866
C            0.00204778832178       -3.49839337135136        2.03622232734365
O            0.00270950497199       -4.56393006022600        2.68570310493393
C           -4.67760086052537       -0.41541976229648       -1.10427554185112
C           -4.35688249203137       -1.60284478731846       -1.77642634861724
C           -5.04445022549484       -1.98238696216516       -2.90703463100556
C           -6.06373662320653       -1.18138325577268       -3.39646324986564
C           -6.36868298677424        0.00182336598495       -2.74915081408960
C           -5.69210242550555        0.41119186609580       -1.60865515123607
H           -6.44333647040281        2.70495179383717       -2.86203464871173
H           -4.78968311930021        2.88951303424153       -2.27679544711304
H           -6.09653043181664        3.82392062567481       -1.54811694613148
H           -7.83415615982767        2.61552478079139       -0.06488459117007
H           -8.17839231892530        1.49391765114513       -1.37798763851396
H           -7.68135625628536        0.87827687897077        0.19862323666228
H           -6.14658683762155        3.88163379567478        0.66176154740906
H           -4.84919512880593        4.38319042743391        2.66498284492049
H           -3.15516703238223        2.76180953864519        3.47294497792022
H           -2.77617688247914        0.68293646194441        2.24159822891918
H           -4.48275158312468       -2.27560744325082        1.37047409535284
H           -2.82509103805605       -3.87273108596184        2.30733988659824
H           -1.34770826749672        0.18101587348377       -0.19336992289611
H            1.34717900969498        0.18476147895912       -0.18996664545541
H            3.56925245595207       -2.21330903073957       -1.39229253192558
H            4.80334179054142       -2.88903060336250       -3.39514228507397
H            6.63030056538882       -1.45275262440209       -4.26064311331302
H            7.16556657007535        0.64045942728101       -3.12936544119784
H            8.17768340174236        1.51862527922720       -1.35552330064853
H            7.67831652826208        0.90073065293062        0.21947019969683
H            7.82591368276579        2.63857431558078       -0.04303908043818
H            4.78677582916797        2.90275188172796       -2.26356028208301
H            6.44250074651963        2.72333621257221       -2.84452432543632
H            6.08879668908774        3.84127840420999       -1.53153570284981
H            6.13276910085985        3.89880489620525        0.67898874170931
H            4.82801304745007        4.39613486687161        2.67848198963583
H            3.13638231968067        2.76959775816866        3.48111070027142
H            2.76710516089131        0.68993778911172        2.24823262729662
H            4.48511950382860       -2.26389252502842        1.38056701190581
H            2.82955006841210       -3.86556480144424        2.31333213990208
H           -3.55884271030577       -2.22326742187882       -1.40067223248072
H           -4.78430375736082       -2.90257120442625       -3.40758939934780
H           -6.61247648918787       -1.47155702657970       -4.27922742513619
H           -7.15767399546000        0.62002313667478       -3.14967880717725

 projected vibrational frequencies (cm⁻¹)
eigval :       -0.00    -0.00     0.00     0.00     0.00     0.00
eigval :        7.09     7.45    14.27    21.34    27.63    37.25
eigval :       40.57    58.33    87.19    91.91    92.64   100.90
eigval :      103.29   115.36   122.47   129.39   129.49   138.35
eigval :      162.03   162.30   187.68   191.96   192.04   217.41
eigval :      217.48   233.79   235.69   237.86   247.96   276.54
eigval :      279.82   301.91   307.64   327.88   327.91   334.40
eigval :      340.74   341.13   343.24   354.00   378.33   380.11
eigval :      381.61   394.59   394.94   407.61   410.63   421.72
eigval :      450.74   450.80   458.41   461.63   500.85   507.92
eigval :      507.95   511.61   532.48   538.73   544.25   544.62
eigval :      546.93   551.89   563.31   577.61   585.21   585.23
eigval :      605.45   618.04   620.46   641.14   651.72   664.60
eigval :      682.99   686.26   686.52   687.83   699.31   699.38
eigval :      705.39   732.00   741.41   774.63   775.14   776.52
eigval :      776.79   806.90   808.62   808.75   826.02   826.04
eigval :      859.26   862.20   866.60   869.17   869.56   869.77
eigval :      870.06   900.52   900.73   913.36   913.49   914.78
eigval :      914.85   915.39   915.43   922.28   922.41   922.61
eigval :      922.64   935.57   937.39   940.15   957.71   957.72
eigval :      981.06  1013.61  1013.61  1017.93  1076.13  1076.16
eigval :     1079.42  1082.90  1088.06  1106.44  1108.15  1113.48
eigval :     1114.78  1114.81  1138.89  1138.99  1153.57  1153.69
eigval :     1153.71  1163.54  1175.17  1183.55  1183.83  1184.73
eigval :     1184.95  1185.17  1185.84  1204.40  1226.49  1231.95
eigval :     1234.75  1240.98  1244.26  1244.51  1257.36  1260.34
eigval :     1264.69  1294.89  1294.91  1304.75  1308.55  1315.93
eigval :     1320.20  1324.30  1331.87  1332.15  1335.16  1335.21
eigval :     1354.46  1400.41  1401.92  1401.99  1405.17  1420.14
eigval :     1420.24  1426.36  1426.78  1430.63  1432.40  1436.60
eigval :     1460.23  1460.30  1461.22  1481.45  1483.06  1488.16
eigval :     1488.23  1488.67  1488.85  1498.57  1498.73  1502.46
eigval :     1502.53  1507.74  1520.01  1545.51  1556.60  1559.15
eigval :     1559.22  1569.56  1573.95  1574.48  1582.02  1582.07
eigval :     1593.15  1593.17  3028.96  3029.01  3030.88  3030.93
eigval :     3042.76  3042.77  3045.27  3045.31  3051.71  3051.73
eigval :     3055.12  3055.49  3072.26  3075.80  3080.22  3080.25
eigval :     3083.28  3083.30  3083.49  3083.60  3088.88  3089.03
eigval :     3089.22  3089.34  3098.13  3098.50  3098.85  3099.04
eigval :     3099.07  3099.52  3109.98  3110.49  3110.98  3111.47

   temp. (K)  partition function   enthalpy   heat capacity  entropy
                                   cal/mol     cal/K/mol   cal/K/mol   J/K/mol
 298.15  VIB  0.160E+18            22492.299    144.094    138.635
         ROT  0.766E+08              888.752      2.981     39.059
         INT  0.122E+26            23381.051    147.075    177.694
         TR   0.140E+29             1481.254      4.968     45.012
         TOT                       24862.3051   152.0432   222.7062   931.8027

       T/K    H(0)-H(T)+PV         H(T)/Eh          T*S/Eh         G(T)/Eh
   ------------------------------------------------------------------------
    298.15    0.396206E-01    0.670701E+00    0.105815E+00    0.564886E+00
   ------------------------------------------------------------------------

         :::::::::::::::::::::::::::::::::::::::::::::::::::::
         ::                  THERMODYNAMIC                  ::
         :::::::::::::::::::::::::::::::::::::::::::::::::::::
         :: total free energy        -118.778163590744 Eh   ::
         ::.................................................::
         :: total energy             -119.343049821435 Eh   ::
         :: zero point energy           0.631080518324 Eh   ::
         :: G(RRHO) w/o ZPVE           -0.066194287633 Eh   ::
         :: G(RRHO) contrib.            0.564886230691 Eh   ::
         :::::::::::::::::::::::::::::::::::::::::::::::::::::

           -------------------------------------------------
          | TOTAL ENERGY             -119.343049821435 Eh   |
          | TOTAL ENTHALPY           -118.672348698023 Eh   |
          | TOTAL FREE ENERGY        -118.778163590744 Eh   |
          | GRADIENT NORM               0.000086396880 Eh/α |
           -------------------------------------------------

 * finished run on 2025/08/24 at 03:12:46.475
