   * xtb version 6.7.1 (edcfbbe) compiled by 'albert@albert-system' on 2024-07-22

   ID    Z sym.   atoms
    1    6 C      1-4, 6-19, 21, 22, 24-39
    2    7 N      5, 20, 23
    3    1 H      40-62

          program call               : xtb data2507/gas/TPA-AP/TPA-AP_gas_T1_crest.xyz --gfn 2 --spinpol --tblite --uhf 2 --ohess vtight --parallel 40 --molden --ceasefiles --namespace data2507/gas/TPA-AP/TPA-AP_gas_T1_finalOpt
 * total energy  :   -97.5519841 Eh     change       -0.1793707E-07 Eh
 * total energy  :   -97.5521562 Eh     change       -0.1720631E-03 Eh
 * total energy  :   -97.5523214 Eh     change       -0.1652382E-03 Eh
 * total energy  :   -97.5523396 Eh     change       -0.1821552E-04 Eh
 * total energy  :   -97.5523497 Eh     change       -0.1008201E-04 Eh
 * total energy  :   -97.5523506 Eh     change       -0.8786915E-06 Eh
 * total energy  :   -97.5523515 Eh     change       -0.9197835E-06 Eh
 * total energy  :   -97.5523511 Eh     change        0.3970136E-06 Eh
 * total energy  :   -97.5523518 Eh     change       -0.6808305E-06 Eh
 * total energy  :   -97.5523520 Eh     change       -0.2174612E-06 Eh
 * total energy  :   -97.5523539 Eh     change       -0.6382820E-06 Eh
 * total energy  :   -97.5523545 Eh     change       -0.5958309E-06 Eh
 * total energy  :   -97.5523551 Eh     change       -0.6250493E-06 Eh
 * total energy  :   -97.5523557 Eh     change       -0.6291278E-06 Eh
 * total energy  :   -97.5523566 Eh     change       -0.8710134E-06 Eh
 * total energy  :   -97.5523575 Eh     change       -0.8882841E-06 Eh
 * total energy  :   -97.5523582 Eh     change       -0.7020491E-06 Eh
 * total energy  :   -97.5523586 Eh     change       -0.4304652E-06 Eh
 * total energy  :   -97.5523587 Eh     change       -0.1744641E-07 Eh
   *** GEOMETRY OPTIMIZATION CONVERGED AFTER 22 ITERATIONS ***

 final structure:
================
62
 xtb: 6.7.1 (edcfbbe)
C           -8.13350687604703       -2.91433112960986        0.04052710789262
C           -6.95033232177235       -3.03449398514580        0.75121678561272
C           -6.02223277333647       -2.01185332472644        0.74377862446779
C           -6.26446254416474       -0.84839968070457        0.01297494385901
N           -5.32515996979121        0.18803158272151       -0.00116095733669
C           -5.75105631404382        1.52026570000019       -0.00620587299834
C           -6.88006902870122        1.90523465104541        0.71732393648484
C           -7.29737171150650        3.22171064311141        0.70697683973542
C           -6.59682820055753        4.17499331307079       -0.01404646041847
C           -5.47281260464439        3.79872187795546       -0.73127747993530
C           -5.05160842325062        2.48348870534775       -0.73381146792259
C           -3.95901252045618       -0.10924626759411       -0.00578326363426
C           -3.05511777774464        0.68272954007318        0.70374433610289
C           -1.70921518709324        0.38867259794562        0.69236335536273
C           -1.21430349181232       -0.70956049343116       -0.01374806154298
C            0.21480141272024       -1.02433780446996       -0.01411419991307
C            0.65890578323921       -2.34532352329980       -0.01174350778468
C            2.00748530704609       -2.64618210797283        0.00025386168295
C            2.97590935650966       -1.64540436684812        0.00166106252975
N            4.28364567893188       -1.90788663639374        0.00966567926838
C            5.17016773517879       -0.93362327481413        0.00840715677360
C            4.72625321249826        0.43323481370485       -0.00221124715363
N            3.44704009968345        0.71405570162920       -0.00793331092398
C            2.52711247709471       -0.26442836304095       -0.00498299199962
C            1.16777362972732       -0.00111515983880       -0.00963862327133
C            5.89576536228719        1.28545359915562       -0.00487092234061
C            6.11764296242405        2.64197174164304       -0.01399576956912
C            7.44989480340887        3.09532932496024       -0.01314697571684
C            8.53126378656759        2.24602555078358       -0.00356441575882
C            8.33660131122530        0.84462532038169        0.00594382879977
C            9.31587812594305       -0.17808533424818        0.01628011761662
C            8.93341488474259       -1.49891468949196        0.02433863588075
C            7.58838080424933       -1.91133958842136        0.02278345001757
C            6.61115466640212       -0.94203617106432        0.01287973455131
C            7.01235783220118        0.41712980990897        0.00479884471161
C           -2.12613129612409       -1.49922250070514       -0.71684421745165
C           -3.47207546978402       -1.20488882737425       -0.72006345984436
C           -7.45566374661511       -0.73416559466691       -0.70410918354988
C           -8.38056995762149       -1.75962595886935       -0.68407308287961
H           -8.85766464489805       -3.71464761092935        0.05123629242069
H           -6.75176458891769       -3.92858975930388        1.32373619316040
H           -5.10541639502590       -2.10299224268992        1.30761507535972
H           -7.42148215679409        1.16619413997762        1.28965871834582
H           -8.17146500095585        3.50681337139572        1.27381875960353
H           -6.92435291957193        5.20346013691414       -0.01679322553863
H           -4.92365129409186        4.53392744114934       -1.30091748235953
H           -4.18144122465500        2.19052882998355       -1.30275855579810
H           -3.42099294407661        1.52567043154865        1.27184577579991
H           -1.03132913329327        1.00044808999680        1.26854970781039
H           -0.05861968735104       -3.15142846702689        0.00943568991784
H            2.34319810384688       -3.67159042247453        0.01369986335852
H            0.85929107810591        1.03235932518068       -0.03717965866884
H            5.30283557998998        3.34970327679418       -0.02170576763678
H            7.62217111824194        4.16241721276443       -0.02047910961300
H            9.53532706247484        2.64503718970860       -0.00342870681856
H           10.36344266249328        0.08559033302822        0.01783535362474
H            9.69703664752690       -2.26405279383170        0.03231311536307
H            7.34284167950803       -2.96225742586920        0.02925283758438
H           -1.76931922721772       -2.33733910764536       -1.29678535002890
H           -4.15955496711295       -1.81727746571963       -1.28532917296688
H           -7.64569910976148        0.16055434682188       -1.27877814618420
H           -9.29758081497804       -1.65964619687840       -1.24596076183993

 projected vibrational frequencies (cm⁻¹)
eigval :       -0.00    -0.00    -0.00    -0.00     0.00     0.00
eigval :       13.16    16.61    21.20    39.42    47.45    50.90
eigval :       65.04    68.00    75.50    91.04   105.41   127.16
eigval :      148.28   152.75   154.45   181.07   202.64   215.47
eigval :      233.00   248.50   272.32   289.04   295.37   317.05
eigval :      332.77   355.91   377.40   378.92   380.49   382.49
eigval :      392.63   404.36   419.08   420.48   428.57   459.70
eigval :      461.39   474.35   487.07   492.18   508.45   528.61
eigval :      547.97   564.98   565.56   576.54   582.22   586.77
eigval :      588.63   591.91   595.06   618.18   631.33   635.50
eigval :      659.40   663.48   668.91   669.68   682.01   688.90
eigval :      720.27   732.77   756.89   760.99   768.07   786.46
eigval :      797.00   800.65   805.74   806.39   823.60   853.12
eigval :      867.86   873.86   875.72   877.23   880.28   885.18
eigval :      885.32   892.30   894.16   910.16   916.78   916.87
eigval :      922.96   925.84   927.45   927.65   928.88   929.62
eigval :      929.96   964.20   984.37   994.70  1004.67  1018.93
eigval :     1047.58  1056.53  1074.71  1083.04  1083.97  1090.49
eigval :     1114.63  1122.05  1124.40  1141.16  1148.68  1179.29
eigval :     1180.61  1180.71  1182.15  1185.90  1195.18  1197.43
eigval :     1204.15  1216.89  1226.34  1231.22  1242.20  1244.87
eigval :     1260.29  1272.47  1278.51  1281.03  1287.32  1313.04
eigval :     1314.41  1319.67  1323.72  1326.90  1327.79  1348.70
eigval :     1365.66  1377.10  1390.23  1400.74  1415.27  1419.01
eigval :     1430.93  1436.13  1443.21  1470.29  1473.83  1478.64
eigval :     1484.26  1502.17  1519.99  1539.34  1552.15  1575.47
eigval :     1579.48  1579.62  1587.88  1591.64  1592.51  1598.85
eigval :     1612.76  3070.56  3071.86  3076.55  3077.01  3077.40
eigval :     3078.04  3078.28  3079.72  3082.23  3085.22  3085.87
eigval :     3086.70  3087.68  3089.67  3090.60  3090.90  3091.75
eigval :     3094.68  3096.16  3096.43  3097.71  3097.99  3098.51

   temp. (K)  partition function   enthalpy   heat capacity  entropy
                                   cal/mol     cal/K/mol   cal/K/mol   J/K/mol
 298.15  VIB  0.252E+13            16939.233    111.920    103.445
         ROT  0.600E+08              888.752      2.981     38.572
         INT  0.151E+21            17827.985    114.901    142.017
         TR   0.107E+29             1481.254      4.968     44.481
         TOT                       19309.2394   119.8691   186.4982   780.3085

       T/K    H(0)-H(T)+PV         H(T)/Eh          T*S/Eh         G(T)/Eh
   ------------------------------------------------------------------------
    298.15    0.307712E-01    0.499131E+00    0.886113E-01    0.410520E+00
   ------------------------------------------------------------------------

         :::::::::::::::::::::::::::::::::::::::::::::::::::::
         ::                  THERMODYNAMIC                  ::
         :::::::::::::::::::::::::::::::::::::::::::::::::::::
         :: total free energy         -97.141838682150 Eh   ::
         ::.................................................::
         :: total energy              -97.552358661761 Eh   ::
         :: zero point energy           0.468360060766 Eh   ::
         :: G(RRHO) w/o ZPVE           -0.057840081155 Eh   ::
         :: G(RRHO) contrib.            0.410519979611 Eh   ::
         :::::::::::::::::::::::::::::::::::::::::::::::::::::

           -------------------------------------------------
          | TOTAL ENERGY              -97.552358661761 Eh   |
          | TOTAL ENTHALPY            -97.053227369404 Eh   |
          | TOTAL FREE ENERGY         -97.141838682150 Eh   |
          | GRADIENT NORM               0.000071584534 Eh/α |
           -------------------------------------------------

 * finished run on 2025/08/22 at 23:27:28.119
