   * xtb version 6.7.1 (edcfbbe) compiled by 'albert@albert-system' on 2024-07-22

   ID    Z sym.   atoms
    1    6 C      1-4, 6-19, 21, 22, 24-39
    2    7 N      5, 20, 23
    3    1 H      40-62

          program call               : xtb data2507/gas/TPA-AP/TPA-AP.xyz --gfn 2 --ohess vtight --parallel 40 --molden --ceasefiles --namespace data2507/gas/TPA-AP/TPA-AP_gas_S0_preOpt
          :  Hamiltonian                  GFN2-xTB          :
 * total energy  :   -97.5829982 Eh     change       -0.1248225E-08 Eh
 * total energy  :   -97.5968720 Eh     change       -0.1387381E-01 Eh
 * total energy  :   -97.6014773 Eh     change       -0.4605318E-02 Eh
 * total energy  :   -97.6024066 Eh     change       -0.9292907E-03 Eh
 * total energy  :   -97.6028499 Eh     change       -0.4433288E-03 Eh
 * total energy  :   -97.6029799 Eh     change       -0.1299662E-03 Eh
 * total energy  :   -97.6030810 Eh     change       -0.1010850E-03 Eh
 * total energy  :   -97.6031646 Eh     change       -0.8363740E-04 Eh
 * total energy  :   -97.6032502 Eh     change       -0.8556434E-04 Eh
 * total energy  :   -97.6033204 Eh     change       -0.7024621E-04 Eh
 * total energy  :   -97.6038478 Eh     change       -0.5327769E-06 Eh
 * total energy  :   -97.6038483 Eh     change       -0.4860779E-06 Eh
 * total energy  :   -97.6038487 Eh     change       -0.3914489E-06 Eh
 * total energy  :   -97.6038490 Eh     change       -0.3662527E-06 Eh
 * total energy  :   -97.6038493 Eh     change       -0.2837963E-06 Eh
 * total energy  :   -97.6038495 Eh     change       -0.1790929E-06 Eh
 * total energy  :   -97.6038497 Eh     change       -0.1569645E-06 Eh
 * total energy  :   -97.6038498 Eh     change       -0.1325266E-06 Eh
 * total energy  :   -97.6038498 Eh     change       -0.2978659E-07 Eh
   *** GEOMETRY OPTIMIZATION CONVERGED AFTER 53 ITERATIONS ***

 final structure:
================
62
 xtb: 6.7.1 (edcfbbe)
C           -6.83255454237724       -3.51333962618947       -1.22953835654034
C           -7.19908688410129       -2.30198888921104       -1.79283703809168
C           -6.56358308702286       -1.13447494720469       -1.41749196343673
C           -5.55031201618153       -1.16296808488291       -0.45972346690189
N           -4.90842801637481        0.01911794034386       -0.07087927946223
C           -5.64430825806240        1.20496246229063        0.04357108098747
C           -5.08669478239729        2.42370981924300       -0.34220422457618
C           -5.81644984250382        3.59056651249363       -0.22534454295499
C           -7.11099446219679        3.56289848996467        0.26700877832990
C           -7.67112622286530        2.35425566095381        0.64700674136953
C           -6.94653218060887        1.18298327672724        0.54204927459535
C           -3.53909363417737        0.01623063003845        0.20129939951194
C           -3.01342375257745        0.81829677158697        1.21540812722295
C           -1.66097152009844        0.81318790355734        1.48137127331581
C           -0.78545090314899        0.01472671612086        0.74629352479670
C            0.65506654548606        0.01819362452637        1.02583407284134
C            1.11750401618043        0.07645275790647        2.35885700708400
C            2.45282829896234        0.08168599390440        2.64861450504119
C            3.40521578571031        0.03557294354295        1.61460963326066
N            4.72474092877269        0.04738429840565        1.92817153792470
C            5.54167521831587        0.00569228520253        0.91430226460987
C            5.08158871136963       -0.05074740373798       -0.45981771305798
N            3.82023391306291       -0.06637461681537       -0.78047430106538
C            2.95111983143596       -0.02349990306149        0.26406354874847
C            1.57418129724344       -0.03403140986541       -0.00044272382261
C            6.25224059974513       -0.08437824233276       -1.32554249041354
C            6.46530094077387       -0.13761164187665       -2.67962022800873
C            7.79371111015824       -0.15449374285639       -3.14530466178800
C            8.87917128862872       -0.11979514520667       -2.30294497426936
C            8.69558228456313       -0.06430949544933       -0.90266982484745
C            9.68478637942890       -0.02239617737491        0.10602625922787
C            9.32397609016752        0.03051413166934        1.43118166148727
C            7.98228937554230        0.04605158718110        1.85706801921978
C            6.99716227647589        0.00610019714866        0.90310129772835
C            7.37049681603972       -0.04847638357928       -0.46030027455868
C           -1.31610697685063       -0.78404582962321       -0.26624078830817
C           -2.66768182731274       -0.78771559651557       -0.53552266324040
C           -5.18812448328179       -2.38442016538124        0.10761896778276
C           -5.82397661130759       -3.54752433957923       -0.28056341435699
H           -7.32944666983744       -4.42399522894140       -1.52771204753281
H           -7.98088115427271       -2.26620877974482       -2.53728231438064
H           -6.84482692324527       -0.19234416955224       -1.86495249119135
H           -4.08121068342188        2.44666169615230       -0.73638244197604
H           -5.37338876442616        4.52743589911359       -0.52977396313641
H           -7.67928488773009        4.47649719827044        0.35354214113019
H           -8.67806524089214        2.32349864074999        1.03664691856671
H           -7.38226127142849        0.24293351666890        0.84765761105242
H           -3.67644047212072        1.44375873885535        1.79512140851876
H           -1.27446932968396        1.45312129725820        2.26092034638354
H            0.39399658626145        0.09452777840718        3.16077573304624
H            2.81133148163711        0.11871068223682        3.66590989084744
H            1.26132187713235       -0.06009499057326       -1.03299751977171
H            5.64218444015978       -0.16603404705899       -3.37666525370989
H            7.95977060037902       -0.19629662979271       -4.21248396193271
H            9.88126532275231       -0.13437202043399       -2.70723224552083
H           10.72878802040644       -0.03227801910901       -0.17288102699417
H           10.09863174837900        0.06188422188946        2.18422876730259
H            7.74391231906526        0.08842890714979        2.90853485370719
H           -0.65972459033460       -1.42089888643965       -0.84032330238618
H           -3.06071039865595       -1.41194286360661       -1.32461562146858
H           -4.40915977062018       -2.41243738665925        0.85552973670714
H           -5.53530594412079       -4.48654991691414        0.16844173735240

          :  Hamiltonian                  GFN2-xTB          :
         :: gradient norm              0.000075593694 Eh/a0 ::
         :: HOMO-LUMO gap              1.416786404501 eV    ::
         :: SCC energy               -99.432306842105 Eh    ::
         :: -> dispersion             -0.083647133776 Eh    ::
         :: repulsion energy           1.828457012177 Eh    ::

    * Orbital Energies and Occupations

         #    Occupation            Energy/Eh            Energy/eV
      -------------------------------------------------------------
         1        2.0000           -0.6699223             -18.2295
       ...           ...                  ...                  ...
        79        2.0000           -0.4201269             -11.4322
        80        2.0000           -0.4118630             -11.2074
        81        2.0000           -0.4102082             -11.1623
        82        2.0000           -0.4101918             -11.1619
        83        2.0000           -0.4087798             -11.1235
        84        2.0000           -0.4077728             -11.0961
        85        2.0000           -0.4046339             -11.0106
        86        2.0000           -0.4045987             -11.0097
        87        2.0000           -0.4014568             -10.9242
        88        2.0000           -0.3898724             -10.6090
        89        2.0000           -0.3835140             -10.4359
        90        2.0000           -0.3490608              -9.4984
        91        2.0000           -0.3437814              -9.3548 (HOMO)
        92                         -0.2917155              -7.9380 (LUMO)
        93                         -0.2867950              -7.8041
        94                         -0.2424701              -6.5979
        95                         -0.2359614              -6.4208
        96                         -0.2305539              -6.2737
        97                         -0.2275339              -6.1915
        98                         -0.2219308              -6.0390
        99                         -0.2217807              -6.0350
       100                         -0.2163699              -5.8877
       101                         -0.2090566              -5.6887
       102                         -0.1920004              -5.2246
       ...                                ...                  ...
       179                          0.7283553              19.8196
      -------------------------------------------------------------
                  HL-Gap            0.0520659 Eh            1.4168 eV

     #   Z          covCN         q      C6AA      α(0)
     1   6 C        2.919    -0.038    28.947     8.823
     2   6 C        2.920    -0.029    28.727     8.789
     3   6 C        2.922    -0.047    29.173     8.857
     4   6 C        2.924     0.065    26.544     8.449
     5   7 N        2.752    -0.074    22.681     7.073
     6   6 C        2.924     0.065    26.544     8.449
     7   6 C        2.922    -0.047    29.175     8.858
     8   6 C        2.920    -0.029    28.728     8.789
     9   6 C        2.919    -0.038    28.947     8.823
    10   6 C        2.920    -0.029    28.729     8.790
    11   6 C        2.922    -0.047    29.175     8.858
    12   6 C        2.924     0.065    26.551     8.450
    13   6 C        2.920    -0.049    29.212     8.863
    14   6 C        2.924    -0.033    28.833     8.806
    15   6 C        2.976     0.002    27.984     8.677
    16   6 C        2.973     0.012    27.731     8.638
    17   6 C        2.921    -0.034    28.844     8.807
    18   6 C        2.916    -0.040    29.002     8.831
    19   6 C        2.990     0.076    26.289     8.411
    20   7 N        1.838    -0.238    27.061     7.709
    21   6 C        3.058     0.082    26.108     8.379
    22   6 C        3.056     0.084    26.077     8.375
    23   7 N        1.838    -0.239    27.097     7.714
    24   6 C        2.987     0.077    26.277     8.409
    25   6 C        2.925    -0.047    29.158     8.855
    26   6 C        3.027    -0.004    28.106     8.696
    27   6 C        2.913    -0.020    28.504     8.755
    28   6 C        2.919    -0.028    28.707     8.786
    29   6 C        2.918    -0.030    28.751     8.793
    30   6 C        2.977     0.016    27.657     8.626
    31   6 C        2.918    -0.030    28.756     8.794
    32   6 C        2.919    -0.028    28.705     8.786
    33   6 C        2.913    -0.020    28.510     8.756
    34   6 C        3.027    -0.004    28.104     8.696
    35   6 C        3.139    -0.007    27.962     8.654
    36   6 C        2.924    -0.033    28.832     8.806
    37   6 C        2.920    -0.048    29.198     8.861
    38   6 C        2.922    -0.047    29.176     8.858
    39   6 C        2.920    -0.029    28.728     8.789
    40   1 H        0.926     0.031     2.579     2.511
    41   1 H        0.926     0.032     2.561     2.503
    42   1 H        0.926     0.032     2.560     2.502
    43   1 H        0.926     0.032     2.555     2.500
    44   1 H        0.926     0.032     2.558     2.501
    45   1 H        0.926     0.031     2.579     2.511
    46   1 H        0.926     0.032     2.562     2.503
    47   1 H        0.926     0.032     2.562     2.503
    48   1 H        0.926     0.033     2.543     2.494
    49   1 H        0.926     0.035     2.521     2.483
    50   1 H        0.926     0.039     2.456     2.451
    51   1 H        0.926     0.051     2.306     2.375
    52   1 H        0.926     0.052     2.297     2.370
    53   1 H        0.926     0.049     2.332     2.388
    54   1 H        0.926     0.038     2.473     2.459
    55   1 H        0.926     0.038     2.481     2.463
    56   1 H        0.926     0.037     2.483     2.464
    57   1 H        0.926     0.038     2.473     2.459
    58   1 H        0.926     0.049     2.333     2.388
    59   1 H        0.926     0.037     2.488     2.467
    60   1 H        0.926     0.034     2.534     2.489
    61   1 H        0.926     0.032     2.560     2.502
    62   1 H        0.926     0.032     2.560     2.502

molecular dipole:
                 x           y           z       tot (Debye)
 q only:        0.045      -0.009      -0.190
   full:        0.134      -0.005      -0.211       0.635

 projected vibrational frequencies (cm⁻¹)
eigval :       -0.00    -0.00    -0.00     0.00     0.00     0.00
eigval :       12.15    16.41    23.00    36.28    49.07    51.81
eigval :       63.80    68.86    75.64    90.10   107.80   128.45
eigval :      146.29   151.30   156.06   180.09   203.91   215.24
eigval :      234.47   254.71   286.23   294.32   306.80   316.99
eigval :      330.74   370.93   376.93   377.77   379.03   386.26
eigval :      388.16   390.32   422.36   432.79   445.78   453.75
eigval :      461.74   475.70   489.02   492.99   512.25   538.91
eigval :      562.08   571.96   575.00   580.50   585.81   590.08
eigval :      593.13   594.36   608.62   625.23   642.48   659.93
eigval :      666.33   678.29   686.40   694.00   701.92   734.52
eigval :      742.67   755.33   757.20   761.94   785.90   790.34
eigval :      806.81   812.12   815.29   834.68   869.77   874.78
eigval :      876.17   878.70   884.23   891.68   892.51   893.80
eigval :      896.98   909.96   912.48   916.65   922.43   922.62
eigval :      927.20   927.68   928.80   929.25   929.54   930.31
eigval :      935.81   969.49   985.70  1005.10  1018.00  1057.62
eigval :     1069.68  1080.26  1083.19  1084.17  1120.35  1121.92
eigval :     1124.12  1124.61  1143.56  1153.68  1178.64  1180.68
eigval :     1180.78  1187.29  1189.75  1195.60  1197.43  1207.82
eigval :     1216.78  1227.59  1232.02  1240.42  1260.84  1271.96
eigval :     1278.77  1281.51  1291.07  1296.03  1314.43  1319.80
eigval :     1326.66  1327.28  1329.21  1334.74  1365.47  1373.88
eigval :     1398.24  1400.07  1410.07  1425.21  1436.29  1441.28
eigval :     1443.29  1454.16  1472.09  1476.39  1484.47  1491.00
eigval :     1501.74  1551.55  1557.93  1573.08  1577.45  1581.36
eigval :     1585.24  1594.22  1595.00  1601.32  1607.62  1615.11
eigval :     1616.17  3071.09  3072.75  3075.88  3076.26  3076.86
eigval :     3077.36  3077.87  3081.00  3081.94  3082.58  3084.57
eigval :     3086.01  3086.77  3088.87  3089.78  3090.75  3092.66
eigval :     3097.36  3097.42  3097.83  3097.96  3100.68  3101.33

   temp. (K)  partition function   enthalpy   heat capacity  entropy
                                   cal/mol     cal/K/mol   cal/K/mol   J/K/mol
 298.15  VIB  0.219E+13            16729.940    110.250    102.390
         ROT  0.603E+08              888.752      2.981     38.581
         INT  0.132E+21            17618.692    113.231    140.971
         TR   0.107E+29             1481.254      4.968     44.481
         TOT                       19099.9459   118.1987   185.4517   775.9301

       T/K    H(0)-H(T)+PV         H(T)/Eh          T*S/Eh         G(T)/Eh
   ------------------------------------------------------------------------
    298.15    0.304377E-01    0.502664E+00    0.881141E-01    0.414550E+00
   ------------------------------------------------------------------------

         :::::::::::::::::::::::::::::::::::::::::::::::::::::
         ::                  THERMODYNAMIC                  ::
         :::::::::::::::::::::::::::::::::::::::::::::::::::::
         :: total free energy         -97.189300157265 Eh   ::
         ::.................................................::
         :: total energy              -97.603849829924 Eh   ::
         :: zero point energy           0.472226076137 Eh   ::
         :: G(RRHO) w/o ZPVE           -0.057676403479 Eh   ::
         :: G(RRHO) contrib.            0.414549672659 Eh   ::
         :::::::::::::::::::::::::::::::::::::::::::::::::::::

           -------------------------------------------------
          | TOTAL ENERGY              -97.603849829924 Eh   |
          | TOTAL ENTHALPY            -97.101186052626 Eh   |
          | TOTAL FREE ENERGY         -97.189300157265 Eh   |
          | GRADIENT NORM               0.000075627936 Eh/α |
          | HOMO-LUMO GAP               1.416784946551 eV   |
           -------------------------------------------------

 * finished run on 2025/08/22 at 23:20:12.169
