   * xtb version 6.7.1 (edcfbbe) compiled by 'albert@albert-system' on 2024-07-22

   ID    Z sym.   atoms
    1    6 C      1-4, 6-19, 21, 22, 24-39
    2    7 N      5, 20, 23
    3    1 H      40-62

          program call               : xtb data2507/gas/TPA-AP/TPA-AP_gas_S0_crest.xyz --gfn 2 --ohess vtight --parallel 40 --molden --ceasefiles --namespace data2507/gas/TPA-AP/TPA-AP_gas_S0_finalOpt
          :  Hamiltonian                  GFN2-xTB          :
 * total energy  :   -97.6040524 Eh     change       -0.2121922E-08 Eh
 * total energy  :   -97.6040531 Eh     change       -0.6582196E-06 Eh
 * total energy  :   -97.6040535 Eh     change       -0.4078879E-06 Eh
 * total energy  :   -97.6040543 Eh     change       -0.7793056E-06 Eh
 * total energy  :   -97.6040552 Eh     change       -0.9134003E-06 Eh
 * total energy  :   -97.6040558 Eh     change       -0.6366386E-06 Eh
 * total energy  :   -97.6040562 Eh     change       -0.3712975E-06 Eh
 * total energy  :   -97.6040565 Eh     change       -0.2858208E-06 Eh
 * total energy  :   -97.6040567 Eh     change       -0.2632634E-06 Eh
 * total energy  :   -97.6040570 Eh     change       -0.2078815E-06 Eh
 * total energy  :   -97.6040571 Eh     change       -0.1377899E-06 Eh
 * total energy  :   -97.6040572 Eh     change       -0.1027132E-06 Eh
 * total energy  :   -97.6040573 Eh     change       -0.8438285E-07 Eh
   *** GEOMETRY OPTIMIZATION CONVERGED AFTER 13 ITERATIONS ***

 final structure:
================
62
 xtb: 6.7.1 (edcfbbe)
C           -8.11869820361110       -2.91699246882033        0.10656486658829
C           -6.95227483304176       -3.05824873587629       -0.62725524325458
C           -6.02292717794693       -2.03726967268357       -0.66826591266639
C           -6.24639344411874       -0.85521272615854        0.03736931287804
N           -5.30684347326814        0.18217969681104        0.00086962645213
C           -5.74022178105493        1.51358020645909       -0.02618813028415
C           -5.04452878292796        2.49807259025284        0.67509267550351
C           -5.47443765232040        3.81027546963883        0.64269231136327
C           -6.60428125726454        4.16137525073781       -0.07784660662490
C           -7.30171125262000        3.18631084642038       -0.77195682133439
C           -6.87491244237916        1.87273663567458       -0.75290158604861
C           -3.94186084581615       -0.10872144435838       -0.00782123685666
C           -3.43957922391033       -1.19324156097749        0.71318217695931
C           -2.09177105350635       -1.48065564646076        0.69668390303238
C           -1.19544002779648       -0.69109881641458       -0.02331551790635
C            0.24032686086687       -0.99016715303033       -0.03098214310145
C            0.68527677504143       -2.32985116734887       -0.07268705593863
C            2.01663907008295       -2.63699653241195       -0.08555979514446
C            2.98283188266551       -1.61535574133832       -0.05214021905303
N            4.29807231379228       -1.94629724082255       -0.06403972313436
C            5.12834425879723       -0.94297857529342       -0.02946590281531
C            4.68637652395290        0.43737783607939        0.01820364918639
N            3.42940846421239        0.77495307126252        0.02780308056357
C            2.54659450529234       -0.25832312363778       -0.00867518862172
C            1.17347785865876        0.02460314896586       -0.00083017535380
C            5.86821962276687        1.28785076882862        0.04835124687404
C            6.09882374019961        2.63926376157932        0.09574652421701
C            7.43316246230571        3.08767050658628        0.11211734692638
C            8.50753857783845        2.23102288152653        0.08267835478564
C            8.30574661771174        0.83300734547091        0.03357097565573
C            9.28176749807045       -0.18871252737291       -0.00175318377947
C            8.90369038195059       -1.50927554353657       -0.04823620105256
C            7.55656178980935       -1.91771957504435       -0.06313794711022
C            6.58387380557708       -0.95082388984053       -0.02966717189532
C            6.97504413751621        0.40786444206194        0.01803608574858
C           -1.70231321955814        0.39559052271796       -0.73610278100832
C           -3.05037148413437        0.68006271708648       -0.73732612569585
C           -7.42051428979140       -0.71948340828082        0.77756392524436
C           -8.34763432322158       -1.74297404283916        0.80532813225737
H           -8.84417154001486       -3.71578705545146        0.13330312726337
H           -6.76800576841034       -3.96763543723550       -1.18024844595710
H           -5.11933779912687       -2.14534771991055       -1.25031993345564
H           -4.16941665891385        2.22494521023623        1.24644409334939
H           -4.92758222358794        4.56263168925431        1.19184355745906
H           -6.93900236782637        5.18736618158847       -0.09805187500131
H           -8.18093488657288        3.45155864001643       -1.34054208600950
H           -7.41497749968596        1.11579784448026       -1.30273159928744
H           -4.11619455517777       -1.80372351732802        1.29316628152427
H           -1.72274076727650       -2.31038092833945        1.28144438529736
H           -0.04854006195200       -3.12122140333469       -0.11795731273095
H            2.36146901537078       -3.65892123676379       -0.12485979941415
H            0.87479837614305        1.06028293826222        0.05226766626395
H            5.28479698545178        3.34705030385486        0.12021697959507
H            7.61308596916610        4.15275656396319        0.14955856441343
H            9.51482904498059        2.62219410555058        0.09692528911234
H           10.32930262801477        0.07660665104205        0.00806327330258
H            9.66845041554787       -2.27257152283336       -0.07465175238896
H            7.30466333980980       -2.96624059179246       -0.09996537750225
H           -1.03172019737728        1.00525249705925       -1.32311735783081
H           -3.42736432487224        1.51421111612836       -1.31078828536788
H           -7.59697495069420        0.19136559114529        1.33084750115744
H           -9.25198656991588       -1.62571548570594        1.38418569065244

          :  Hamiltonian                  GFN2-xTB          :
         :: gradient norm              0.000027304669 Eh/a0 ::
         :: HOMO-LUMO gap              1.416075581497 eV    ::
         :: SCC energy               -99.432580474846 Eh    ::
         :: -> dispersion             -0.083708626148 Eh    ::
         :: repulsion energy           1.828523197431 Eh    ::

    * Orbital Energies and Occupations

         #    Occupation            Energy/Eh            Energy/eV
      -------------------------------------------------------------
         1        2.0000           -0.6697578             -18.2250
       ...           ...                  ...                  ...
        79        2.0000           -0.4202829             -11.4365
        80        2.0000           -0.4109796             -11.1833
        81        2.0000           -0.4100483             -11.1580
        82        2.0000           -0.4094973             -11.1430
        83        2.0000           -0.4088441             -11.1252
        84        2.0000           -0.4079024             -11.0996
        85        2.0000           -0.4051179             -11.0238
        86        2.0000           -0.4048159             -11.0156
        87        2.0000           -0.4013461             -10.9212
        88        2.0000           -0.3899042             -10.6098
        89        2.0000           -0.3836747             -10.4403
        90        2.0000           -0.3492322              -9.5031
        91        2.0000           -0.3436228              -9.3505 (HOMO)
        92                         -0.2915830              -7.9344 (LUMO)
        93                         -0.2866536              -7.8002
        94                         -0.2426930              -6.6040
        95                         -0.2358430              -6.4176
        96                         -0.2307511              -6.2791
        97                         -0.2276891              -6.1957
        98                         -0.2220694              -6.0428
        99                         -0.2218973              -6.0381
       100                         -0.2161058              -5.8805
       101                         -0.2087993              -5.6817
       102                         -0.1919402              -5.2230
       ...                                ...                  ...
       179                          0.7285130              19.8238
      -------------------------------------------------------------
                  HL-Gap            0.0520398 Eh            1.4161 eV

     #   Z          covCN         q      C6AA      α(0)
     1   6 C        2.919    -0.038    28.947     8.823
     2   6 C        2.920    -0.029    28.729     8.790
     3   6 C        2.922    -0.047    29.176     8.858
     4   6 C        2.924     0.065    26.544     8.449
     5   7 N        2.752    -0.074    22.674     7.072
     6   6 C        2.925     0.065    26.546     8.449
     7   6 C        2.922    -0.047    29.171     8.857
     8   6 C        2.920    -0.029    28.726     8.789
     9   6 C        2.919    -0.038    28.944     8.822
    10   6 C        2.920    -0.029    28.728     8.789
    11   6 C        2.922    -0.047    29.172     8.857
    12   6 C        2.924     0.065    26.552     8.450
    13   6 C        2.920    -0.049    29.212     8.863
    14   6 C        2.924    -0.033    28.833     8.806
    15   6 C        2.976     0.002    27.987     8.678
    16   6 C        2.973     0.012    27.735     8.638
    17   6 C        2.921    -0.034    28.845     8.807
    18   6 C        2.916    -0.040    29.003     8.831
    19   6 C        2.990     0.076    26.290     8.411
    20   7 N        1.838    -0.238    27.063     7.709
    21   6 C        3.058     0.082    26.110     8.380
    22   6 C        3.056     0.084    26.078     8.375
    23   7 N        1.839    -0.239    27.100     7.715
    24   6 C        2.987     0.077    26.278     8.409
    25   6 C        2.925    -0.047    29.162     8.856
    26   6 C        3.027    -0.004    28.107     8.696
    27   6 C        2.913    -0.020    28.505     8.755
    28   6 C        2.919    -0.028    28.707     8.786
    29   6 C        2.918    -0.030    28.751     8.793
    30   6 C        2.977     0.016    27.657     8.626
    31   6 C        2.918    -0.030    28.757     8.794
    32   6 C        2.919    -0.028    28.705     8.786
    33   6 C        2.913    -0.020    28.510     8.756
    34   6 C        3.027    -0.004    28.104     8.696
    35   6 C        3.139    -0.007    27.963     8.654
    36   6 C        2.924    -0.033    28.832     8.806
    37   6 C        2.920    -0.048    29.199     8.861
    38   6 C        2.922    -0.047    29.173     8.857
    39   6 C        2.920    -0.029    28.727     8.789
    40   1 H        0.926     0.031     2.578     2.511
    41   1 H        0.926     0.032     2.560     2.502
    42   1 H        0.926     0.032     2.560     2.502
    43   1 H        0.926     0.032     2.552     2.498
    44   1 H        0.926     0.032     2.554     2.499
    45   1 H        0.926     0.031     2.577     2.510
    46   1 H        0.926     0.032     2.561     2.503
    47   1 H        0.926     0.032     2.561     2.503
    48   1 H        0.926     0.033     2.543     2.494
    49   1 H        0.926     0.035     2.520     2.482
    50   1 H        0.926     0.039     2.457     2.451
    51   1 H        0.926     0.051     2.307     2.375
    52   1 H        0.926     0.052     2.298     2.371
    53   1 H        0.926     0.049     2.332     2.388
    54   1 H        0.926     0.038     2.474     2.460
    55   1 H        0.926     0.038     2.482     2.464
    56   1 H        0.926     0.037     2.484     2.464
    57   1 H        0.926     0.038     2.474     2.460
    58   1 H        0.926     0.049     2.333     2.389
    59   1 H        0.926     0.037     2.487     2.466
    60   1 H        0.926     0.034     2.534     2.489
    61   1 H        0.926     0.032     2.560     2.502
    62   1 H        0.926     0.032     2.561     2.502

molecular dipole:
                 x           y           z       tot (Debye)
 q only:        0.020       0.200       0.002
   full:        0.107       0.218       0.005       0.618

 projected vibrational frequencies (cm⁻¹)
eigval :       -0.00    -0.00     0.00     0.00     0.00     0.00
eigval :       13.32    16.52    20.67    39.52    47.58    50.88
eigval :       65.36    68.21    75.67    86.82   105.69   131.57
eigval :      145.97   152.74   155.63   180.44   202.92   216.20
eigval :      233.74   259.98   282.06   294.11   306.88   316.69
eigval :      336.23   360.57   377.99   379.64   381.33   382.76
eigval :      392.88   403.39   422.36   424.19   446.14   454.22
eigval :      461.77   475.77   488.71   492.27   511.33   538.95
eigval :      562.19   571.80   576.97   580.94   584.78   590.04
eigval :      593.74   594.06   604.74   627.81   642.55   659.99
eigval :      666.31   678.27   686.97   694.21   701.99   734.51
eigval :      742.63   755.29   757.26   761.92   785.87   790.34
eigval :      807.01   812.42   815.30   833.44   868.61   874.76
eigval :      876.30   879.00   883.17   891.64   892.52   893.87
eigval :      896.94   910.28   912.42   916.45   922.37   922.59
eigval :      927.65   927.74   928.78   929.23   929.59   930.45
eigval :      935.17   969.51   985.70  1005.16  1017.91  1057.62
eigval :     1069.56  1080.25  1083.24  1084.19  1120.41  1121.92
eigval :     1124.13  1124.64  1143.55  1153.69  1178.64  1180.71
eigval :     1180.80  1187.35  1189.76  1195.60  1197.69  1208.00
eigval :     1216.88  1227.66  1232.02  1240.46  1260.94  1272.24
eigval :     1278.72  1281.52  1291.29  1296.28  1314.44  1319.82
eigval :     1326.74  1327.29  1329.31  1334.82  1365.48  1373.94
eigval :     1398.33  1400.09  1410.56  1425.28  1436.39  1441.29
eigval :     1443.35  1454.15  1471.90  1476.40  1484.46  1491.05
eigval :     1501.84  1550.79  1557.15  1573.09  1577.47  1581.40
eigval :     1585.25  1593.03  1594.97  1600.93  1607.62  1615.18
eigval :     1616.14  3071.07  3072.72  3075.88  3076.27  3076.93
eigval :     3077.45  3077.78  3080.90  3082.04  3082.56  3084.56
eigval :     3086.06  3086.81  3088.91  3089.85  3090.62  3092.56
eigval :     3097.42  3097.51  3097.87  3098.05  3100.65  3101.29

   temp. (K)  partition function   enthalpy   heat capacity  entropy
                                   cal/mol     cal/K/mol   cal/K/mol   J/K/mol
 298.15  VIB  0.213E+13            16726.744    110.242    102.376
         ROT  0.596E+08              888.752      2.981     38.560
         INT  0.127E+21            17615.497    113.223    140.936
         TR   0.107E+29             1481.254      4.968     44.481
         TOT                       19096.7506   118.1907   185.4172   775.7858

       T/K    H(0)-H(T)+PV         H(T)/Eh          T*S/Eh         G(T)/Eh
   ------------------------------------------------------------------------
    298.15    0.304326E-01    0.502665E+00    0.880977E-01    0.414568E+00
   ------------------------------------------------------------------------

         :::::::::::::::::::::::::::::::::::::::::::::::::::::
         ::                  THERMODYNAMIC                  ::
         :::::::::::::::::::::::::::::::::::::::::::::::::::::
         :: total free energy         -97.189489550289 Eh   ::
         ::.................................................::
         :: total energy              -97.604057277413 Eh   ::
         :: zero point energy           0.472232836145 Eh   ::
         :: G(RRHO) w/o ZPVE           -0.057665109021 Eh   ::
         :: G(RRHO) contrib.            0.414567727124 Eh   ::
         :::::::::::::::::::::::::::::::::::::::::::::::::::::

           -------------------------------------------------
          | TOTAL ENERGY              -97.604057277413 Eh   |
          | TOTAL ENTHALPY            -97.101391832055 Eh   |
          | TOTAL FREE ENERGY         -97.189489550289 Eh   |
          | GRADIENT NORM               0.000027274444 Eh/α |
          | HOMO-LUMO GAP               1.416074886377 eV   |
           -------------------------------------------------

 * finished run on 2025/08/22 at 23:22:52.903
