   * xtb version 6.7.1 (edcfbbe) compiled by 'albert@albert-system' on 2024-07-22

   ID    Z sym.   atoms
    1    6 C      1-4, 6-19, 21, 22, 24-39
    2    7 N      5, 20, 23
    3    1 H      40-62

          program call               : xtb data2507/gas/TPA-AP/TPA-AP_gas_S0_finalOpt.xtbopt.xyz --gfn 2 --spinpol --tblite --uhf 2 --ohess vtight --parallel 40 --molden --ceasefiles --namespace data2507/gas/TPA-AP/TPA-AP_gas_T1_preOpt
 * total energy  :   -97.5470683 Eh     change        0.1893312E-09 Eh
 * total energy  :   -97.5507686 Eh     change       -0.3700368E-02 Eh
 * total energy  :   -97.5521034 Eh     change       -0.1334787E-02 Eh
 * total energy  :   -97.5522655 Eh     change       -0.1620759E-03 Eh
 * total energy  :   -97.5523304 Eh     change       -0.6493363E-04 Eh
 * total energy  :   -97.5523356 Eh     change       -0.5189798E-05 Eh
 * total energy  :   -97.5523380 Eh     change       -0.2367940E-05 Eh
 * total energy  :   -97.5523401 Eh     change       -0.2053711E-05 Eh
 * total energy  :   -97.5523412 Eh     change       -0.1153997E-05 Eh
 * total energy  :   -97.5523424 Eh     change       -0.1208318E-05 Eh
 * total energy  :   -97.5523565 Eh     change       -0.2477969E-05 Eh
 * total energy  :   -97.5523580 Eh     change       -0.1513546E-05 Eh
 * total energy  :   -97.5523586 Eh     change       -0.6287103E-06 Eh
 * total energy  :   -97.5523588 Eh     change       -0.2191875E-06 Eh
 * total energy  :   -97.5523592 Eh     change       -0.4009320E-06 Eh
 * total energy  :   -97.5523594 Eh     change       -0.1457554E-06 Eh
 * total energy  :   -97.5523595 Eh     change       -0.1391599E-06 Eh
 * total energy  :   -97.5523596 Eh     change       -0.1048118E-06 Eh
 * total energy  :   -97.5523596 Eh     change       -0.4570589E-07 Eh
   *** GEOMETRY OPTIMIZATION CONVERGED AFTER 27 ITERATIONS ***

 final structure:
================
62
 xtb: 6.7.1 (edcfbbe)
C           -8.13956629165897       -2.91254933370416        0.03827466239843
C           -6.96112828760558       -3.04987461117779       -0.67716671820112
C           -6.03055976404305       -2.02961190467710       -0.69606416990883
C           -6.26540608617321       -0.85117401207733        0.01279380511805
N           -5.32379218599299        0.18315357029409        0.00054466675982
C           -5.74784400184231        1.51604359830468       -0.01470984707332
C           -5.04476310196493        2.49024792961326        0.69448420140405
C           -5.46510666221926        3.80558526439981        0.67256089647906
C           -6.59174138599497        4.17112789232482       -0.04610398432624
C           -7.29565196385773        3.20700938843701       -0.74922126226891
C           -6.87925097694984        1.89023603219397       -0.74011554808162
C           -3.95808162281764       -0.11570065819943        0.00445442898678
C           -3.46888951699756       -1.19992780441771        0.73448232506713
C           -2.12288804165791       -1.49418642458038        0.73183272363861
C           -1.21332340237054       -0.71512974285129        0.01428010891794
C            0.21624792443761       -1.02809182351084        0.01770090283587
C            0.66203234682250       -2.34838679937206        0.02891900240658
C            2.01111728758930       -2.64729164048132        0.02082860158354
C            2.97790614990509       -1.64502460808046        0.01073359171983
N            4.28616659210300       -1.90567185362679        0.00723483262795
C            5.17120452389438       -0.93022997865207        0.00036464391358
C            4.72551079672339        0.43611584694199       -0.00334176699042
N            3.44574052612532        0.71503561996431       -0.00235453151603
C            2.52728075342684       -0.26474397675348        0.00311261370261
C            1.16745810212643       -0.00343464768318        0.00350341070437
C            5.89380614154181        1.28979927549872       -0.00734707281170
C            6.11401534210722        2.64665385849029       -0.01165784314246
C            7.44567259083036        3.10168486560375       -0.01509369279587
C            8.52819017705158        2.25379637458329       -0.01425721347435
C            8.33532954890005        0.85211438064425       -0.00972529550887
C            9.31591478535739       -0.16936904423156       -0.00794347966075
C            8.93518919187006       -1.49070934647113       -0.00324055150835
C            7.59068488224245       -1.90483025961824        0.00007502864119
C            6.61225639808620       -0.93673444066980       -0.00155654934328
C            7.01163936099257        0.42294233745405       -0.00644933785211
C           -1.71038181766933        0.37122747512479       -0.70835660270762
C           -3.05645557417320        0.66443846002945       -0.72100966452907
C           -7.45190557821716       -0.71962634979593        0.73473209212421
C           -8.37939413323964       -1.74289989029904        0.74098241670724
H           -8.86567347634308       -3.71110526217798        0.04816120025665
H           -6.76826300785507       -3.95581641761801       -1.23275981190080
H           -5.11748804323463       -2.13436347399976       -1.26359987542506
H           -4.17255520857457        2.20577311756905        1.26461121239439
H           -4.91330502890902        4.54938584992041        1.22831872329360
H           -6.91876307082224        5.19968691175821       -0.05821890679067
H           -8.17177235204575        3.48365955931255       -1.31711728720138
H           -7.42340515037615        1.14244157949248       -1.29831276647456
H           -4.15444403174651       -1.80317016287155        1.31177906685387
H           -1.76398194727243       -2.32309870196750        1.32362886897676
H           -0.05460208370589       -3.15546957181056        0.01545980258169
H            2.34856149383743       -3.67220311842859        0.01764528374565
H            0.85710585521916        1.02971319860316        0.02017879458730
H            5.29831142945683        3.35338675751684       -0.01239885118603
H            7.61656463628252        4.16901444069892       -0.01849902231999
H            9.53172835960141        2.65410363633955       -0.01696542389442
H           10.36315049901954        0.09561707845167       -0.01025971620607
H            9.69982195236485       -2.25487132582804       -0.00198797245748
H            7.34644836210197       -2.95605459651225        0.00376058186469
H           -1.03394134267986        0.97387808584664       -1.29578969534611
H           -3.42421161944973        1.49784354068960       -1.30182071008614
H           -7.63630883079442        0.18688323969600        1.29250247424954
H           -9.29268733242249       -1.62924501227966        1.30631783573744

 projected vibrational frequencies (cm⁻¹)
eigval :       -0.00    -0.00    -0.00     0.00     0.00     0.00
eigval :       13.17    16.56    21.12    39.44    47.48    50.97
eigval :       65.02    68.00    75.48    91.10   105.57   127.12
eigval :      148.30   152.72   154.41   181.04   202.43   215.49
eigval :      233.10   248.42   272.32   289.14   295.25   316.92
eigval :      332.72   356.02   377.45   378.95   380.56   382.45
eigval :      392.66   404.27   419.06   420.44   428.51   459.77
eigval :      461.45   474.31   487.05   492.26   508.58   528.51
eigval :      548.16   564.86   565.51   576.48   582.33   586.78
eigval :      588.67   591.96   595.05   618.35   631.30   635.52
eigval :      659.45   663.52   669.09   669.80   682.12   688.93
eigval :      720.25   732.88   756.94   761.05   768.05   786.49
eigval :      797.01   800.62   805.71   806.37   823.65   852.97
eigval :      868.01   873.94   875.74   877.25   880.22   885.08
eigval :      885.31   892.38   894.18   910.14   916.84   916.88
eigval :      922.93   925.95   927.50   927.58   928.94   929.67
eigval :      929.97   964.10   984.19   994.32  1004.68  1018.85
eigval :     1047.31  1056.67  1074.93  1083.03  1083.91  1090.17
eigval :     1114.69  1122.00  1124.36  1141.11  1148.39  1179.32
eigval :     1180.65  1180.76  1182.35  1186.22  1195.24  1197.42
eigval :     1204.10  1216.86  1226.36  1231.26  1241.88  1244.57
eigval :     1260.24  1272.37  1278.51  1281.05  1287.38  1313.01
eigval :     1314.46  1319.57  1323.82  1326.87  1327.76  1348.71
eigval :     1365.69  1377.10  1390.14  1400.90  1415.35  1419.05
eigval :     1430.82  1436.31  1443.45  1470.41  1474.02  1478.67
eigval :     1484.57  1502.11  1519.91  1539.47  1552.20  1575.49
eigval :     1579.50  1579.56  1587.88  1591.62  1592.49  1599.01
eigval :     1612.70  3070.59  3071.90  3076.72  3077.17  3077.48
eigval :     3078.13  3078.36  3079.82  3082.26  3085.24  3085.90
eigval :     3086.81  3087.84  3089.82  3090.80  3091.01  3091.74
eigval :     3094.74  3096.16  3096.55  3097.81  3098.11  3098.61

   temp. (K)  partition function   enthalpy   heat capacity  entropy
                                   cal/mol     cal/K/mol   cal/K/mol   J/K/mol
 298.15  VIB  0.253E+13            16939.105    111.921    103.449
         ROT  0.600E+08              888.752      2.981     38.572
         INT  0.152E+21            17827.857    114.902    142.021
         TR   0.107E+29             1481.254      4.968     44.481
         TOT                       19309.1110   119.8697   186.5014   780.3218

       T/K    H(0)-H(T)+PV         H(T)/Eh          T*S/Eh         G(T)/Eh
   ------------------------------------------------------------------------
    298.15    0.307710E-01    0.499138E+00    0.886128E-01    0.410525E+00
   ------------------------------------------------------------------------

         :::::::::::::::::::::::::::::::::::::::::::::::::::::
         ::                  THERMODYNAMIC                  ::
         :::::::::::::::::::::::::::::::::::::::::::::::::::::
         :: total free energy         -97.141834484080 Eh   ::
         ::.................................................::
         :: total energy              -97.552359668424 Eh   ::
         :: zero point energy           0.468366981867 Eh   ::
         :: G(RRHO) w/o ZPVE           -0.057841797523 Eh   ::
         :: G(RRHO) contrib.            0.410525184344 Eh   ::
         :::::::::::::::::::::::::::::::::::::::::::::::::::::

           -------------------------------------------------
          | TOTAL ENERGY              -97.552359668424 Eh   |
          | TOTAL ENTHALPY            -97.053221659591 Eh   |
          | TOTAL FREE ENERGY         -97.141834484080 Eh   |
          | GRADIENT NORM               0.000108274767 Eh/α |
           -------------------------------------------------

 * finished run on 2025/08/22 at 23:22:58.749
