   * xtb version 6.7.1 (edcfbbe) compiled by 'albert@albert-system' on 2024-07-22

   ID    Z sym.   atoms
    1    6 C      1-9, 11-16, 18-23, 25-34, 36-39, 41-57, 59-64, 66-80, 82-87
    2    7 N      10, 40
    3    8 O      17, 58, 65, 81
    4    5 B      24, 35
    5    1 H      88-141

          program call               : xtb data2507/toluene/F2AcBO/F2AcBO_toluene_T1_crest.xyz --gfn 2 --uhf 2 --gbsa toluene --ohess vtight --parallel 40 --molden --ceasefiles --namespace data2507/toluene/F2AcBO/F2AcBO_toluene_T1_finalOpt
      * Solvation model:               GBSA
        Solvent                        toluene
        Solvent mass                       9.2140E+01 g/mol
          :  Hamiltonian                  GFN2-xTB          :
 * total energy  :  -221.4679266 Eh     change       -0.2279725E-07 Eh
 * total energy  :  -221.4681232 Eh     change       -0.1965943E-03 Eh
 * total energy  :  -221.4682314 Eh     change       -0.1082087E-03 Eh
 * total energy  :  -221.4682787 Eh     change       -0.4727789E-04 Eh
 * total energy  :  -221.4683300 Eh     change       -0.5135862E-04 Eh
 * total energy  :  -221.4683987 Eh     change       -0.6865776E-04 Eh
 * total energy  :  -221.4684356 Eh     change       -0.3693145E-04 Eh
 * total energy  :  -221.4684617 Eh     change       -0.2603522E-04 Eh
 * total energy  :  -221.4684763 Eh     change       -0.1466319E-04 Eh
 * total energy  :  -221.4684950 Eh     change       -0.1868095E-04 Eh
 * total energy  :  -221.4686225 Eh     change       -0.3800616E-06 Eh
 * total energy  :  -221.4686228 Eh     change       -0.2931678E-06 Eh
 * total energy  :  -221.4686231 Eh     change       -0.2458838E-06 Eh
 * total energy  :  -221.4686233 Eh     change       -0.2153658E-06 Eh
 * total energy  :  -221.4686235 Eh     change       -0.2222191E-06 Eh
 * total energy  :  -221.4686238 Eh     change       -0.2893105E-06 Eh
 * total energy  :  -221.4686242 Eh     change       -0.3560710E-06 Eh
 * total energy  :  -221.4686246 Eh     change       -0.4463060E-06 Eh
 * total energy  :  -221.4686246 Eh     change       -0.4156334E-08 Eh
   *** GEOMETRY OPTIMIZATION CONVERGED AFTER 68 ITERATIONS ***

 final structure:
================
141
 xtb: 6.7.1 (edcfbbe)
C           -7.01468918432208        0.28878112542981       -3.02031919087656
C           -5.83790243100797       -0.54774248654737       -3.55742974657425
C           -6.05487171540659       -0.87943898610827       -5.04770714280958
C           -4.57386937920104        0.26999645845672       -3.40961804933669
C           -4.46660188620450        1.48231534903897       -4.07711403482002
C           -3.35348711442721        2.29244345743697       -3.95398241639253
C           -2.33031088467101        1.91274125749501       -3.10025166161792
C           -2.41624038335873        0.72265570138396       -2.41445389915902
C           -3.50961025620779       -0.13845641878601       -2.58988140927645
N           -3.53658020494020       -1.36354630506372       -1.94478892216627
C           -2.42199290423282       -1.75770073788810       -1.16063032149343
C           -1.16293897233283       -1.91590119491862       -1.74311492561300
C           -0.07850616575969       -2.23988568297673       -0.96062500886720
C           -0.17554617152226       -2.45278587434455        0.42915977594266
C           -1.48557917795690       -2.41295305945130        0.96538780719680
C           -2.57718069377117       -2.02562808372350        0.19894698553925
O           -1.80155105328765       -2.73705217378853        2.25411111464407
C           -0.85242128864130       -3.16496735038813        3.13535208573333
C           -1.29010521485958       -3.62527780378535        4.36983787871662
C           -0.35731154730890       -4.03727600801276        5.31000897530094
C            0.99914447951605       -3.97911424325093        5.03504724200007
C            1.42295645444611       -3.51968421852008        3.79258345543804
C            0.50836765377684       -3.12382419424004        2.80600609156297
B            0.97866215326403       -2.70085279809087        1.41527325163879
C            2.51008970887849       -2.53776825621694        1.30708473404905
C            3.21274261481581       -1.96386357838249        0.23732410267441
C            4.58021616240185       -1.73861522197669        0.24706379947083
C            5.27240941243713       -0.99772186618696       -0.90380826161204
C            5.22389869258222        0.50352911040353       -0.67467908818007
C            6.26669715753998        1.32549274029012       -1.09702786728367
C            6.19171289084092        2.69157692798069       -0.90387186415641
C            5.05400637601841        3.26629210786446       -0.34321746192434
C            3.94178815870478        2.47731366585517        0.01585580292752
C            4.09689869711690        1.09249227400104       -0.12819443648704
B            2.67465289378214        3.21375539158117        0.50082963131609
C            1.22848676223721        2.75073145699618        0.76182954929809
C            0.69582283915293        1.47132637053500        0.51703910231071
C           -0.61754961079544        1.14897974614136        0.76797521910047
C           -1.48549728595148        2.11123926116605        1.27863095173185
N           -2.84512179146503        1.77033832348162        1.51884964052100
C           -3.83309559595850        2.28592373102944        0.70216451099609
C           -3.49639890747561        3.19081945852240       -0.31443168571684
C           -4.46293957912064        3.73751746335331       -1.12735905704140
C           -5.79078473650833        3.37941611017457       -0.95858502430421
C           -6.12661408557036        2.46560354681887        0.02308191034237
C           -5.17507873274986        1.90556822328023        0.86501009970202
C           -5.60844211827512        0.90039959393399        1.91027317958740
C           -6.63016475877295        1.57159854024051        2.85130888793958
C           -6.25987498805007       -0.30053636594536        1.19639387684929
C           -4.44188001282771        0.42108024726866        2.74767945229013
C           -4.66539239460435       -0.47282600909981        3.78635185749611
C           -3.64939997503614       -0.88845552725840        4.62632484120001
C           -2.36541512394058       -0.40020360306176        4.43866689997238
C           -2.11037414186245        0.47304853631042        3.40655974159676
C           -3.13350364581775        0.88553711691848        2.53972407192420
C           -1.00935104439980        3.39323317501509        1.53484870086119
C            0.31915661954452        3.70777488931507        1.27003084969014
O            0.64514526869745        5.00693977731406        1.54720104978295
C            1.86801775350536        5.52362590155220        1.23035818270320
C            2.05983649648300        6.88182357434279        1.44812003172773
C            3.27999176529835        7.45458926758483        1.12158270891722
C            4.29993228312018        6.69093472577152        0.57775289234730
C            4.09735114545072        5.33066365237697        0.37138728964552
C            2.88192399161866        4.71328911709149        0.70200557067381
O            5.12102313438399        4.62481329536984       -0.18266246352500
C            6.66181656525170       -1.56421357618062       -1.11319333666361
C            7.80779873183917       -1.39130682613406       -0.36178831086628
C            8.96477926133651       -2.06498390092882       -0.73222761963881
C            8.97940388294699       -2.89832621382917       -1.83989151594508
C            7.84801116871918       -3.04290654589418       -2.62631409918383
C            6.69557324519051       -2.36395355400383       -2.26594176177486
C            5.42726277774088       -2.22259736937321       -2.96208619776896
C            5.01071664011459       -2.71810961566793       -4.18680985413884
C            3.78705869189560       -2.30566881418833       -4.68950772224788
C            3.01308913102261       -1.38889795511837       -3.99553902239063
C            3.42250724609684       -0.89788745894782       -2.76189704741094
C            4.61484137961306       -1.34437808301923       -2.23043382193523
C            5.30086201622971       -2.15600784236434        1.36428102968407
C            4.65849503917067       -2.74780267396594        2.43400353694183
C            3.27831694784828       -2.91678365155043        2.42643345645611
O            2.76484851026235       -3.46427642909632        3.57184100193084
C           -4.60968326439315       -2.22845394800959       -2.07833613865034
C           -4.54709885610430       -3.51338578710179       -1.51745666761932
C           -5.62000449936125       -4.37300876143583       -1.58825058742659
C           -6.78167457309088       -3.97613825333705       -2.23253992903115
C           -6.82779605340225       -2.73495935362609       -2.83930590052311
C           -5.75689105465140       -1.85170964651742       -2.79458383016272
H           -7.14319415418928        1.19028797535791       -3.61161846642522
H           -6.81754785567105        0.57838059079289       -1.99087478618794
H           -7.93998221543982       -0.27848100970294       -3.05476894443106
H           -6.97533583396388       -1.43782488504637       -5.18906142964032
H           -6.11311079150606        0.02738197417569       -5.64191173650865
H           -5.22718584187910       -1.48121015733047       -5.41892307484409
H           -5.27248503327966        1.80848663612595       -4.71526802096615
H           -3.29341071894748        3.21876354114793       -4.50434418474320
H           -1.46548672458590        2.54399143214734       -2.96210241197862
H           -1.62557039087793        0.45382066614161       -1.73446233397935
H           -1.05033240087183       -1.77876587853052       -2.80857702096178
H            0.88349879482768       -2.35743590604644       -1.43290255463823
H           -3.54232982517818       -1.95058748804089        0.67547494926516
H           -2.34745065118851       -3.65710700798985        4.57856347999794
H           -0.69146340883991       -4.40021102894839        6.27009366229368
H            1.73292570576983       -4.28256138783389        5.76592264113948
H            2.63928124703563       -1.67117145449258       -0.62490801705010
H            7.14255591384254        0.90275073120949       -1.56568910816003
H            7.00964209217496        3.33638832914600       -1.19017897630593
H            3.29940117845329        0.45902697769972        0.22195007794450
H            1.33664488250886        0.70823530467159        0.10931809373188
H           -0.98358070282252        0.15191145704784        0.57890640807349
H           -2.46428051708152        3.46271418993583       -0.45903437554169
H           -4.17863574826228        4.44142241351754       -1.89378682431273
H           -6.55695750733282        3.80286843696602       -1.58911788548844
H           -7.16273980354015        2.18674754657012        0.13579105238449
H           -7.00127603452425        0.86351265686030        3.58596401928106
H           -6.16065739907216        2.40014110146233        3.37835316335240
H           -7.47703793371947        1.95665579570896        2.29140550575797
H           -6.50666866451857       -1.08485742365928        1.90596410949590
H           -5.57776677414915       -0.71051976166912        0.45435539182744
H           -7.17326744239785        0.00067666325772        0.69206544892572
H           -5.66118832032458       -0.85279578166038        3.95481055563543
H           -3.85901645191917       -1.57578917679635        5.43141287973012
H           -1.56323593897799       -0.70087943412464        5.09535087323496
H           -1.11127714996342        0.85518611488663        3.26869214756096
H           -1.65967243442594        4.15647528234354        1.93502181649206
H            1.25827712398694        7.47292311558612        1.86348435257566
H            3.43483902008811        8.50971895951679        1.28811883751701
H            5.24866429530218        7.13138359860085        0.31229320851268
H            7.82390840509808       -0.71815906793919        0.48426278605264
H            9.86604687826943       -1.93199837728110       -0.15090986139618
H            9.88804450408810       -3.41994562976357       -2.10439251648941
H            7.86928560289772       -3.66319592627354       -3.51025080709170
H            5.63357971080012       -3.40064092658359       -4.74596842894226
H            3.44507851023916       -2.68137281296348       -5.64329769817069
H            2.08264269517271       -1.04332821141095       -4.42234092914249
H            2.82726923617795       -0.15487809427347       -2.25086863828097
H            6.36815107914187       -2.02681404846382        1.41602167257086
H            5.21577173553143       -3.06690960170933        3.30259713396670
H           -3.64192477749022       -3.83886252405047       -1.03120295235929
H           -5.54697712383304       -5.35438006783246       -1.14438481592885
H           -7.63379836199550       -4.63645623930470       -2.28207532853207
H           -7.72424988791956       -2.45410972818358       -3.36950255440278

          :  Hamiltonian                  GFN2-xTB          :
         :: gradient norm              0.000054518978 Eh/a0 ::
         :: HOMO-LUMO gap              0.010700153883 eV    ::
         :: SCC energy              -225.312582161790 Eh    ::
         :: -> dispersion             -0.237972535605 Eh    ::
         :: -> Gsolv                  -0.077935278058 Eh    ::
         :: repulsion energy           3.843957561549 Eh    ::

    * Orbital Energies and Occupations

         #    Occupation            Energy/Eh            Energy/eV
      -------------------------------------------------------------
         1        2.0000           -0.7225254             -19.6609
       ...           ...                  ...                  ...
       194        2.0000           -0.3918464             -10.6627
       195        2.0000           -0.3857086             -10.4957
       196        2.0000           -0.3842047             -10.4547
       197        2.0000           -0.3827905             -10.4163
       198        2.0000           -0.3816548             -10.3854
       199        2.0000           -0.3799095             -10.3379
       200        2.0000           -0.3772326             -10.2650
       201        2.0000           -0.3754299             -10.2160
       202        1.9914           -0.3632895              -9.8856
       203        1.9628           -0.3618693              -9.8470
       204        1.6146           -0.3592224              -9.7749
       205        1.4313           -0.3585162              -9.7557
       206        0.5516           -0.2652105              -7.2167 (HOMO)
       207        0.4484           -0.2648171              -7.2060 (LUMO)
       208                         -0.2486355              -6.7657
       209                         -0.2393420              -6.5128
       210                         -0.2383251              -6.4852
       211                         -0.2319923              -6.3128
       212                         -0.2308090              -6.2806
       213                         -0.2307632              -6.2794
       214                         -0.2299652              -6.2577
       215                         -0.2289006              -6.2287
       216                         -0.2280461              -6.2055
       217                         -0.2250503              -6.1239
       ...                                ...                  ...
       402                          0.7304193              19.8757
      -------------------------------------------------------------
                  HL-Gap            0.0003934 Eh            0.0107 eV

     #   Z          covCN         q      C6AA      α(0)
     1   6 C        3.761    -0.109    22.634     6.782
     2   6 C        3.910     0.024    20.118     6.375
     3   6 C        3.761    -0.107    22.599     6.777
     4   6 C        2.980    -0.004    28.113     8.697
     5   6 C        2.926    -0.034    28.845     8.808
     6   6 C        2.917    -0.033    28.819     8.803
     7   6 C        2.918    -0.028    28.707     8.786
     8   6 C        2.923    -0.051    29.265     8.871
     9   6 C        2.927     0.060    26.662     8.468
    10   7 N        2.752    -0.025    21.739     6.925
    11   6 C        2.925     0.046    26.967     8.516
    12   6 C        2.914    -0.049    29.227     8.865
    13   6 C        2.922    -0.044    29.083     8.844
    14   6 C        2.882    -0.092    30.303     9.025
    15   6 C        2.871     0.135    25.044     8.203
    16   6 C        2.916    -0.074    29.849     8.959
    17   8 O        1.711    -0.252    18.167     5.755
    18   6 C        2.873     0.130    25.147     8.220
    19   6 C        2.913    -0.068    29.706     8.937
    20   6 C        2.922    -0.038    28.951     8.824
    21   6 C        2.912    -0.069    29.720     8.939
    22   6 C        2.873     0.132    25.121     8.216
    23   6 C        2.888    -0.121    31.087     9.141
    24   5 B        2.724     0.180    18.673     7.241
    25   6 C        2.882    -0.094    30.358     9.033
    26   6 C        2.930    -0.051    29.273     8.873
    27   6 C        2.968     0.007    27.854     8.657
    28   6 C        3.945     0.008    20.371     6.414
    29   6 C        2.970     0.005    27.903     8.665
    30   6 C        2.923    -0.042    29.042     8.838
    31   6 C        2.914    -0.061    29.508     8.908
    32   6 C        2.872     0.130    25.150     8.221
    33   6 C        2.882    -0.093    30.342     9.030
    34   6 C        2.930    -0.051    29.271     8.873
    35   5 B        2.724     0.180    18.671     7.240
    36   6 C        2.881    -0.092    30.318     9.027
    37   6 C        2.923    -0.044    29.099     8.846
    38   6 C        2.915    -0.052    29.291     8.875
    39   6 C        2.928     0.049    26.911     8.507
    40   7 N        2.754    -0.026    21.751     6.927
    41   6 C        2.927     0.061    26.643     8.465
    42   6 C        2.923    -0.050    29.232     8.866
    43   6 C        2.918    -0.029    28.713     8.787
    44   6 C        2.917    -0.034    28.838     8.806
    45   6 C        2.926    -0.035    28.872     8.812
    46   6 C        2.979    -0.005    28.143     8.702
    47   6 C        3.909     0.024    20.111     6.374
    48   6 C        3.761    -0.108    22.609     6.778
    49   6 C        3.760    -0.102    22.493     6.761
    50   6 C        2.978    -0.003    28.103     8.696
    51   6 C        2.926    -0.033    28.826     8.805
    52   6 C        2.918    -0.030    28.745     8.792
    53   6 C        2.918    -0.024    28.614     8.772
    54   6 C        2.923    -0.046    29.152     8.854
    55   6 C        2.930     0.063    26.588     8.456
    56   6 C        2.916    -0.072    29.788     8.950
    57   6 C        2.870     0.134    25.062     8.206
    58   8 O        1.711    -0.252    18.181     5.757
    59   6 C        2.871     0.130    25.154     8.221
    60   6 C        2.912    -0.069    29.720     8.939
    61   6 C        2.922    -0.038    28.937     8.821
    62   6 C        2.912    -0.069    29.712     8.938
    63   6 C        2.871     0.131    25.121     8.216
    64   6 C        2.888    -0.121    31.080     9.140
    65   8 O        1.710    -0.253    18.192     5.759
    66   6 C        3.052     0.003    27.905     8.663
    67   6 C        2.915    -0.034    28.835     8.805
    68   6 C        2.921    -0.035    28.881     8.813
    69   6 C        2.920    -0.035    28.866     8.811
    70   6 C        2.914    -0.036    28.901     8.816
    71   6 C        3.038    -0.001    28.027     8.683
    72   6 C        3.037    -0.001    28.023     8.683
    73   6 C        2.915    -0.036    28.897     8.815
    74   6 C        2.920    -0.035    28.868     8.811
    75   6 C        2.922    -0.035    28.865     8.811
    76   6 C        2.915    -0.036    28.897     8.815
    77   6 C        3.056     0.004    27.882     8.660
    78   6 C        2.925    -0.045    29.122     8.850
    79   6 C        2.913    -0.061    29.515     8.909
    80   6 C        2.873     0.130    25.147     8.220
    81   8 O        1.710    -0.255    18.217     5.763
    82   6 C        2.927     0.060    26.662     8.468
    83   6 C        2.923    -0.049    29.222     8.865
    84   6 C        2.918    -0.029    28.727     8.789
    85   6 C        2.917    -0.034    28.836     8.806
    86   6 C        2.926    -0.034    28.842     8.807
    87   6 C        2.979    -0.003    28.095     8.695
    88   1 H        0.925     0.050     2.324     2.384
    89   1 H        0.925     0.041     2.433     2.439
    90   1 H        0.925     0.051     2.308     2.376
    91   1 H        0.925     0.050     2.317     2.380
    92   1 H        0.925     0.050     2.321     2.383
    93   1 H        0.925     0.035     2.523     2.484
    94   1 H        0.926     0.049     2.337     2.390
    95   1 H        0.926     0.041     2.442     2.443
    96   1 H        0.926     0.037     2.490     2.468
    97   1 H        0.926     0.044     2.398     2.422
    98   1 H        0.926     0.037     2.495     2.470
    99   1 H        0.926     0.039     2.456     2.451
   100   1 H        0.926     0.042     2.427     2.436
   101   1 H        0.926     0.043     2.412     2.428
   102   1 H        0.926     0.039     2.465     2.455
   103   1 H        0.926     0.037     2.490     2.468
   104   1 H        0.926     0.043     2.412     2.429
   105   1 H        0.926     0.029     2.607     2.525
   106   1 H        0.926     0.032     2.553     2.499
   107   1 H        0.926     0.041     2.441     2.443
   108   1 H        0.926     0.041     2.430     2.437
   109   1 H        0.926     0.034     2.531     2.488
   110   1 H        0.926     0.041     2.436     2.441
   111   1 H        0.926     0.041     2.437     2.441
   112   1 H        0.926     0.045     2.387     2.416
   113   1 H        0.926     0.049     2.332     2.388
   114   1 H        0.925     0.050     2.314     2.379
   115   1 H        0.925     0.035     2.512     2.478
   116   1 H        0.925     0.052     2.300     2.371
   117   1 H        0.925     0.048     2.345     2.395
   118   1 H        0.925     0.031     2.572     2.508
   119   1 H        0.925     0.051     2.310     2.377
   120   1 H        0.926     0.048     2.345     2.395
   121   1 H        0.926     0.040     2.444     2.445
   122   1 H        0.926     0.034     2.525     2.485
   123   1 H        0.926     0.035     2.515     2.480
   124   1 H        0.926     0.044     2.402     2.424
   125   1 H        0.926     0.040     2.443     2.444
   126   1 H        0.926     0.039     2.458     2.452
   127   1 H        0.926     0.038     2.469     2.457
   128   1 H        0.925     0.028     2.612     2.527
   129   1 H        0.926     0.029     2.600     2.521
   130   1 H        0.926     0.030     2.588     2.516
   131   1 H        0.926     0.031     2.570     2.507
   132   1 H        0.926     0.031     2.573     2.508
   133   1 H        0.926     0.031     2.568     2.506
   134   1 H        0.926     0.033     2.549     2.497
   135   1 H        0.926     0.035     2.519     2.482
   136   1 H        0.926     0.035     2.516     2.480
   137   1 H        0.926     0.031     2.568     2.506
   138   1 H        0.926     0.041     2.438     2.442
   139   1 H        0.926     0.039     2.467     2.456
   140   1 H        0.926     0.041     2.438     2.442
   141   1 H        0.926     0.048     2.344     2.394

molecular dipole:
                 x           y           z       tot (Debye)
 q only:       -6.882      -0.390      -2.118
   full:       -6.369      -0.354      -1.875      16.900

 projected vibrational frequencies (cm⁻¹)
eigval :       -0.00    -0.00     0.00     0.00     0.00     0.00
eigval :       -3.49     9.26    11.63    17.66    20.28    25.18
eigval :       25.39    31.75    34.26    37.01    41.77    47.44
eigval :       49.27    53.65    57.76    59.54    67.38    76.97
eigval :       79.61    81.58    84.62    87.42   100.77   102.60
eigval :      107.88   111.34   117.57   121.72   128.27   133.21
eigval :      137.43   140.24   146.56   150.54   151.77   157.03
eigval :      172.00   180.61   189.90   190.93   197.31   210.09
eigval :      210.19   214.16   219.21   226.33   234.77   235.86
eigval :      239.33   240.42   244.06   249.21   252.94   260.72
eigval :      267.69   285.18   292.91   297.28   299.81   308.13
eigval :      314.77   319.44   324.21   325.11   329.97   330.50
eigval :      332.71   343.17   345.80   353.95   355.04   369.01
eigval :      375.19   377.83   380.16   382.57   388.07   391.99
eigval :      393.78   401.49   404.98   411.39   411.62   419.38
eigval :      422.31   425.07   428.62   433.81   441.66   453.07
eigval :      453.30   457.79   461.83   462.94   465.48   484.63
eigval :      500.58   503.22   504.62   505.41   505.93   514.25
eigval :      515.48   529.07   530.39   539.94   541.04   542.51
eigval :      543.19   544.03   545.62   548.11   554.94   558.29
eigval :      566.11   572.18   579.18   583.46   584.04   584.33
eigval :      590.30   596.27   603.33   617.65   621.09   626.29
eigval :      628.28   632.34   640.13   641.39   651.28   660.38
eigval :      671.47   672.15   672.59   675.35   682.02   684.65
eigval :      687.76   687.96   689.26   691.86   701.36   701.42
eigval :      703.80   704.87   722.40   725.11   726.27   746.10
eigval :      753.74   761.70   772.25   773.32   773.63   778.20
eigval :      780.17   786.69   788.07   788.87   808.24   812.77
eigval :      813.72   817.25   821.35   824.37   825.57   826.61
eigval :      842.60   848.00   851.69   854.97   860.89   863.08
eigval :      866.46   871.99   873.88   874.04   874.45   874.93
eigval :      882.02   884.37   885.84   893.46   895.26   897.41
eigval :      899.32   899.80   901.02   902.23   905.90   907.09
eigval :      908.92   910.50   914.26   914.56   915.85   916.27
eigval :      917.58   918.23   919.03   922.20   923.88   929.47
eigval :      930.81   931.41   933.99   937.71   940.07   955.22
eigval :      959.21   977.14   982.81   989.95   999.06  1009.31
eigval :     1010.48  1013.10  1035.68  1037.85  1065.59  1072.98
eigval :     1073.56  1074.43  1076.60  1082.63  1084.82  1085.96
eigval :     1088.90  1090.13  1107.21  1108.42  1109.03  1113.48
eigval :     1114.20  1122.31  1125.42  1136.53  1137.08  1142.42
eigval :     1145.39  1147.40  1148.81  1150.16  1153.91  1155.40
eigval :     1165.77  1165.99  1174.28  1174.85  1175.50  1177.13
eigval :     1181.21  1182.07  1182.48  1184.08  1185.78  1190.23
eigval :     1195.76  1196.82  1201.39  1203.83  1212.16  1215.02
eigval :     1216.45  1220.08  1224.33  1228.30  1235.11  1236.35
eigval :     1238.67  1241.22  1242.08  1242.55  1243.51  1249.21
eigval :     1249.72  1256.92  1258.39  1259.12  1265.95  1267.71
eigval :     1272.07  1275.38  1285.35  1292.34  1292.92  1296.86
eigval :     1301.25  1305.54  1310.80  1316.79  1318.60  1320.65
eigval :     1324.83  1326.93  1327.95  1328.87  1334.05  1335.51
eigval :     1340.98  1342.07  1365.95  1375.91  1379.69  1383.27
eigval :     1390.12  1394.16  1397.12  1413.40  1414.28  1414.85
eigval :     1415.18  1416.14  1417.09  1418.26  1419.03  1426.51
eigval :     1427.06  1428.34  1429.99  1438.00  1439.20  1451.83
eigval :     1453.51  1454.34  1454.70  1460.90  1469.62  1472.00
eigval :     1474.94  1480.14  1480.89  1481.39  1483.04  1485.66
eigval :     1492.02  1492.43  1493.15  1496.87  1500.12  1504.85
eigval :     1518.70  1519.48  1524.83  1539.53  1546.47  1549.85
eigval :     1550.57  1552.16  1553.25  1560.59  1563.49  1565.56
eigval :     1575.90  1577.23  1578.57  1584.36  1587.21  1589.08
eigval :     1590.85  1600.46  1601.91  3026.31  3026.83  3028.84
eigval :     3040.91  3045.63  3048.34  3049.56  3050.04  3053.60
eigval :     3055.74  3058.38  3059.21  3062.76  3067.44  3067.76
eigval :     3071.88  3076.52  3077.27  3078.80  3078.97  3079.78
eigval :     3081.98  3082.69  3082.77  3083.23  3083.78  3085.07
eigval :     3087.57  3087.81  3089.42  3089.85  3089.98  3090.81
eigval :     3090.96  3091.57  3093.95  3094.79  3098.32  3098.59
eigval :     3098.99  3100.35  3101.10  3102.89  3105.03  3105.75
eigval :     3107.08  3108.87  3113.23  3119.21  3120.73  3127.01
eigval :     3128.39  3130.45  3137.29

   temp. (K)  partition function   enthalpy   heat capacity  entropy
                                   cal/mol     cal/K/mol   cal/K/mol   J/K/mol
 298.15  VIB  0.149E+32            41474.435    266.444    255.571
         ROT  0.287E+09              888.752      2.981     41.680
         INT  0.426E+40            42363.187    269.425    297.251
         TR   0.361E+29             1481.254      4.968     46.890
         TOT                       43844.4410   274.3928   344.1409  1439.8855

       T/K    H(0)-H(T)+PV         H(T)/Eh          T*S/Eh         G(T)/Eh
   ------------------------------------------------------------------------
    298.15    0.698706E-01    0.114917E+01    0.163512E+00    0.985656E+00
   ------------------------------------------------------------------------

         :::::::::::::::::::::::::::::::::::::::::::::::::::::
         ::                  THERMODYNAMIC                  ::
         :::::::::::::::::::::::::::::::::::::::::::::::::::::
         :: total free energy        -220.482968873552 Eh   ::
         ::.................................................::
         :: total energy             -221.468624603619 Eh   ::
         :: zero point energy           1.079297612688 Eh   ::
         :: G(RRHO) w/o ZPVE           -0.093641882621 Eh   ::
         :: G(RRHO) contrib.            0.985655730067 Eh   ::
         :::::::::::::::::::::::::::::::::::::::::::::::::::::

           -------------------------------------------------
          | TOTAL ENERGY             -221.468624603619 Eh   |
          | TOTAL ENTHALPY           -220.319456426712 Eh   |
          | TOTAL FREE ENERGY        -220.482968873552 Eh   |
          | GRADIENT NORM               0.000052058880 Eh/α |
          | HOMO-LUMO GAP               0.010704259129 eV   |
           -------------------------------------------------

 * finished run on 2025/07/18 at 11:16:51.170
