   * xtb version 6.7.1 (edcfbbe) compiled by 'albert@albert-system' on 2024-07-22

   ID    Z sym.   atoms
    1    6 C      1-9, 11-16, 18-23, 25-34, 36-39, 41-57, 59-64, 66-80, 82-87
    2    7 N      10, 40
    3    8 O      17, 58, 65, 81
    4    5 B      24, 35
    5    1 H      88-141

          program call               : xtb data2507/toluene/F2AcBO/F2AcBO.xyz --gfn 2 --gbsa toluene --ohess vtight --parallel 40 --molden --ceasefiles --namespace data2507/toluene/F2AcBO/F2AcBO_toluene_S0_preOpt
      * Solvation model:               GBSA
        Solvent                        toluene
        Solvent mass                       9.2140E+01 g/mol
          :  Hamiltonian                  GFN2-xTB          :
 * total energy  :  -221.3950246 Eh     change       -0.5959066E-08 Eh
 * total energy  :  -221.4700313 Eh     change       -0.7500664E-01 Eh
 * total energy  :  -221.5015004 Eh     change       -0.3146912E-01 Eh
 * total energy  :  -221.5140315 Eh     change       -0.1253110E-01 Eh
 * total energy  :  -221.5211994 Eh     change       -0.7167919E-02 Eh
 * total energy  :  -221.5259040 Eh     change       -0.4704640E-02 Eh
 * total energy  :  -221.5297219 Eh     change       -0.3817841E-02 Eh
 * total energy  :  -221.5330798 Eh     change       -0.3357960E-02 Eh
 * total energy  :  -221.5359662 Eh     change       -0.2886382E-02 Eh
 * total energy  :  -221.5382161 Eh     change       -0.2249862E-02 Eh
 * total energy  :  -221.5499785 Eh     change       -0.6456916E-06 Eh
 * total energy  :  -221.5499791 Eh     change       -0.6406694E-06 Eh
 * total energy  :  -221.5499798 Eh     change       -0.6880592E-06 Eh
 * total energy  :  -221.5499806 Eh     change       -0.8097377E-06 Eh
 * total energy  :  -221.5499816 Eh     change       -0.9976245E-06 Eh
 * total energy  :  -221.5499829 Eh     change       -0.1258433E-05 Eh
 * total energy  :  -221.5499841 Eh     change       -0.1259907E-05 Eh
 * total energy  :  -221.5499855 Eh     change       -0.1338852E-05 Eh
 * total energy  :  -221.5499855 Eh     change       -0.4337579E-08 Eh
   *** GEOMETRY OPTIMIZATION CONVERGED AFTER 221 ITERATIONS ***

 final structure:
================
141
 xtb: 6.7.1 (edcfbbe)
C           -9.36691591149532        5.61695111805221        0.13287715143614
C           -9.84536727212418        4.15975301344093       -0.01093715841204
C          -11.35096933046984        4.12316061800816       -0.33434590599624
C           -9.08992758452323        3.50707737005293       -1.15374058770641
C           -9.19146555504896        4.04040132471961       -2.43171478784501
C           -8.54593134945637        3.47768065861735       -3.51758732075708
C           -7.78414310361145        2.33775897611794       -3.33349332994715
C           -7.66723764120350        1.78584887278535       -2.07489686553373
C           -8.29998593837811        2.36659218540646       -0.97117198016629
N           -8.15288716242302        1.79524267782761        0.28385841946650
C           -7.34414481121155        0.63503967221784        0.41904575716505
C           -5.95268515462229        0.74190268775556        0.41042426354542
C           -5.17974196147757       -0.39127488784735        0.51733101077149
C           -5.73036041804668       -1.67532878895476        0.64108077788196
C           -7.13629152611828       -1.74751812668151        0.69854802163037
C           -7.93100069604741       -0.60604412217990        0.56964422889839
O           -7.84503586661906       -2.89494959094689        0.88164069715428
C           -7.23750513981254       -4.08954478704026        1.09074937505779
C           -8.05151287531293       -5.18262395322472        1.36554063313222
C           -7.46921220756520       -6.41913164455486        1.58654687867951
C           -6.09703574544482       -6.58617985905723        1.52779748385743
C           -5.29034110099797       -5.48966081375006        1.23960349196038
C           -5.84203179960624       -4.21729132943259        1.02227231400250
B           -4.95398761974558       -3.01360673856218        0.72415633367948
C           -3.46225055390684       -3.37975625739733        0.54212507092606
C           -2.44380767054162       -2.51805316955528        0.11461270370082
C           -1.13178427033258       -2.91801451101457       -0.03756989467525
C           -0.05887889752610       -1.93385059101442       -0.46247254288320
C            0.94809463786038       -2.55266518264926       -1.41328061893342
C            0.52583120403623       -3.44095576162329       -2.40441301872226
C            1.43402104425015       -3.97151739615625       -3.28933410379426
C            2.78352557209740       -3.61608864972103       -3.21574843703102
C            3.24017218848767       -2.69155857798436       -2.25758838987443
C            2.27979363393389       -2.19265166508543       -1.36767078053419
B            4.74589969319681       -2.33345704986769       -2.28086540487847
C            5.60376072326621       -1.31329966129002       -1.48771071026632
C            5.13825656086151       -0.34493549658892       -0.58624795328402
C            5.97979062798430        0.50419049653289        0.09570855471330
C            7.35765026414148        0.42068885831438       -0.10492226644977
N            8.24174508812864        1.28338844099756        0.60087264005608
C            8.48657303790377        2.55190564721252        0.10057801684780
C            7.84600869833606        2.96820531595348       -1.07061292796489
C            8.06637450291008        4.22602744948774       -1.59188971029148
C            8.93461292725557        5.09349698433862       -0.95359021257148
C            9.57517246670162        4.68057364456199        0.20063343292994
C            9.37225649468542        3.42084185628959        0.74768755755382
C           10.11607155804785        3.02511827364095        2.01018823374899
C           11.62941410508522        3.08897658180579        1.73014829871218
C            9.74112812109896        4.00811467176298        3.13536796915270
C            9.76132362578621        1.61889643133354        2.45762730539518
C           10.34606934281260        1.09743422457645        3.60377020265930
C           10.05224616668046       -0.17221339103083        4.06720586002564
C            9.14223035840978       -0.95074132934114        3.37463268352682
C            8.54724359951230       -0.45845651791346        2.23187843043249
C            8.85248500964168        0.82006952288896        1.75483976092401
C            7.86143644520300       -0.49896073202716       -1.00273723182555
C            6.99716413770925       -1.35140139924583       -1.69420160673473
O            7.62868397922335       -2.18602459206956       -2.56337959379705
C            6.94509399926530       -3.03467940676541       -3.37050694765010
C            7.68282598747777       -3.78381969016268       -4.28020321530296
C            7.02382313494955       -4.66097336571013       -5.12452426970010
C            5.64920244137149       -4.80738276276693       -5.07273268309446
C            4.91964886139196       -4.06058840963952       -4.15277968410968
C            5.54982429060620       -3.15568680559618       -3.28381670163559
O            3.57837367414810       -4.23882416686317       -4.13127557056982
C           -0.61898628672818       -0.68477945187362       -1.11955417144830
C           -1.30792845474115       -0.57156298209781       -2.30887855634217
C           -1.72915514321707        0.68676910720003       -2.71870494528400
C           -1.45893101384415        1.81111785537561       -1.95283952251262
C           -0.75817143943165        1.70518652079125       -0.76186830448016
C           -0.33704839803380        0.45157435372844       -0.34790867929631
C            0.40118480248577        0.03732406301569        0.83482657429758
C            0.91176095626778        0.77620029385746        1.89002012981436
C            1.59675695702750        0.11293626384410        2.89579610096838
C            1.76484994621743       -1.26298008652981        2.85047364436031
C            1.25405643234940       -2.00803480039438        1.79548800365836
C            0.57931200404013       -1.35293971916399        0.78689284780149
C           -0.79214501838790       -4.23677147982958        0.27240712835468
C           -1.75924299778117       -5.12270610508296        0.68449860221844
C           -3.08933450873176       -4.71103897706605        0.80457257138422
O           -3.95374156891805       -5.69672885295739        1.17919957042097
C           -8.77843990790654        2.32004050063540        1.40439707616702
C           -8.55961098488043        1.73697756068409        2.65648977361539
C           -9.17719362314281        2.22803363938638        3.78762379640996
C          -10.02166429658212        3.31964430581530        3.69225396216596
C          -10.21939294768277        3.91397437139631        2.45933469488343
C           -9.60900300984243        3.44181597778439        1.30501526100946
H           -8.30323930570030        5.63644858451795        0.36466323009130
H           -9.90106794017631        6.12361511339538        0.93181432328017
H           -9.52761761620967        6.17058392336495       -0.78799735408328
H          -11.92945603526013        4.58849867236061        0.45892744001869
H          -11.56131126301547        4.64825482966723       -1.26201980390306
H          -11.68182263215760        3.09130600459819       -0.44144870952686
H           -9.79392291326583        4.92179300826369       -2.59195762032211
H           -8.64476005931845        3.92135171973816       -4.49704176817465
H           -7.28192235611303        1.87227019782002       -4.16907032357179
H           -7.08036689280524        0.89012455534746       -1.94195369595741
H           -5.49632192266188        1.71572855652386        0.31401855941134
H           -4.10793312605033       -0.28215472481147        0.52412744432768
H           -9.00511681498353       -0.70908603674290        0.60391084322890
H           -9.12096670135656       -5.05036521065078        1.40824536729906
H           -8.09778859936754       -7.26873541623251        1.80624314987287
H           -5.64158408251891       -7.54934439650713        1.69526024092165
H           -2.70434645610568       -1.50169095207218       -0.12778075283362
H           -0.51278492443095       -3.72945430111061       -2.46652839328421
H            1.12819310496469       -4.67427262664961       -4.04967868077162
H            2.60011587043165       -1.50806687061415       -0.60067592213712
H            4.07735828800780       -0.24990659971069       -0.42635707495688
H            5.58713843376245        1.23685643054611        0.78483274094859
H            7.17050162161568        2.29456363788211       -1.57539846361645
H            7.55894989035829        4.52536421685846       -2.49746609283814
H            9.11556227366347        6.08122246527952       -1.35057336972352
H           10.25452482989488        5.36591081681007        0.68476847444553
H           12.19912227888294        2.81868256543313        2.61501128301607
H           11.88793051856612        2.39668440681653        0.93041618273494
H           11.92592120113080        4.08918139046710        1.42631471425392
H            9.98410924091409        5.02937576494079        2.85542320969832
H           10.27468643783326        3.77062546226911        4.05151321047599
H            8.67238762958654        3.95143854074188        3.33560352299847
H           11.05399324232660        1.69582112077278        4.15730509286958
H           10.52718665554477       -0.54657503296120        4.96180566942861
H            8.89211207411848       -1.94255173698621        3.72232237800285
H            7.83454582025698       -1.06848534780251        1.69814178125230
H            8.92316196068110       -0.56898595623077       -1.18528267289261
H            8.75428709739148       -3.66712646071609       -4.31756829784613
H            7.59288626474327       -5.24148921772134       -5.83463238484899
H            5.13241553646206       -5.49097012240265       -5.72758967042735
H           -1.52468975328858       -1.44217099899864       -2.90959102075535
H           -2.27588001554177        0.79042163511371       -3.64462679115144
H           -1.79834651083292        2.77998593299739       -2.29021862059608
H           -0.54679000432192        2.58259706574350       -0.16873590944387
H            0.78169407061092        1.84762216355952        1.92792265523843
H            2.00581574319433        0.67312826382786        3.72429228126474
H            2.30169651390326       -1.76171250127467        3.64433981154322
H            1.39320386136366       -3.07817673153638        1.76667965984694
H            0.22898217463439       -4.57130738888247        0.16668598478358
H           -1.51624692433204       -6.15039757800801        0.90884097246772
H           -7.89386520327674        0.89187876189667        2.74075539436802
H           -8.99456024224373        1.75714167893099        4.74269961618725
H          -10.51521984129070        3.71118508001290        4.56917021823327
H          -10.86986703751286        4.77368588898188        2.40157023658597

          :  Hamiltonian                  GFN2-xTB          :
         :: gradient norm              0.000049000070 Eh/a0 ::
         :: HOMO-LUMO gap              1.753750105241 eV    ::
         :: SCC energy              -225.406983739533 Eh    ::
         :: -> dispersion             -0.212110182037 Eh    ::
         :: -> Gsolv                  -0.083919979960 Eh    ::
         :: repulsion energy           3.856998251000 Eh    ::

    * Orbital Energies and Occupations

         #    Occupation            Energy/Eh            Energy/eV
      -------------------------------------------------------------
         1        2.0000           -0.7369890             -20.0545
       ...           ...                  ...                  ...
       193        2.0000           -0.3972137             -10.8087
       194        2.0000           -0.3959206             -10.7735
       195        2.0000           -0.3958190             -10.7708
       196        2.0000           -0.3936418             -10.7115
       197        2.0000           -0.3929178             -10.6918
       198        2.0000           -0.3905685             -10.6279
       199        2.0000           -0.3904333             -10.6242
       200        2.0000           -0.3896251             -10.6022
       201        2.0000           -0.3807476             -10.3607
       202        2.0000           -0.3734690             -10.1626
       203        2.0000           -0.3721697             -10.1273
       204        2.0000           -0.3444004              -9.3716
       205        2.0000           -0.3440056              -9.3609 (HOMO)
       206                         -0.2795565              -7.6071 (LUMO)
       207                         -0.2784876              -7.5780
       208                         -0.2527114              -6.8766
       209                         -0.2407216              -6.5504
       210                         -0.2402892              -6.5386
       211                         -0.2369685              -6.4482
       212                         -0.2355157              -6.4087
       213                         -0.2320688              -6.3149
       214                         -0.2305444              -6.2734
       215                         -0.2247888              -6.1168
       216                         -0.2223220              -6.0497
       ...                                ...                  ...
       402                          0.7271058              19.7856
      -------------------------------------------------------------
                  HL-Gap            0.0644491 Eh            1.7537 eV

     #   Z          covCN         q      C6AA      α(0)
     1   6 C        3.761    -0.103    22.522     6.765
     2   6 C        3.908     0.021    20.167     6.383
     3   6 C        3.761    -0.103    22.517     6.765
     4   6 C        2.979    -0.014    28.366     8.736
     5   6 C        2.928    -0.038    28.947     8.823
     6   6 C        2.917    -0.047    29.167     8.856
     7   6 C        2.919    -0.035    28.875     8.812
     8   6 C        2.924    -0.060    29.500     8.907
     9   6 C        2.928     0.059    26.674     8.470
    10   7 N        2.754    -0.073    22.665     7.071
    11   6 C        2.927     0.074    26.353     8.419
    12   6 C        2.916    -0.049    29.220     8.864
    13   6 C        2.924    -0.031    28.772     8.796
    14   6 C        2.882    -0.091    30.274     9.020
    15   6 C        2.875     0.139    24.962     8.190
    16   6 C        2.918    -0.064    29.589     8.920
    17   8 O        1.711    -0.230    17.820     5.700
    18   6 C        2.873     0.138    24.982     8.193
    19   6 C        2.912    -0.067    29.670     8.932
    20   6 C        2.923    -0.026    28.647     8.777
    21   6 C        2.912    -0.067    29.670     8.932
    22   6 C        2.873     0.139    24.964     8.190
    23   6 C        2.888    -0.120    31.050     9.136
    24   5 B        2.723     0.213    18.196     7.148
    25   6 C        2.882    -0.090    30.260     9.018
    26   6 C        2.929    -0.040    29.002     8.832
    27   6 C        2.973     0.010    27.790     8.647
    28   6 C        3.946     0.008    20.381     6.415
    29   6 C        2.974     0.010    27.787     8.647
    30   6 C        2.923    -0.030    28.746     8.792
    31   6 C        2.914    -0.054    29.347     8.883
    32   6 C        2.876     0.135    25.047     8.204
    33   6 C        2.882    -0.090    30.256     9.018
    34   6 C        2.929    -0.040    28.993     8.830
    35   5 B        2.723     0.213    18.196     7.148
    36   6 C        2.882    -0.090    30.261     9.018
    37   6 C        2.924    -0.031    28.765     8.795
    38   6 C        2.916    -0.049    29.216     8.863
    39   6 C        2.927     0.074    26.341     8.417
    40   7 N        2.754    -0.075    22.691     7.075
    41   6 C        2.928     0.059    26.669     8.469
    42   6 C        2.924    -0.060    29.503     8.907
    43   6 C        2.919    -0.035    28.877     8.812
    44   6 C        2.917    -0.047    29.174     8.857
    45   6 C        2.928    -0.038    28.948     8.823
    46   6 C        2.979    -0.015    28.373     8.738
    47   6 C        3.908     0.021    20.168     6.383
    48   6 C        3.761    -0.103    22.515     6.764
    49   6 C        3.761    -0.103    22.521     6.765
    50   6 C        2.979    -0.015    28.373     8.737
    51   6 C        2.928    -0.038    28.948     8.823
    52   6 C        2.917    -0.047    29.174     8.857
    53   6 C        2.919    -0.035    28.877     8.812
    54   6 C        2.924    -0.060    29.500     8.907
    55   6 C        2.928     0.059    26.670     8.469
    56   6 C        2.919    -0.063    29.574     8.918
    57   6 C        2.875     0.139    24.958     8.190
    58   8 O        1.712    -0.230    17.808     5.698
    59   6 C        2.873     0.138    24.982     8.193
    60   6 C        2.912    -0.067    29.670     8.932
    61   6 C        2.922    -0.026    28.643     8.777
    62   6 C        2.912    -0.067    29.670     8.932
    63   6 C        2.874     0.139    24.962     8.190
    64   6 C        2.887    -0.120    31.049     9.135
    65   8 O        1.711    -0.231    17.826     5.701
    66   6 C        3.055     0.003    27.908     8.664
    67   6 C        2.914    -0.035    28.868     8.810
    68   6 C        2.922    -0.033    28.821     8.804
    69   6 C        2.920    -0.033    28.828     8.805
    70   6 C        2.914    -0.035    28.869     8.811
    71   6 C        3.034     0.000    27.989     8.678
    72   6 C        3.034     0.000    27.990     8.678
    73   6 C        2.914    -0.035    28.871     8.811
    74   6 C        2.921    -0.033    28.830     8.805
    75   6 C        2.922    -0.033    28.823     8.804
    76   6 C        2.914    -0.035    28.869     8.811
    77   6 C        3.055     0.003    27.909     8.664
    78   6 C        2.924    -0.030    28.744     8.792
    79   6 C        2.914    -0.054    29.348     8.883
    80   6 C        2.876     0.135    25.048     8.204
    81   8 O        1.711    -0.232    17.840     5.703
    82   6 C        2.927     0.059    26.675     8.470
    83   6 C        2.924    -0.060    29.496     8.906
    84   6 C        2.919    -0.035    28.877     8.812
    85   6 C        2.917    -0.047    29.167     8.856
    86   6 C        2.928    -0.038    28.947     8.823
    87   6 C        2.979    -0.014    28.367     8.736
    88   1 H        0.925     0.030     2.588     2.516
    89   1 H        0.925     0.041     2.434     2.440
    90   1 H        0.925     0.041     2.430     2.438
    91   1 H        0.925     0.041     2.433     2.439
    92   1 H        0.925     0.041     2.433     2.439
    93   1 H        0.925     0.029     2.596     2.519
    94   1 H        0.926     0.032     2.563     2.504
    95   1 H        0.926     0.025     2.659     2.550
    96   1 H        0.926     0.026     2.638     2.540
    97   1 H        0.926     0.025     2.658     2.549
    98   1 H        0.926     0.045     2.384     2.415
    99   1 H        0.926     0.051     2.301     2.372
   100   1 H        0.926     0.052     2.300     2.372
   101   1 H        0.926     0.050     2.320     2.382
   102   1 H        0.926     0.051     2.304     2.374
   103   1 H        0.926     0.050     2.316     2.380
   104   1 H        0.926     0.046     2.373     2.409
   105   1 H        0.926     0.043     2.408     2.427
   106   1 H        0.926     0.047     2.359     2.402
   107   1 H        0.926     0.045     2.379     2.412
   108   1 H        0.926     0.052     2.296     2.370
   109   1 H        0.926     0.045     2.380     2.412
   110   1 H        0.926     0.023     2.684     2.562
   111   1 H        0.926     0.026     2.648     2.545
   112   1 H        0.926     0.025     2.663     2.552
   113   1 H        0.926     0.031     2.565     2.505
   114   1 H        0.925     0.041     2.435     2.440
   115   1 H        0.925     0.029     2.598     2.521
   116   1 H        0.925     0.041     2.435     2.440
   117   1 H        0.925     0.041     2.434     2.440
   118   1 H        0.925     0.041     2.434     2.440
   119   1 H        0.925     0.030     2.588     2.516
   120   1 H        0.926     0.031     2.566     2.505
   121   1 H        0.926     0.025     2.663     2.552
   122   1 H        0.926     0.026     2.648     2.545
   123   1 H        0.926     0.023     2.685     2.562
   124   1 H        0.926     0.052     2.299     2.371
   125   1 H        0.926     0.050     2.318     2.381
   126   1 H        0.926     0.051     2.302     2.373
   127   1 H        0.926     0.050     2.314     2.379
   128   1 H        0.926     0.032     2.555     2.500
   129   1 H        0.926     0.032     2.557     2.500
   130   1 H        0.926     0.032     2.559     2.501
   131   1 H        0.926     0.034     2.532     2.489
   132   1 H        0.926     0.034     2.533     2.489
   133   1 H        0.926     0.032     2.561     2.502
   134   1 H        0.926     0.032     2.556     2.500
   135   1 H        0.926     0.032     2.552     2.498
   136   1 H        0.926     0.043     2.407     2.426
   137   1 H        0.926     0.047     2.361     2.403
   138   1 H        0.926     0.023     2.682     2.561
   139   1 H        0.926     0.026     2.649     2.545
   140   1 H        0.926     0.025     2.660     2.550
   141   1 H        0.926     0.032     2.561     2.503

molecular dipole:
                 x           y           z       tot (Debye)
 q only:       -0.036      -0.109      -0.044
   full:       -0.045      -0.302      -0.105       0.821

 projected vibrational frequencies (cm⁻¹)
eigval :       -0.00    -0.00     0.00     0.00     0.00     0.00
eigval :        3.94     5.95     8.16     8.59     9.42    16.72
eigval :       18.56    20.89    22.16    22.72    30.92    33.29
eigval :       40.47    45.15    46.60    51.12    60.63    64.30
eigval :       76.41    77.97    86.96    89.25    91.02    98.22
eigval :       99.72   100.74   101.98   118.76   120.35   121.39
eigval :      135.11   136.42   139.20   144.60   152.73   160.38
eigval :      167.18   170.77   173.94   195.13   202.35   205.31
eigval :      206.51   217.00   219.81   222.30   225.01   233.54
eigval :      237.51   242.07   243.96   245.48   257.06   258.66
eigval :      261.25   284.68   291.68   296.60   297.00   311.51
eigval :      313.98   316.32   318.00   329.65   330.94   331.36
eigval :      337.44   345.64   346.86   355.12   355.64   370.60
eigval :      372.63   377.33   380.90   387.91   390.02   390.42
eigval :      390.93   395.18   408.98   410.92   412.74   415.97
eigval :      425.68   427.56   433.04   435.70   439.73   451.06
eigval :      451.73   455.95   465.85   466.96   468.19   479.82
eigval :      491.11   492.05   496.09   506.65   515.95   516.07
eigval :      516.38   531.84   531.88   539.30   540.68   544.81
eigval :      547.22   547.82   548.22   548.58   557.73   561.57
eigval :      569.05   582.56   586.09   587.31   588.66   591.23
eigval :      593.85   600.68   603.86   623.19   628.34   632.44
eigval :      641.53   641.80   646.02   647.84   656.04   661.21
eigval :      676.42   676.86   683.23   683.75   685.10   687.71
eigval :      688.63   689.28   694.17   694.65   696.61   698.96
eigval :      716.87   717.45   727.69   729.38   731.28   750.75
eigval :      753.10   767.00   770.71   774.50   776.61   776.68
eigval :      777.98   784.93   799.98   800.44   813.43   816.30
eigval :      823.41   825.97   826.52   829.23   830.39   832.63
eigval :      848.99   854.08   861.38   864.63   865.26   865.40
eigval :      871.46   871.55   873.20   875.76   876.12   876.72
eigval :      878.14   880.38   882.59   898.27   898.70   903.35
eigval :      907.07   909.04   910.39   912.17   912.43   913.00
eigval :      913.11   913.36   914.71   916.48   916.53   919.45
eigval :      920.28   920.66   920.91   921.26   921.90   923.82
eigval :      926.21   926.98   929.49   937.76   937.90   956.53
eigval :      957.40   974.47   993.42   997.55  1006.97  1012.61
eigval :     1013.77  1022.12  1048.48  1049.74  1075.56  1075.81
eigval :     1076.37  1078.88  1079.37  1081.53  1088.83  1089.24
eigval :     1095.77  1096.64  1106.11  1111.34  1111.35  1117.49
eigval :     1117.53  1131.30  1132.06  1138.95  1139.90  1143.58
eigval :     1148.98  1150.72  1154.85  1158.04  1158.42  1158.67
eigval :     1167.36  1168.21  1174.55  1177.55  1177.89  1178.16
eigval :     1183.05  1184.08  1185.99  1186.36  1186.51  1197.96
eigval :     1199.07  1202.46  1206.76  1208.44  1218.75  1219.56
eigval :     1223.52  1224.71  1232.46  1237.67  1241.35  1243.06
eigval :     1244.00  1246.81  1247.10  1247.71  1248.36  1258.62
eigval :     1265.74  1266.58  1268.11  1268.38  1277.29  1279.19
eigval :     1284.10  1285.10  1285.80  1292.98  1293.43  1306.21
eigval :     1306.88  1323.63  1323.87  1324.14  1328.38  1329.20
eigval :     1331.13  1333.74  1334.33  1334.76  1337.00  1339.41
eigval :     1341.22  1341.50  1363.88  1384.22  1384.90  1399.54
eigval :     1399.61  1404.89  1408.70  1417.25  1417.86  1418.24
eigval :     1419.07  1426.92  1427.28  1427.69  1430.40  1435.26
eigval :     1435.85  1440.00  1440.85  1447.96  1449.44  1460.98
eigval :     1465.17  1465.50  1470.68  1476.39  1477.49  1486.51
eigval :     1487.37  1487.67  1488.56  1495.04  1495.97  1497.40
eigval :     1497.50  1502.49  1503.55  1529.15  1529.47  1540.88
eigval :     1542.93  1559.92  1560.11  1573.26  1573.41  1576.28
eigval :     1576.99  1583.82  1585.05  1585.62  1589.50  1589.74
eigval :     1590.20  1590.28  1592.09  1593.84  1596.20  1600.78
eigval :     1600.97  1601.16  1602.05  3020.25  3020.83  3022.71
eigval :     3023.46  3037.76  3037.91  3039.72  3040.21  3046.49
eigval :     3046.70  3050.75  3051.21  3070.02  3070.76  3070.92
eigval :     3071.13  3071.26  3071.36  3077.10  3077.56  3077.77
eigval :     3077.89  3077.90  3078.43  3081.95  3083.57  3084.36
eigval :     3085.84  3087.89  3088.21  3088.59  3088.63  3088.69
eigval :     3088.93  3089.25  3089.79  3091.26  3093.31  3094.76
eigval :     3095.67  3096.07  3096.48  3096.56  3097.58  3097.97
eigval :     3099.18  3102.05  3102.80  3107.24  3107.87  3117.73
eigval :     3121.06  3127.19  3128.17

   temp. (K)  partition function   enthalpy   heat capacity  entropy
                                   cal/mol     cal/K/mol   cal/K/mol   J/K/mol
 298.15  VIB  0.737E+34            41719.800    263.292    260.719
         ROT  0.590E+09              888.752      2.981     43.116
         INT  0.435E+43            42608.553    266.273    303.835
         TR   0.361E+29             1481.254      4.968     46.890
         TOT                       44089.8066   271.2407   350.7252  1467.4342

       T/K    H(0)-H(T)+PV         H(T)/Eh          T*S/Eh         G(T)/Eh
   ------------------------------------------------------------------------
    298.15    0.702616E-01    0.115228E+01    0.166641E+00    0.985636E+00
   ------------------------------------------------------------------------

         :::::::::::::::::::::::::::::::::::::::::::::::::::::
         ::                  THERMODYNAMIC                  ::
         :::::::::::::::::::::::::::::::::::::::::::::::::::::
         :: total free energy        -220.564349004866 Eh   ::
         ::.................................................::
         :: total energy             -221.549985491376 Eh   ::
         :: zero point energy           1.082015766313 Eh   ::
         :: G(RRHO) w/o ZPVE           -0.096379279803 Eh   ::
         :: G(RRHO) contrib.            0.985636486510 Eh   ::
         :::::::::::::::::::::::::::::::::::::::::::::::::::::

           -------------------------------------------------
          | TOTAL ENERGY             -221.549985491376 Eh   |
          | TOTAL ENTHALPY           -220.397708145981 Eh   |
          | TOTAL FREE ENERGY        -220.564349004866 Eh   |
          | GRADIENT NORM               0.000049005208 Eh/α |
          | HOMO-LUMO GAP               1.753749673839 eV   |
           -------------------------------------------------

 * finished run on 2025/07/18 at 10:37:15.283
