   * xtb version 6.7.1 (edcfbbe) compiled by 'albert@albert-system' on 2024-07-22

   ID    Z sym.   atoms
    1    6 C      1-9, 11-16, 18-23, 25-34, 36-39, 41-57, 59-64, 66-80, 82-87
    2    7 N      10, 40
    3    8 O      17, 58, 65, 81
    4    5 B      24, 35
    5    1 H      88-141

          program call               : xtb data2507/toluene/F2AcBO/F2AcBO_toluene_S0_crest.xyz --gfn 2 --gbsa toluene --ohess vtight --parallel 40 --molden --ceasefiles --namespace data2507/toluene/F2AcBO/F2AcBO_toluene_S0_finalOpt
      * Solvation model:               GBSA
        Solvent                        toluene
        Solvent mass                       9.2140E+01 g/mol
          :  Hamiltonian                  GFN2-xTB          :
 * total energy  :  -221.5465405 Eh     change       -0.1053402E-07 Eh
 * total energy  :  -221.5466803 Eh     change       -0.1397418E-03 Eh
 * total energy  :  -221.5467945 Eh     change       -0.1142401E-03 Eh
 * total energy  :  -221.5468524 Eh     change       -0.5786508E-04 Eh
 * total energy  :  -221.5469441 Eh     change       -0.9174813E-04 Eh
 * total energy  :  -221.5470222 Eh     change       -0.7809264E-04 Eh
 * total energy  :  -221.5470788 Eh     change       -0.5662925E-04 Eh
 * total energy  :  -221.5471337 Eh     change       -0.5488225E-04 Eh
 * total energy  :  -221.5471546 Eh     change       -0.2090362E-04 Eh
 * total energy  :  -221.5471928 Eh     change       -0.3819370E-04 Eh
 * total energy  :  -221.5474700 Eh     change       -0.4806035E-06 Eh
 * total energy  :  -221.5474706 Eh     change       -0.5210323E-06 Eh
 * total energy  :  -221.5474712 Eh     change       -0.6152306E-06 Eh
 * total energy  :  -221.5474720 Eh     change       -0.7713355E-06 Eh
 * total energy  :  -221.5474728 Eh     change       -0.8648547E-06 Eh
 * total energy  :  -221.5474739 Eh     change       -0.1123554E-05 Eh
 * total energy  :  -221.5474752 Eh     change       -0.1213633E-05 Eh
 * total energy  :  -221.5474766 Eh     change       -0.1433492E-05 Eh
 * total energy  :  -221.5474766 Eh     change       -0.4917268E-08 Eh
   *** GEOMETRY OPTIMIZATION CONVERGED AFTER 94 ITERATIONS ***

 final structure:
================
141
 xtb: 6.7.1 (edcfbbe)
C           -6.40509693979944       -4.41551566046795       -4.12128502037354
C           -5.16063673727073       -3.89114886741970       -3.40232836381683
C           -4.06447952357125       -3.63140301803271       -4.46045298738307
C           -5.40652494810866       -2.57498292335566       -2.68745616296277
C           -6.43121245598952       -1.70946065204621       -3.03611372119341
C           -6.52409793291992       -0.43798108597497       -2.49488060283967
C           -5.55599790275321       -0.00131224383153       -1.61045291773868
C           -4.54400578241841       -0.85629173555461       -1.22260492467134
C           -4.48159048044053       -2.15850513620536       -1.71697175004386
N           -3.50664847604214       -3.04957050436144       -1.27683333368881
C           -2.48541091793319       -2.62675822483776       -0.38845132768387
C           -1.15632350525194       -2.67762009699319       -0.81051405433862
C           -0.14851774608632       -2.29434863343721        0.04391432588232
C           -0.38816982936160       -1.83661455474613        1.34817345347447
C           -1.73756994454441       -1.81777440842166        1.75609779312233
C           -2.76828059601003       -2.20650172582491        0.89749818791899
O           -2.16868175202983       -1.45736321145957        2.99523633013817
C           -1.30570392822701       -1.13083878718263        3.98736576625066
C           -1.84852418461934       -0.87228682394756        5.24045782838397
C           -1.00577403939065       -0.53858869303443        6.28564189055425
C            0.36211000786641       -0.44989005354167        6.09915273908913
C            0.89511910431614       -0.70589775797638        4.83988061936137
C            0.07651565803909       -1.06166864672927        3.75643707116200
B            0.67071040385357       -1.38129155836245        2.38632842890470
C            2.20634583104106       -1.18235626340984        2.31732677144796
C            3.01907451634338       -1.32239230632760        1.18317591303427
C            4.38278221362510       -1.08874521614646        1.17837738532501
C            5.19608381874772       -1.18235419021320       -0.11692055010501
C            5.11790908841991        0.11336831393380       -0.90325340258376
C            6.14372883547118        0.45765750400076       -1.78653773199750
C            6.08188773332459        1.62914992811611       -2.50560544046353
C            4.97405679419410        2.47201779971522       -2.38727336216091
C            3.88492770248068        2.11305422705529       -1.57319692456634
C            4.01338490013670        0.93745220305136       -0.82434789282862
B            2.66322439627043        3.05563407185637       -1.57246559563170
C            1.23554628915611        2.92321514416516       -0.99487693269497
C            0.64233570699549        1.76109895523728       -0.48181817437122
C           -0.62872721212668        1.74840452745900        0.04360113396858
C           -1.36759145876049        2.93215280325172        0.10193115373660
N           -2.65734774771436        2.94497500923612        0.68982422118462
C           -3.76576053794359        3.21293301467499       -0.10362448712169
C           -3.61787374307917        3.32199464699216       -1.49033775744728
C           -4.69284199414024        3.61938352330743       -2.30129323578504
C           -5.94656887699928        3.80053220068355       -1.74469572412042
C           -6.10596211451000        3.64287579518600       -0.38021282994417
C           -5.04062927034686        3.34101574349933        0.45888438369130
C           -5.29704923572994        3.13760659793927        1.93980790247250
C           -5.90028148119996        4.43014166303282        2.52257802433320
C           -6.28241016302618        1.96603602537769        2.11023519014211
C           -4.01887503014817        2.82412757518424        2.69457133851275
C           -4.07515534648826        2.62032489031213        4.06722411302130
C           -2.94234925296949        2.39063954250568        4.82486354843182
C           -1.70745950049115        2.38096969269334        4.20265845242938
C           -1.62380809261729        2.57278997594330        2.83999446012966
C           -2.77082308354693        2.77130539383700        2.06422648465854
C           -0.83123063170597        4.09481541357403       -0.42097410555054
C            0.44135982254451        4.08673155148625       -0.99413078021891
O            0.82054990625272        5.28048083327416       -1.52996508757590
C            1.98275559992406        5.42173173840173       -2.21767981039966
C            2.21778505122616        6.63809315575030       -2.84821327075499
C            3.39368344764603        6.81216386881418       -3.55901387688612
C            4.33831615676072        5.80453847170018       -3.64790041196919
C            4.10324675528877        4.59476694530874       -3.00213034459980
C            2.91964782340680        4.38000814280918       -2.27938665681834
O            5.05079306869326        3.63088281612352       -3.10362829468293
C            6.61140392483245       -1.62729305849166        0.19467188163727
C            7.65517410886822       -0.90783925755334        0.74133933964883
C            8.86259273817990       -1.55267480138493        0.97904133385462
C            9.02396420696233       -2.89503910559285        0.67249280619076
C            7.99572611693160       -3.61283626836526        0.08251652480856
C            6.79421260722942       -2.97023255752010       -0.16698284964158
C            5.61235696250502       -3.41766777763884       -0.88713780815686
C            5.34948528035049       -4.61291147577601       -1.53569091394663
C            4.18869647009598       -4.72129942036328       -2.28520965404544
C            3.32756664598063       -3.64291374834764       -2.41241365367217
C            3.58295736535720       -2.44515329135839       -1.75550197838316
C            4.70687612052955       -2.34926677924920       -0.96188473482197
C            4.98396931910032       -0.71963242148098        2.38231808938281
C            4.23401308000393       -0.58191956290460        3.52675319498011
C            2.85518467614404       -0.79543491203717        3.50439329868931
O            2.23723994494316       -0.59874684091943        4.70211148062462
C           -3.71720481296024       -4.41808304154951       -1.42432634065231
C           -3.08476587323170       -5.32260987385868       -0.57085192284967
C           -3.32717278971518       -6.67752609646705       -0.67752229442533
C           -4.22265317080087       -7.14468964190222       -1.62173007548274
C           -4.84792285035537       -6.24962199391796       -2.47403641287367
C           -4.59991812988760       -4.88767841424613       -2.40668156664121
H           -7.20842262402896       -4.61346477430494       -3.41469889752154
H           -6.17292888820010       -5.32953815110879       -4.66082279867950
H           -6.74851016446499       -3.69415664394820       -4.85759825374215
H           -3.81978942981692       -4.55566042979553       -4.98007743429750
H           -4.41204591697530       -2.89859928333823       -5.18592679446184
H           -3.16155522790646       -3.24816945961506       -3.99121532157464
H           -7.17323612928855       -2.01280346648271       -3.75644179218794
H           -7.33252011197365        0.21542809210902       -2.78661954974656
H           -5.58483146290590        1.00271781250873       -1.21637733493874
H           -3.79401791280832       -0.50576267825787       -0.53156487935937
H           -0.93248791621305       -3.03137665975237       -1.80544862638487
H            0.86790121273986       -2.36674064387551       -0.30308578349590
H           -3.78279267037016       -2.19261250885054        1.26713917244886
H           -2.91606422979799       -0.93630435013826        5.37676932618616
H           -1.42187489022227       -0.34188804475158        7.26201007957593
H            1.02332067976996       -0.18431306263725        6.90901086548293
H            2.54435983430786       -1.62451396117714        0.26771206464615
H            7.00154647418883       -0.18920465748457       -1.89492779930219
H            6.88650594769653        1.92155610961976       -3.16321580114366
H            3.21722403643172        0.69049893758000       -0.14219162788487
H            1.19400298256947        0.83642776512108       -0.51515953970416
H           -1.05605922434106        0.83305076906409        0.42444766828217
H           -2.64857711940048        3.16490853589697       -1.93697834185518
H           -4.54882638388304        3.70307661096628       -3.36844616799669
H           -6.79549181374798        4.04167094649314       -2.36664831979894
H           -7.09455040822393        3.75541661334110        0.03865111114107
H           -6.11953451463115        4.31360459695654        3.58018571098214
H           -5.19586640284066        5.25238675573521        2.40646929240851
H           -6.82219471082790        4.69325215879046        2.01150182871773
H           -6.50500084892413        1.79649506429622        3.16002609510528
H           -5.85194630947355        1.05487439029540        1.69861916698153
H           -7.21664832031582        2.16586961647341        1.59265129629212
H           -5.03164264818151        2.64761140324546        4.56695973255197
H           -3.02152649027740        2.23510210438462        5.88978397577444
H           -0.80573208114931        2.22463503831982        4.77578303770077
H           -0.65236433788160        2.57738407257995        2.37097164984278
H           -1.39481322084094        5.01567204181498       -0.41064825249299
H            1.48237497333739        7.42400427177103       -2.78017448607889
H            3.57694133670124        7.75380210693359       -4.05401805857354
H            5.25433371109276        5.94262569306791       -4.20016690058018
H            7.55288586681328        0.14703039573095        0.95525564399733
H            9.68687813935161       -0.99826715952828        1.40411191248936
H            9.96868293915553       -3.37907046425628        0.87448294303982
H            8.13472517191501       -4.64863480816300       -0.18959428339117
H            6.04234396630613       -5.43884493170547       -1.47273205145183
H            3.96633497118552       -5.64598444523225       -2.79801298742903
H            2.45124042749554       -3.73096265579464       -3.03799913728300
H            2.92590988723327       -1.59908787422025       -1.89876755645293
H            6.04466951993194       -0.54232432523056        2.43669025172260
H            4.69499441017661       -0.29672302084166        4.46041350282945
H           -2.40471732122001       -4.96045663182052        0.18512222569036
H           -2.82410682514676       -7.36388266188183       -0.01199986691135
H           -4.42935137495146       -8.20132579143300       -1.70454659255387
H           -5.53270440705143       -6.63899732152715       -3.20954157680454

          :  Hamiltonian                  GFN2-xTB          :
         :: gradient norm              0.000053641852 Eh/a0 ::
         :: HOMO-LUMO gap              1.836318822820 eV    ::
         :: SCC energy              -225.403454749378 Eh    ::
         :: -> dispersion             -0.228510097029 Eh    ::
         :: -> Gsolv                  -0.075682075707 Eh    ::
         :: repulsion energy           3.855978155432 Eh    ::

    * Orbital Energies and Occupations

         #    Occupation            Energy/Eh            Energy/eV
      -------------------------------------------------------------
         1        2.0000           -0.7358489             -20.0235
       ...           ...                  ...                  ...
       193        2.0000           -0.3967058             -10.7949
       194        2.0000           -0.3955986             -10.7648
       195        2.0000           -0.3940188             -10.7218
       196        2.0000           -0.3923266             -10.6758
       197        2.0000           -0.3915521             -10.6547
       198        2.0000           -0.3914101             -10.6508
       199        2.0000           -0.3901590             -10.6168
       200        2.0000           -0.3897822             -10.6065
       201        2.0000           -0.3796324             -10.3303
       202        2.0000           -0.3726815             -10.1412
       203        2.0000           -0.3719865             -10.1223
       204        2.0000           -0.3461291              -9.4187
       205        2.0000           -0.3458337              -9.4106 (HOMO)
       206                         -0.2783503              -7.5743 (LUMO)
       207                         -0.2779244              -7.5627
       208                         -0.2523191              -6.8660
       209                         -0.2400015              -6.5308
       210                         -0.2393807              -6.5139
       211                         -0.2358848              -6.4188
       212                         -0.2346355              -6.3848
       213                         -0.2306532              -6.2764
       214                         -0.2305049              -6.2724
       215                         -0.2254486              -6.1348
       216                         -0.2235036              -6.0818
       ...                                ...                  ...
       402                          0.7267076              19.7747
      -------------------------------------------------------------
                  HL-Gap            0.0674834 Eh            1.8363 eV

     #   Z          covCN         q      C6AA      α(0)
     1   6 C        3.758    -0.107    22.587     6.776
     2   6 C        3.909     0.021    20.158     6.382
     3   6 C        3.765    -0.100    22.448     6.753
     4   6 C        2.983    -0.014    28.365     8.736
     5   6 C        2.924    -0.042    29.041     8.837
     6   6 C        2.918    -0.046    29.141     8.852
     7   6 C        2.919    -0.036    28.904     8.816
     8   6 C        2.922    -0.059    29.460     8.901
     9   6 C        2.930     0.059    26.683     8.471
    10   7 N        2.753    -0.080    22.787     7.090
    11   6 C        2.924     0.073    26.365     8.421
    12   6 C        2.918    -0.050    29.249     8.869
    13   6 C        2.924    -0.032    28.808     8.802
    14   6 C        2.881    -0.092    30.307     9.025
    15   6 C        2.875     0.139    24.974     8.192
    16   6 C        2.918    -0.064    29.596     8.921
    17   8 O        1.712    -0.232    17.850     5.704
    18   6 C        2.875     0.139    24.957     8.190
    19   6 C        2.913    -0.065    29.615     8.924
    20   6 C        2.923    -0.024    28.610     8.772
    21   6 C        2.913    -0.067    29.681     8.934
    22   6 C        2.875     0.139    24.966     8.191
    23   6 C        2.887    -0.120    31.055     9.136
    24   5 B        2.722     0.214    18.187     7.147
    25   6 C        2.881    -0.091    30.293     9.023
    26   6 C        2.931    -0.043    29.065     8.841
    27   6 C        2.969     0.010    27.783     8.646
    28   6 C        3.945     0.007    20.386     6.416
    29   6 C        2.970     0.010    27.802     8.649
    30   6 C        2.924    -0.030    28.751     8.793
    31   6 C        2.914    -0.054    29.342     8.883
    32   6 C        2.875     0.135    25.043     8.204
    33   6 C        2.884    -0.090    30.264     9.019
    34   6 C        2.928    -0.044    29.081     8.844
    35   5 B        2.725     0.213    18.197     7.147
    36   6 C        2.883    -0.092    30.294     9.023
    37   6 C        2.923    -0.034    28.853     8.809
    38   6 C        2.916    -0.050    29.250     8.869
    39   6 C        2.926     0.073    26.376     8.422
    40   7 N        2.753    -0.074    22.668     7.071
    41   6 C        2.926     0.060    26.660     8.468
    42   6 C        2.924    -0.058    29.444     8.898
    43   6 C        2.919    -0.034    28.836     8.806
    44   6 C        2.917    -0.045    29.119     8.849
    45   6 C        2.928    -0.038    28.935     8.821
    46   6 C        2.979    -0.014    28.345     8.733
    47   6 C        3.909     0.022    20.154     6.381
    48   6 C        3.761    -0.104    22.526     6.766
    49   6 C        3.760    -0.102    22.490     6.761
    50   6 C        2.979    -0.014    28.348     8.734
    51   6 C        2.928    -0.038    28.936     8.822
    52   6 C        2.917    -0.046    29.132     8.851
    53   6 C        2.920    -0.035    28.870     8.811
    54   6 C        2.924    -0.061    29.513     8.909
    55   6 C        2.927     0.060    26.665     8.468
    56   6 C        2.918    -0.065    29.622     8.925
    57   6 C        2.874     0.139    24.969     8.191
    58   8 O        1.711    -0.232    17.852     5.705
    59   6 C        2.872     0.138    24.983     8.194
    60   6 C        2.912    -0.067    29.667     8.931
    61   6 C        2.923    -0.026    28.655     8.778
    62   6 C        2.912    -0.067    29.665     8.931
    63   6 C        2.873     0.139    24.963     8.190
    64   6 C        2.889    -0.120    31.047     9.135
    65   8 O        1.710    -0.233    17.865     5.707
    66   6 C        3.054     0.002    27.918     8.665
    67   6 C        2.915    -0.034    28.850     8.808
    68   6 C        2.921    -0.034    28.854     8.809
    69   6 C        2.921    -0.033    28.833     8.806
    70   6 C        2.914    -0.035    28.873     8.811
    71   6 C        3.037     0.000    27.993     8.678
    72   6 C        3.037     0.000    27.990     8.678
    73   6 C        2.915    -0.035    28.865     8.810
    74   6 C        2.921    -0.033    28.830     8.805
    75   6 C        2.922    -0.034    28.842     8.807
    76   6 C        2.915    -0.037    28.912     8.817
    77   6 C        3.056     0.003    27.900     8.662
    78   6 C        2.925    -0.034    28.853     8.809
    79   6 C        2.914    -0.055    29.364     8.886
    80   6 C        2.876     0.136    25.038     8.203
    81   8 O        1.711    -0.232    17.850     5.704
    82   6 C        2.936     0.059    26.674     8.470
    83   6 C        2.922    -0.058    29.453     8.900
    84   6 C        2.919    -0.036    28.890     8.814
    85   6 C        2.918    -0.046    29.143     8.853
    86   6 C        2.924    -0.041    29.028     8.835
    87   6 C        2.982    -0.013    28.331     8.731
    88   1 H        0.925     0.036     2.502     2.473
    89   1 H        0.925     0.042     2.421     2.433
    90   1 H        0.925     0.042     2.424     2.435
    91   1 H        0.925     0.039     2.456     2.451
    92   1 H        0.925     0.039     2.466     2.456
    93   1 H        0.925     0.033     2.547     2.496
    94   1 H        0.926     0.037     2.494     2.470
    95   1 H        0.926     0.024     2.670     2.555
    96   1 H        0.926     0.027     2.625     2.534
    97   1 H        0.926     0.022     2.702     2.570
    98   1 H        0.926     0.044     2.392     2.419
    99   1 H        0.926     0.055     2.253     2.347
   100   1 H        0.926     0.049     2.338     2.391
   101   1 H        0.926     0.049     2.335     2.390
   102   1 H        0.926     0.050     2.322     2.383
   103   1 H        0.926     0.049     2.337     2.391
   104   1 H        0.926     0.056     2.248     2.345
   105   1 H        0.926     0.041     2.434     2.440
   106   1 H        0.926     0.046     2.372     2.408
   107   1 H        0.926     0.052     2.300     2.372
   108   1 H        0.926     0.055     2.253     2.347
   109   1 H        0.926     0.038     2.474     2.460
   110   1 H        0.926     0.025     2.665     2.553
   111   1 H        0.926     0.027     2.636     2.539
   112   1 H        0.926     0.026     2.649     2.545
   113   1 H        0.926     0.032     2.556     2.500
   114   1 H        0.925     0.042     2.426     2.436
   115   1 H        0.925     0.029     2.595     2.519
   116   1 H        0.925     0.042     2.422     2.434
   117   1 H        0.925     0.041     2.436     2.441
   118   1 H        0.925     0.030     2.588     2.516
   119   1 H        0.925     0.041     2.434     2.440
   120   1 H        0.926     0.034     2.532     2.488
   121   1 H        0.926     0.027     2.625     2.534
   122   1 H        0.926     0.022     2.700     2.570
   123   1 H        0.926     0.023     2.685     2.563
   124   1 H        0.926     0.051     2.311     2.377
   125   1 H        0.926     0.050     2.324     2.384
   126   1 H        0.926     0.051     2.305     2.374
   127   1 H        0.926     0.050     2.317     2.381
   128   1 H        0.926     0.031     2.566     2.505
   129   1 H        0.926     0.031     2.569     2.506
   130   1 H        0.926     0.031     2.574     2.509
   131   1 H        0.926     0.032     2.557     2.500
   132   1 H        0.926     0.032     2.552     2.498
   133   1 H        0.926     0.032     2.560     2.502
   134   1 H        0.926     0.034     2.536     2.490
   135   1 H        0.926     0.035     2.516     2.480
   136   1 H        0.926     0.049     2.331     2.387
   137   1 H        0.926     0.045     2.380     2.412
   138   1 H        0.926     0.023     2.690     2.565
   139   1 H        0.926     0.026     2.640     2.541
   140   1 H        0.926     0.026     2.645     2.543
   141   1 H        0.926     0.037     2.485     2.465

molecular dipole:
                 x           y           z       tot (Debye)
 q only:        0.715      -0.376      -0.336
   full:        0.787      -0.233      -0.182       2.137

 projected vibrational frequencies (cm⁻¹)
eigval :       -0.00    -0.00    -0.00     0.00     0.00     0.00
eigval :       -4.58     8.69    10.87    13.12    16.87    22.45
eigval :       22.99    25.48    27.58    29.79    32.15    39.20
eigval :       45.15    46.07    50.61    51.75    60.52    70.62
eigval :       76.01    80.36    84.00    86.29    98.56   102.10
eigval :      104.06   106.31   112.39   114.78   121.49   126.47
eigval :      132.47   139.57   147.37   153.47   154.75   167.25
eigval :      169.52   176.60   187.21   187.55   200.33   207.25
eigval :      212.06   220.75   225.37   234.74   239.45   241.21
eigval :      243.92   248.73   253.10   257.97   261.43   264.26
eigval :      266.71   282.66   291.34   291.51   300.95   303.24
eigval :      309.15   314.48   316.64   326.07   333.24   333.56
eigval :      346.57   352.56   353.94   357.99   372.16   374.18
eigval :      375.55   382.40   383.22   386.96   390.70   391.38
eigval :      400.53   408.49   409.40   413.37   414.24   424.03
eigval :      425.81   426.84   436.89   438.46   441.65   443.20
eigval :      453.21   456.95   462.31   467.23   469.40   484.86
eigval :      492.89   494.16   503.26   508.05   509.30   513.77
eigval :      514.64   529.26   532.76   539.47   540.37   543.72
eigval :      546.93   546.98   548.34   555.32   558.68   562.73
eigval :      571.36   580.95   585.90   586.31   588.77   591.22
eigval :      592.80   599.43   606.56   620.60   626.36   631.51
eigval :      637.16   642.05   644.59   644.77   653.69   664.39
eigval :      676.17   678.50   683.10   684.12   685.41   687.59
eigval :      689.12   690.49   694.37   698.03   698.06   705.68
eigval :      714.23   718.38   725.63   727.49   729.93   751.78
eigval :      755.00   765.40   771.49   774.41   775.44   776.12
eigval :      777.57   789.84   798.81   799.35   808.54   816.36
eigval :      821.08   822.16   825.02   828.77   830.88   831.72
eigval :      848.95   854.34   861.79   861.96   864.98   866.34
eigval :      869.51   870.37   870.70   881.14   881.70   883.34
eigval :      888.55   890.17   892.57   897.86   898.12   900.34
eigval :      902.45   904.02   905.02   908.88   910.57   912.52
eigval :      912.71   912.87   914.89   917.78   918.66   919.64
eigval :      919.97   921.31   921.47   922.09   923.23   924.54
eigval :      930.32   935.94   936.14   936.74   937.57   956.85
eigval :      962.49   981.65   990.33   998.41  1005.18  1006.10
eigval :     1009.38  1012.89  1046.87  1051.07  1073.74  1075.66
eigval :     1076.08  1077.91  1079.08  1081.09  1088.49  1089.24
eigval :     1095.38  1099.26  1108.98  1111.75  1113.69  1119.58
eigval :     1120.18  1132.28  1133.94  1138.04  1141.52  1141.76
eigval :     1148.36  1151.12  1153.67  1157.35  1157.70  1158.29
eigval :     1168.48  1170.27  1175.42  1177.07  1177.71  1182.41
eigval :     1183.65  1185.22  1187.15  1187.62  1188.17  1197.81
eigval :     1200.89  1201.83  1203.14  1212.52  1218.54  1222.10
eigval :     1224.13  1226.40  1229.33  1232.88  1239.43  1244.66
eigval :     1245.28  1246.65  1248.29  1249.42  1258.09  1261.48
eigval :     1266.27  1266.72  1269.15  1272.25  1275.68  1281.01
eigval :     1282.99  1284.40  1284.72  1286.46  1293.54  1302.47
eigval :     1305.51  1319.54  1322.20  1325.23  1327.94  1328.48
eigval :     1330.68  1331.38  1332.06  1332.56  1333.86  1335.58
eigval :     1340.16  1343.38  1366.09  1384.13  1386.94  1392.50
eigval :     1398.48  1400.63  1409.94  1410.15  1418.77  1419.25
eigval :     1419.63  1427.16  1427.29  1428.05  1430.97  1434.73
eigval :     1438.36  1439.55  1443.01  1448.75  1449.58  1460.86
eigval :     1463.84  1464.83  1466.52  1469.77  1475.04  1483.36
eigval :     1486.06  1487.62  1488.84  1492.75  1493.64  1498.72
eigval :     1501.14  1501.64  1527.34  1528.41  1528.98  1539.92
eigval :     1542.02  1559.69  1561.18  1573.02  1573.56  1574.74
eigval :     1577.19  1583.38  1584.19  1584.92  1585.75  1588.85
eigval :     1589.04  1590.52  1590.88  1592.39  1593.82  1601.13
eigval :     1601.51  1601.62  1601.96  3021.26  3022.36  3023.71
eigval :     3026.85  3029.56  3032.38  3038.11  3038.98  3040.08
eigval :     3047.21  3051.19  3051.37  3064.28  3066.65  3071.32
eigval :     3071.94  3072.37  3073.00  3077.13  3078.45  3079.47
eigval :     3080.44  3080.98  3081.12  3082.46  3083.63  3087.60
eigval :     3087.84  3088.35  3088.80  3090.31  3090.75  3091.37
eigval :     3091.81  3093.40  3094.84  3095.17  3095.54  3095.55
eigval :     3096.73  3101.58  3101.88  3102.60  3103.10  3107.09
eigval :     3107.75  3109.98  3110.92  3112.81  3117.30  3122.97
eigval :     3126.20  3127.56  3158.62

   temp. (K)  partition function   enthalpy   heat capacity  entropy
                                   cal/mol     cal/K/mol   cal/K/mol   J/K/mol
 298.15  VIB  0.128E+33            41404.756    263.533    255.920
         ROT  0.321E+09              888.752      2.981     41.904
         INT  0.410E+41            42293.508    266.513    297.823
         TR   0.361E+29             1481.254      4.968     46.890
         TOT                       43774.7620   271.4816   344.7131  1442.2794

       T/K    H(0)-H(T)+PV         H(T)/Eh          T*S/Eh         G(T)/Eh
   ------------------------------------------------------------------------
    298.15    0.697595E-01    0.115283E+01    0.163784E+00    0.989048E+00
   ------------------------------------------------------------------------

         :::::::::::::::::::::::::::::::::::::::::::::::::::::
         ::                  THERMODYNAMIC                  ::
         :::::::::::::::::::::::::::::::::::::::::::::::::::::
         :: total free energy        -220.558429060922 Eh   ::
         ::.................................................::
         :: total energy             -221.547476588875 Eh   ::
         :: zero point energy           1.083072298853 Eh   ::
         :: G(RRHO) w/o ZPVE           -0.094024770899 Eh   ::
         :: G(RRHO) contrib.            0.989047527953 Eh   ::
         :::::::::::::::::::::::::::::::::::::::::::::::::::::

           -------------------------------------------------
          | TOTAL ENERGY             -221.547476588875 Eh   |
          | TOTAL ENTHALPY           -220.394644766408 Eh   |
          | TOTAL FREE ENERGY        -220.558429060922 Eh   |
          | GRADIENT NORM               0.000055863084 Eh/α |
          | HOMO-LUMO GAP               1.836317996868 eV   |
           -------------------------------------------------

 * finished run on 2025/07/18 at 10:49:55.068
