   * xtb version 6.7.1 (edcfbbe) compiled by 'albert@albert-system' on 2024-07-22

   ID    Z sym.   atoms
    1    6 C      1-9, 11-16, 18-23, 25-34, 36-39, 41-57, 59-64, 66-80, 82-87
    2    7 N      10, 40
    3    8 O      17, 58, 65, 81
    4    5 B      24, 35
    5    1 H      88-141

          program call               : xtb data2507/toluene/F2AcBO/F2AcBO_toluene_S0_finalOpt.xtbopt.xyz --gfn 2 --uhf 2 --gbsa toluene --ohess vtight --parallel 40 --molden --ceasefiles --namespace data2507/toluene/F2AcBO/F2AcBO_toluene_T1_preOpt
      * Solvation model:               GBSA
        Solvent                        toluene
        Solvent mass                       9.2140E+01 g/mol
          :  Hamiltonian                  GFN2-xTB          :
 * total energy  :  -221.4649733 Eh     change       -0.3518116E-07 Eh
 * total energy  :  -221.4659426 Eh     change       -0.9693279E-03 Eh
 * total energy  :  -221.4662629 Eh     change       -0.3203140E-03 Eh
 * total energy  :  -221.4662959 Eh     change       -0.3296902E-04 Eh
 * total energy  :  -221.4663246 Eh     change       -0.2867438E-04 Eh
 * total energy  :  -221.4663412 Eh     change       -0.1661484E-04 Eh
 * total energy  :  -221.4663627 Eh     change       -0.2147396E-04 Eh
 * total energy  :  -221.4663875 Eh     change       -0.2480691E-04 Eh
 * total energy  :  -221.4663985 Eh     change       -0.1098078E-04 Eh
 * total energy  :  -221.4664220 Eh     change       -0.2356935E-04 Eh
 * total energy  :  -221.4693243 Eh     change       -0.1049061E-05 Eh
 * total energy  :  -221.4693252 Eh     change       -0.9276329E-06 Eh
 * total energy  :  -221.4693261 Eh     change       -0.8274066E-06 Eh
 * total energy  :  -221.4693267 Eh     change       -0.6803868E-06 Eh
 * total energy  :  -221.4693274 Eh     change       -0.6636256E-06 Eh
 * total energy  :  -221.4693281 Eh     change       -0.6510446E-06 Eh
 * total energy  :  -221.4693288 Eh     change       -0.7403060E-06 Eh
 * total energy  :  -221.4693297 Eh     change       -0.9252153E-06 Eh
 * total energy  :  -221.4693297 Eh     change       -0.1547932E-08 Eh
   *** GEOMETRY OPTIMIZATION CONVERGED AFTER 122 ITERATIONS ***

 final structure:
================
141
 xtb: 6.7.1 (edcfbbe)
C           -7.02129338369548       -4.59009669397711       -2.43183676895625
C           -5.66870969764128       -4.05681044552884       -2.94420894945398
C           -5.62622637763406       -4.11052662874098       -4.48434445277395
C           -5.51490017377945       -2.61526656092394       -2.50837142464098
C           -6.43508328328011       -1.66571196375447       -2.93178403986301
C           -6.32609568410734       -0.33285891121918       -2.57979572826826
C           -5.26402485837819        0.08187720634155       -1.79038276690420
C           -4.33955702806837       -0.83805588915882       -1.35108103521350
C           -4.45580712112190       -2.19423809174435       -1.68872830330392
N           -3.51940172557533       -3.09157845908930       -1.22145145602721
C           -2.48188626733756       -2.62915940837856       -0.35971004398323
C           -1.20988985832521       -2.37024529554912       -0.86167131544892
C           -0.20950361955593       -1.96254351245049       -0.00743768467005
C           -0.40421723448577       -1.79347056043936        1.37683515560778
C           -1.72068932739469       -2.01704912558834        1.84244332328857
C           -2.73860672960687       -2.43664241894623        0.99326623446537
O           -2.11937182984774       -1.85720895997299        3.14019597393961
C           -1.27152589097907       -1.38337450702077        4.09657214616394
C           -1.79953278976495       -1.18199440589461        5.36542901196482
C           -0.98051915114954       -0.69202387586426        6.37083666262176
C            0.34976247560803       -0.39765861350042        6.11885593533024
C            0.86639311111017       -0.61263543936364        4.84562775068006
C            0.07325455169380       -1.11868748954173        3.80565801511768
B            0.65573207524656       -1.37875769261778        2.41662980140048
C            2.17881735027604       -1.12880321607484        2.32938632870367
C            3.01130455238362       -1.38435292837495        1.22868368542515
C            4.34326805249678       -1.00813788357457        1.17079748484766
C            5.17476619906034       -1.16070368952687       -0.10808303239908
C            5.23598968405172        0.18461415230985       -0.80671951801926
C            6.34825858907692        0.58479555486805       -1.54272212337498
C            6.35451624852898        1.81794383191544       -2.16990354591079
C            5.24173260187012        2.65277996793208       -2.10185854788106
C            4.07044207354128        2.24584988089920       -1.43074121232570
C            4.12754984633743        1.01264826760425       -0.77417011166715
B            2.86598884654136        3.20501098872083       -1.44316513580919
C            1.40988604605700        3.05453740598210       -0.97393474298070
C            0.76764126905927        1.86412832637817       -0.58555284243444
C           -0.52418122239504        1.83348950757907       -0.11436005452329
C           -1.24625871737452        3.02057322699658       -0.00090894638487
N           -2.56148580205160        3.00570654534747        0.53670607981113
C           -3.63339838777773        3.30576186769845       -0.28162623087935
C           -3.41867038411598        3.55639474139800       -1.64576832267283
C           -4.46235756589138        3.89635439637548       -2.47690410937218
C           -5.75015783120987        3.98193121994555       -1.96911325210310
C           -5.97492701147786        3.68917938121046       -0.63630001981408
C           -4.94292484078805        3.33828513283671        0.22497947927592
C           -5.25968300554532        2.98029922066812        1.66059823520436
C           -5.93464251868430        4.18912779651277        2.33919125278551
C           -6.21263167384006        1.76855782277811        1.66535873193315
C           -4.01232524988898        2.62902372271938        2.44261360585542
C           -4.12249179818226        2.27103468695718        3.77984051917192
C           -3.01469304891181        1.99172599941113        4.55784949270533
C           -1.74897603009164        2.09076382435274        4.00077213381043
C           -1.60866397042044        2.43922262175067        2.67702697456967
C           -2.73093079463422        2.68547258943620        1.87103136376283
C           -0.67152173732102        4.21778278947587       -0.42221502265087
C            0.62297183357507        4.22874343902103       -0.92699499124211
O            1.04963143257166        5.45685972507509       -1.35420694652528
C            2.26667062989292        5.62831922320229       -1.95039427965826
C            2.55252288904449        6.88082730687900       -2.47796967631133
C            3.77965135191116        7.09309523132319       -3.08965427791128
C            4.72159962186132        6.07976074501093       -3.17084528082904
C            4.42900437533930        4.83297486100336       -2.62866590949555
C            3.19289310920632        4.57943763307064       -2.01592073677432
O            5.38559861542014        3.86651851736689       -2.72208751099536
C            6.51435644250721       -1.78889692861860        0.22215236165115
C            7.61822924129518       -1.24828383063897        0.85044200536772
C            8.72552051559305       -2.05419214623825        1.08374035161948
C            8.73550246271830       -3.38295539027390        0.69040049764212
C            7.65267322823477       -3.92293976851057        0.01558730248473
C            6.55177511723744       -3.11880382785477       -0.22832449448312
C            5.35657688970561       -3.37448294256739       -1.01500618820018
C            4.97808027071528       -4.48541561482227       -1.75142227499022
C            3.83319176171693       -4.40929632146460       -2.52808688286357
C            3.09654765891789       -3.23625041841110       -2.58794038638983
C            3.46636030364857       -2.12433750006432       -1.84211607416964
C            4.58152122233970       -2.20694406076702       -1.03385600769179
C            4.89744093953404       -0.38096525577120        2.28443316938383
C            4.14174791060729       -0.18110623015012        3.42202235559446
C            2.79996798293767       -0.54800676384686        3.45364307894700
O            2.17386031540838       -0.29366828567064        4.64401307112218
C           -3.55572316739469       -4.42849919354174       -1.55884683327371
C           -2.57723465860171       -5.29623167709382       -1.05175887296650
C           -2.58172613919005       -6.63358589349395       -1.37781757047331
C           -3.56721645904836       -7.13654224655275       -2.21395146765412
C           -4.54288405737781       -6.28777256958760       -2.70435499950793
C           -4.56447407304444       -4.93472529527433       -2.39418490856206
H           -7.04740060899200       -4.55354259952243       -1.34426371658815
H           -7.17294989330912       -5.61887104389247       -2.74470730518248
H           -7.84174918014005       -3.99150722357491       -2.81637069939279
H           -5.74454299144326       -5.13013259894233       -4.83858831470249
H           -6.42037517933765       -3.50686216747332       -4.91327961490266
H           -4.67184787741534       -3.72944841733988       -4.84313143672739
H           -7.26099218266266       -1.96901899196245       -3.55597090581951
H           -7.05918736471575        0.37969900037129       -2.92450829829345
H           -5.15718976048693        1.12056084567775       -1.52150473304881
H           -3.50892438462456       -0.51879243871584       -0.74206835764651
H           -1.01901774156124       -2.49483294480407       -1.91738880815751
H            0.76426793223170       -1.75789589282321       -0.41875361296768
H           -3.72304951832984       -2.61341819972855        1.39935387064752
H           -2.83818322542393       -1.40850532447444        5.54919657766062
H           -1.38299937244983       -0.53425004757909        7.35994218423358
H            0.99400247384642       -0.00815389341339        6.89232247814301
H            2.57802514625502       -1.89813074836892        0.38770525498097
H            7.21494310479708       -0.05542325067460       -1.61509632683151
H            7.22365452371082        2.15517003803473       -2.71551057952802
H            3.27073209035252        0.71205331708807       -0.19390869421722
H            1.30635284315123        0.93512529125539       -0.66604130557265
H           -0.97700478226556        0.89767455956861        0.17866159953663
H           -2.42199053126411        3.47626771515183       -2.04822970685349
H           -4.27146076894759        4.09045608949278       -3.52138397681325
H           -6.57370121024068        4.25692848089237       -2.60989351308768
H           -6.98564481097819        3.73173963693816       -0.26202178577180
H           -6.18833475043993        3.95980285869773        3.36977623243613
H           -5.26011481957629        5.04348430429477        2.33374699079960
H           -6.84557716213990        4.46586204652668        1.81694271893275
H           -6.49195026676028        1.50386943005518        2.68061705307549
H           -5.72596938451562        0.91005815360783        1.20691676601981
H           -7.11888517814397        1.98757872771694        1.10881165041990
H           -5.09899842951283        2.21266751158414        4.23447590846012
H           -3.13236209919989        1.71217545888999        5.59286440221342
H           -0.87250491559152        1.89534835376382        4.59905100114921
H           -0.62004469720435        2.52768508748759        2.25643230528004
H           -1.22235483751922        5.14450476036969       -0.36475008196994
H            1.81938353997073        7.66959447690673       -2.40891882262321
H            4.00497148969727        8.06300925413675       -3.50622860799194
H            5.67871279288501        6.24265598308638       -3.64198590412185
H            7.65058368735760       -0.20540528165165        1.13098869711551
H            9.59322638942643       -1.63455632110684        1.57243983588791
H            9.60428183084004       -3.99367465406697        0.89029458003035
H            7.67322608940205       -4.94755764663508       -0.32551211562405
H            5.57063432989936       -5.38817153439594       -1.73210899432283
H            3.52265172634567       -5.26528407137930       -3.11003397887143
H            2.22725481671243       -3.18408151958506       -3.22724779721334
H            2.90274982578070       -1.20503165346494       -1.91362141127813
H            5.92106679275997       -0.04925341685134        2.27832669278205
H            4.57440284331694        0.27575179416056        4.30002639223675
H           -1.81384888513985       -4.90770574378991       -0.39661712041279
H           -1.81781655021322       -7.28364365709302       -0.97869876440498
H           -3.57882863007238       -8.18320745178459       -2.47693648644811
H           -5.30751516915591       -6.69806481244417       -3.34533940276856

          :  Hamiltonian                  GFN2-xTB          :
         :: gradient norm              0.000060365015 Eh/a0 ::
         :: HOMO-LUMO gap              0.015712279500 eV    ::
         :: SCC energy              -225.314115914580 Eh    ::
         :: -> dispersion             -0.228332282600 Eh    ::
         :: -> Gsolv                  -0.082055515705 Eh    ::
         :: repulsion energy           3.844786194824 Eh    ::

    * Orbital Energies and Occupations

         #    Occupation            Energy/Eh            Energy/eV
      -------------------------------------------------------------
         1        2.0000           -0.7225074             -19.6604
       ...           ...                  ...                  ...
       194        2.0000           -0.3926918             -10.6857
       195        2.0000           -0.3860770             -10.5057
       196        2.0000           -0.3844777             -10.4622
       197        2.0000           -0.3826062             -10.4112
       198        2.0000           -0.3806467             -10.3579
       199        2.0000           -0.3794544             -10.3255
       200        2.0000           -0.3780533             -10.2874
       201        2.0000           -0.3754655             -10.2169
       202        1.9885           -0.3634876              -9.8910
       203        1.8970           -0.3613103              -9.8318
       204        1.6040           -0.3596552              -9.7867
       205        1.5105           -0.3592938              -9.7769
       206        0.5754           -0.2650937              -7.2136 (HOMO)
       207        0.4246           -0.2645163              -7.1979 (LUMO)
       208                         -0.2487154              -6.7679
       209                         -0.2392858              -6.5113
       210                         -0.2384662              -6.4890
       211                         -0.2317647              -6.3066
       212                         -0.2310973              -6.2885
       213                         -0.2307837              -6.2799
       214                         -0.2305286              -6.2730
       215                         -0.2285799              -6.2200
       216                         -0.2283684              -6.2142
       217                         -0.2249023              -6.1199
       ...                                ...                  ...
       402                          0.7307328              19.8843
      -------------------------------------------------------------
                  HL-Gap            0.0005774 Eh            0.0157 eV

     #   Z          covCN         q      C6AA      α(0)
     1   6 C        3.761    -0.107    22.591     6.776
     2   6 C        3.909     0.024    20.118     6.375
     3   6 C        3.761    -0.107    22.594     6.776
     4   6 C        2.978    -0.004    28.113     8.697
     5   6 C        2.925    -0.034    28.837     8.806
     6   6 C        2.918    -0.034    28.840     8.806
     7   6 C        2.918    -0.030    28.758     8.794
     8   6 C        2.923    -0.049    29.209     8.863
     9   6 C        2.929     0.061    26.623     8.462
    10   7 N        2.755    -0.027    21.760     6.928
    11   6 C        2.928     0.047    26.942     8.512
    12   6 C        2.913    -0.051    29.259     8.870
    13   6 C        2.924    -0.044    29.082     8.844
    14   6 C        2.881    -0.094    30.365     9.034
    15   6 C        2.871     0.134    25.071     8.208
    16   6 C        2.916    -0.072    29.790     8.950
    17   8 O        1.711    -0.252    18.168     5.755
    18   6 C        2.872     0.131    25.139     8.219
    19   6 C        2.912    -0.068    29.690     8.935
    20   6 C        2.921    -0.037    28.927     8.820
    21   6 C        2.912    -0.069    29.716     8.939
    22   6 C        2.872     0.131    25.122     8.216
    23   6 C        2.887    -0.121    31.084     9.141
    24   5 B        2.723     0.181    18.667     7.240
    25   6 C        2.881    -0.094    30.357     9.033
    26   6 C        2.929    -0.051    29.267     8.872
    27   6 C        2.970     0.008    27.841     8.655
    28   6 C        3.946     0.009    20.367     6.413
    29   6 C        2.972     0.006    27.883     8.661
    30   6 C        2.922    -0.042    29.039     8.837
    31   6 C        2.914    -0.060    29.498     8.906
    32   6 C        2.871     0.130    25.145     8.220
    33   6 C        2.883    -0.093    30.331     9.029
    34   6 C        2.930    -0.050    29.250     8.870
    35   5 B        2.725     0.179    18.678     7.241
    36   6 C        2.882    -0.092    30.302     9.024
    37   6 C        2.923    -0.044    29.087     8.844
    38   6 C        2.914    -0.049    29.223     8.864
    39   6 C        2.928     0.048    26.934     8.511
    40   7 N        2.753    -0.024    21.705     6.919
    41   6 C        2.927     0.061    26.636     8.464
    42   6 C        2.922    -0.049    29.206     8.862
    43   6 C        2.918    -0.028    28.708     8.786
    44   6 C        2.917    -0.033    28.832     8.805
    45   6 C        2.925    -0.034    28.835     8.806
    46   6 C        2.978    -0.003    28.095     8.694
    47   6 C        3.909     0.024    20.110     6.374
    48   6 C        3.761    -0.108    22.602     6.777
    49   6 C        3.761    -0.107    22.600     6.777
    50   6 C        2.979    -0.003    28.089     8.694
    51   6 C        2.926    -0.033    28.831     8.806
    52   6 C        2.917    -0.032    28.795     8.799
    53   6 C        2.918    -0.028    28.694     8.784
    54   6 C        2.923    -0.049    29.212     8.863
    55   6 C        2.929     0.061    26.625     8.462
    56   6 C        2.915    -0.072    29.795     8.951
    57   6 C        2.869     0.135    25.056     8.205
    58   8 O        1.710    -0.253    18.186     5.758
    59   6 C        2.870     0.130    25.152     8.221
    60   6 C        2.912    -0.068    29.698     8.936
    61   6 C        2.922    -0.038    28.945     8.823
    62   6 C        2.912    -0.068    29.693     8.935
    63   6 C        2.870     0.132    25.118     8.216
    64   6 C        2.889    -0.121    31.063     9.138
    65   8 O        1.710    -0.253    18.194     5.759
    66   6 C        3.050     0.003    27.906     8.664
    67   6 C        2.915    -0.034    28.835     8.806
    68   6 C        2.921    -0.035    28.875     8.812
    69   6 C        2.920    -0.035    28.868     8.811
    70   6 C        2.914    -0.036    28.902     8.816
    71   6 C        3.039    -0.002    28.029     8.684
    72   6 C        3.036    -0.001    28.015     8.682
    73   6 C        2.915    -0.036    28.892     8.814
    74   6 C        2.921    -0.035    28.862     8.810
    75   6 C        2.922    -0.034    28.856     8.809
    76   6 C        2.915    -0.035    28.880     8.812
    77   6 C        3.057     0.004    27.882     8.659
    78   6 C        2.925    -0.044    29.085     8.844
    79   6 C        2.914    -0.061    29.519     8.909
    80   6 C        2.873     0.130    25.145     8.220
    81   8 O        1.710    -0.254    18.215     5.762
    82   6 C        2.930     0.062    26.617     8.461
    83   6 C        2.923    -0.049    29.224     8.865
    84   6 C        2.918    -0.029    28.723     8.789
    85   6 C        2.917    -0.034    28.847     8.807
    86   6 C        2.925    -0.034    28.844     8.807
    87   6 C        2.978    -0.004    28.111     8.697
    88   1 H        0.925     0.036     2.504     2.475
    89   1 H        0.925     0.050     2.326     2.385
    90   1 H        0.925     0.050     2.314     2.379
    91   1 H        0.925     0.050     2.324     2.384
    92   1 H        0.925     0.050     2.317     2.380
    93   1 H        0.925     0.036     2.508     2.477
    94   1 H        0.926     0.047     2.353     2.399
    95   1 H        0.926     0.042     2.419     2.432
    96   1 H        0.926     0.041     2.434     2.440
    97   1 H        0.926     0.034     2.523     2.484
    98   1 H        0.926     0.035     2.516     2.480
    99   1 H        0.926     0.041     2.438     2.441
   100   1 H        0.926     0.041     2.438     2.442
   101   1 H        0.926     0.041     2.435     2.440
   102   1 H        0.926     0.039     2.467     2.456
   103   1 H        0.926     0.037     2.493     2.469
   104   1 H        0.926     0.040     2.452     2.449
   105   1 H        0.926     0.028     2.612     2.527
   106   1 H        0.926     0.033     2.547     2.496
   107   1 H        0.926     0.038     2.476     2.461
   108   1 H        0.926     0.043     2.416     2.430
   109   1 H        0.926     0.034     2.530     2.487
   110   1 H        0.926     0.041     2.437     2.441
   111   1 H        0.926     0.040     2.444     2.445
   112   1 H        0.926     0.042     2.417     2.431
   113   1 H        0.926     0.049     2.334     2.389
   114   1 H        0.925     0.050     2.321     2.382
   115   1 H        0.925     0.035     2.512     2.478
   116   1 H        0.925     0.052     2.295     2.369
   117   1 H        0.925     0.050     2.322     2.383
   118   1 H        0.925     0.038     2.482     2.464
   119   1 H        0.925     0.052     2.295     2.369
   120   1 H        0.926     0.050     2.323     2.383
   121   1 H        0.926     0.042     2.428     2.437
   122   1 H        0.926     0.033     2.541     2.493
   123   1 H        0.926     0.038     2.470     2.458
   124   1 H        0.926     0.043     2.406     2.425
   125   1 H        0.926     0.041     2.437     2.441
   126   1 H        0.926     0.040     2.451     2.448
   127   1 H        0.926     0.039     2.461     2.453
   128   1 H        0.926     0.027     2.625     2.534
   129   1 H        0.926     0.029     2.594     2.518
   130   1 H        0.926     0.030     2.584     2.514
   131   1 H        0.926     0.032     2.564     2.504
   132   1 H        0.926     0.031     2.569     2.506
   133   1 H        0.926     0.032     2.562     2.503
   134   1 H        0.926     0.032     2.553     2.499
   135   1 H        0.926     0.033     2.547     2.495
   136   1 H        0.926     0.033     2.540     2.492
   137   1 H        0.926     0.031     2.566     2.505
   138   1 H        0.926     0.040     2.448     2.447
   139   1 H        0.926     0.039     2.463     2.454
   140   1 H        0.926     0.040     2.445     2.445
   141   1 H        0.926     0.047     2.359     2.402

molecular dipole:
                 x           y           z       tot (Debye)
 q only:       -6.536      -1.639      -1.421
   full:       -6.068      -1.488      -1.226      16.184

 projected vibrational frequencies (cm⁻¹)
eigval :       -0.00    -0.00    -0.00     0.00     0.00     0.00
eigval :       -2.19    11.12    14.96    16.70    17.25    20.03
eigval :       22.14    26.53    28.86    34.55    36.76    38.24
eigval :       43.26    48.87    49.94    57.40    63.09    67.29
eigval :       74.38    78.22    82.41    84.64    94.29   101.59
eigval :      104.09   105.97   108.19   114.81   127.43   135.92
eigval :      137.52   141.92   145.02   150.18   151.08   154.08
eigval :      166.45   179.60   184.37   201.20   206.00   207.47
eigval :      209.58   215.68   217.48   220.50   233.45   234.97
eigval :      236.47   238.17   243.43   248.31   250.57   256.30
eigval :      260.50   282.61   289.74   295.97   301.01   308.31
eigval :      313.79   315.71   324.07   325.92   326.79   329.80
eigval :      331.39   341.48   344.90   350.95   353.64   369.20
eigval :      375.30   377.16   379.04   381.18   386.29   390.11
eigval :      391.66   401.69   405.27   410.30   411.54   418.88
eigval :      422.06   424.21   429.12   432.26   440.51   447.96
eigval :      451.38   456.05   460.13   461.24   462.82   481.69
eigval :      497.10   503.85   504.50   505.25   505.90   514.03
eigval :      515.15   529.05   529.70   536.53   539.18   541.86
eigval :      542.58   543.98   544.80   546.26   554.34   558.01
eigval :      565.36   573.16   577.59   584.41   584.66   585.19
eigval :      590.25   594.83   603.77   617.99   621.16   627.18
eigval :      629.68   632.19   640.34   641.34   652.38   658.92
eigval :      671.74   672.32   673.60   674.32   682.92   685.50
eigval :      687.31   687.70   688.35   691.74   701.26   701.88
eigval :      703.69   704.16   722.22   723.50   726.71   746.20
eigval :      753.52   761.68   771.66   772.65   774.15   774.75
eigval :      776.21   786.31   788.71   789.08   797.58   804.38
eigval :      807.91   813.40   820.50   824.03   825.01   826.20
eigval :      842.20   847.78   848.04   852.61   863.32   864.82
eigval :      866.04   867.90   869.06   872.06   873.40   874.36
eigval :      876.04   879.67   885.55   886.50   894.29   895.81
eigval :      897.58   898.41   899.83   901.95   902.28   902.90
eigval :      904.63   911.55   912.41   914.39   915.43   915.64
eigval :      916.20   917.89   918.61   923.15   924.04   925.34
eigval :      929.82   932.03   935.23   936.21   936.95   955.27
eigval :      957.99   978.29   982.09   992.65   998.67  1009.49
eigval :     1010.89  1012.70  1033.21  1038.63  1065.94  1073.20
eigval :     1073.50  1074.12  1076.30  1082.73  1085.05  1086.52
eigval :     1088.58  1090.18  1105.34  1107.48  1108.44  1112.49
eigval :     1113.43  1121.43  1124.04  1136.94  1138.02  1141.82
eigval :     1146.54  1146.87  1147.41  1148.20  1153.10  1155.06
eigval :     1166.30  1166.62  1174.01  1175.20  1175.38  1176.90
eigval :     1181.15  1181.48  1182.98  1183.56  1185.43  1189.36
eigval :     1194.88  1197.03  1200.48  1203.19  1211.58  1213.87
eigval :     1217.80  1220.37  1225.02  1229.43  1234.66  1236.83
eigval :     1239.96  1241.29  1241.56  1242.27  1243.15  1246.11
eigval :     1250.05  1257.08  1257.62  1259.18  1263.10  1270.83
eigval :     1273.24  1275.83  1285.26  1292.31  1292.92  1300.04
eigval :     1305.73  1310.06  1315.86  1316.32  1319.62  1320.21
eigval :     1324.93  1326.38  1327.95  1328.28  1333.64  1334.41
eigval :     1340.45  1342.32  1365.81  1375.18  1379.69  1383.09
eigval :     1390.54  1396.03  1396.43  1414.16  1414.78  1414.94
eigval :     1415.17  1415.37  1417.42  1418.00  1419.25  1426.33
eigval :     1427.55  1428.65  1430.50  1438.15  1438.80  1451.92
eigval :     1453.95  1454.00  1454.70  1461.80  1469.67  1472.83
eigval :     1476.48  1481.35  1482.00  1483.28  1483.92  1488.26
eigval :     1492.37  1492.54  1492.83  1497.49  1498.33  1509.25
eigval :     1518.29  1519.55  1524.71  1539.21  1544.60  1548.54
eigval :     1550.47  1551.59  1552.33  1561.54  1563.13  1565.37
eigval :     1575.59  1576.42  1577.82  1584.37  1586.60  1588.53
eigval :     1591.37  1600.82  1602.32  3024.94  3026.73  3028.74
eigval :     3032.36  3046.76  3048.09  3048.98  3050.09  3053.97
eigval :     3055.23  3057.92  3058.90  3066.00  3068.40  3069.94
eigval :     3072.06  3075.37  3077.37  3077.70  3079.46  3079.74
eigval :     3081.85  3082.46  3083.41  3083.46  3085.46  3085.92
eigval :     3086.71  3088.72  3089.14  3089.78  3090.17  3091.64
eigval :     3091.98  3092.41  3092.45  3093.57  3094.01  3099.35
eigval :     3099.57  3100.01  3100.22  3102.19  3104.60  3104.81
eigval :     3109.99  3112.95  3113.98  3115.61  3119.08  3120.14
eigval :     3121.81  3131.71  3134.61

   temp. (K)  partition function   enthalpy   heat capacity  entropy
                                   cal/mol     cal/K/mol   cal/K/mol   J/K/mol
 298.15  VIB  0.151E+33            41702.650    265.632    257.874
         ROT  0.319E+09              888.752      2.981     41.894
         INT  0.481E+41            42591.402    268.613    299.768
         TR   0.361E+29             1481.254      4.968     46.890
         TOT                       44072.6563   273.5811   346.6578  1450.4162

       T/K    H(0)-H(T)+PV         H(T)/Eh          T*S/Eh         G(T)/Eh
   ------------------------------------------------------------------------
    298.15    0.702342E-01    0.114880E+01    0.164708E+00    0.984089E+00
   ------------------------------------------------------------------------

         :::::::::::::::::::::::::::::::::::::::::::::::::::::
         ::                  THERMODYNAMIC                  ::
         :::::::::::::::::::::::::::::::::::::::::::::::::::::
         :: total free energy        -220.485240755335 Eh   ::
         ::.................................................::
         :: total energy             -221.469329727108 Eh   ::
         :: zero point energy           1.078563026612 Eh   ::
         :: G(RRHO) w/o ZPVE           -0.094474054839 Eh   ::
         :: G(RRHO) contrib.            0.984088971773 Eh   ::
         :::::::::::::::::::::::::::::::::::::::::::::::::::::

           -------------------------------------------------
          | TOTAL ENERGY             -221.469329727108 Eh   |
          | TOTAL ENTHALPY           -220.320532452086 Eh   |
          | TOTAL FREE ENERGY        -220.485240755335 Eh   |
          | GRADIENT NORM               0.000054112129 Eh/α |
          | HOMO-LUMO GAP               0.015711771169 eV   |
           -------------------------------------------------

 * finished run on 2025/07/18 at 10:50:49.968
