   * xtb version 6.7.1 (edcfbbe) compiled by 'albert@albert-system' on 2024-07-22

   ID    Z sym.   atoms
    1    9 F      1, 3, 4
    2    6 C      2, 5-8, 10-18, 20-35, 37-52
    3    7 N      9, 19, 36
    4    1 H      53-80

          program call               : xtb data2507/toluene/CzB-FMPPI/CzB-FMPPI.xyz --gfn 2 --gbsa toluene --ohess vtight --parallel 40 --molden --ceasefiles --namespace data2507/toluene/CzB-FMPPI/CzB-FMPPI_toluene_S0_preOpt
      * Solvation model:               GBSA
        Solvent                        toluene
        Solvent mass                       9.2140E+01 g/mol
          :  Hamiltonian                  GFN2-xTB          :
 * total energy  :  -135.8807507 Eh     change       -0.3129088E-08 Eh
 * total energy  :  -135.8947685 Eh     change       -0.1401772E-01 Eh
 * total energy  :  -135.8981382 Eh     change       -0.3369723E-02 Eh
 * total energy  :  -135.8990067 Eh     change       -0.8685183E-03 Eh
 * total energy  :  -135.8997004 Eh     change       -0.6937344E-03 Eh
 * total energy  :  -135.9000770 Eh     change       -0.3765591E-03 Eh
 * total energy  :  -135.9003728 Eh     change       -0.2958003E-03 Eh
 * total energy  :  -135.9006211 Eh     change       -0.2482905E-03 Eh
 * total energy  :  -135.9007941 Eh     change       -0.1730025E-03 Eh
 * total energy  :  -135.9009493 Eh     change       -0.1551770E-03 Eh
 * total energy  :  -135.9026886 Eh     change       -0.4958865E-06 Eh
 * total energy  :  -135.9026890 Eh     change       -0.4445662E-06 Eh
 * total energy  :  -135.9026895 Eh     change       -0.4213113E-06 Eh
 * total energy  :  -135.9026899 Eh     change       -0.4713355E-06 Eh
 * total energy  :  -135.9026905 Eh     change       -0.5259248E-06 Eh
 * total energy  :  -135.9026911 Eh     change       -0.6275256E-06 Eh
 * total energy  :  -135.9026919 Eh     change       -0.8347683E-06 Eh
 * total energy  :  -135.9026930 Eh     change       -0.1028667E-05 Eh
 * total energy  :  -135.9026930 Eh     change       -0.4370634E-08 Eh
   *** GEOMETRY OPTIMIZATION CONVERGED AFTER 94 ITERATIONS ***

 final structure:
================
80
 xtb: 6.7.1 (edcfbbe)
F           -3.33034138088447        6.35780800159964        0.70516145666645
C           -2.38028844351419        5.46378316046257        1.06413338703922
F           -2.13938303638649        5.69692690337490        2.36700633561993
F           -1.26853549315092        5.83012114888813        0.40584736762623
C           -2.79711593862810        4.04958404406238        0.78881860446031
C           -2.42361773549292        3.43288147740055       -0.39887940151606
C           -2.83709157088303        2.13962492612384       -0.65547726318529
C           -3.62692666233592        1.46451699312442        0.27131690156386
N           -4.00943244594225        0.13714625134186        0.01965813256743
C           -3.12868302383992       -0.91274125002408       -0.16240389002478
C           -1.67958705334180       -0.79063026017260       -0.11471962084915
C           -1.02370051220549        0.01710015398941        0.81308292706380
C            0.35493835143125        0.08612565055509        0.82609174682938
C            1.11761322318225       -0.64152035168384       -0.08541572170455
C            2.58507544772729       -0.55692219246461       -0.07474637298628
C            3.29999696341038       -0.45209073317266       -1.26662043137863
C            4.67841296386952       -0.37344560795166       -1.26087704262007
C            5.37474521295693       -0.40399801879326       -0.05584721165501
N            6.77630691830547       -0.32956189717092       -0.04677454869973
C            7.53724536376412        0.64387039726041       -0.66194616531717
C            7.13018181786027        1.76694297257870       -1.36878732098461
C            8.10895014518979        2.60857906074751       -1.86180951172441
C            9.46277816843863        2.35024627773598       -1.65423345617972
C            9.87315820259991        1.24474244921860       -0.93574934057361
C            8.90787319232548        0.38400146216888       -0.42837092660166
C            8.96638700690567       -0.81397956750528        0.36215241077642
C           10.01086556424892       -1.56870029963535        0.88135602797755
C            9.71074079004179       -2.71275215930894        1.59399275403096
C            8.38934444761508       -3.11340772725367        1.78392570130429
C            7.33326244094830       -2.37896610416543        1.27913227758421
C            7.62810733231266       -1.21769969124827        0.57832611937925
C            4.66959449170588       -0.51056174126088        1.13973587323959
C            3.29092721458614       -0.58406367132394        1.12669460220073
C            0.45833839909828       -1.46289121112870       -0.99952518148164
C           -0.91816688998578       -1.54474718830028       -1.00846138565269
N           -3.75020777409110       -2.04515911093348       -0.36243564069575
C           -5.08032046374890       -1.76102649874434       -0.31270735979704
C           -6.16897053336443       -2.66955102045150       -0.43577774597939
C           -5.95440101369006       -4.03983294493473       -0.62161840367082
C           -7.01809886315580       -4.90356523571959       -0.70497462917997
C           -8.31506526482862       -4.40364642089761       -0.59997257021505
C           -8.53774684272590       -3.05785937948463       -0.42286926884265
C           -7.47719581115007       -2.14146054443996       -0.34218804584286
C           -7.67971712561016       -0.70983933989493       -0.19617731703749
C           -8.96482901194546       -0.14764899227675       -0.18695124865952
C           -9.16806350966420        1.20945206202076       -0.10014527373271
C           -8.08041121763588        2.07501557154637       -0.03613848463956
C           -6.80546938365888        1.56473342496256       -0.03260576054142
C           -6.57627839955189        0.18195086041415       -0.08839136531040
C           -5.27678397682962       -0.40089963986149       -0.08651685200901
C           -3.99819952630665        2.08899120108349        1.46165165725284
C           -3.58818317798672        3.38217942923903        1.71832383254987
H           -1.81217431843896        3.96008163678152       -1.11428003146751
H           -2.55059379883397        1.64865668945477       -1.57235908644200
H           -1.58814117360897        0.57621247104660        1.54408268677031
H            0.84772030781354        0.72513965869170        1.54388677815370
H            2.76848314708972       -0.41855115263265       -2.20607329243752
H            5.22509870763962       -0.30014769504443       -2.18935753905042
H            6.08332138708893        1.98265520096200       -1.52155827085863
H            7.81851883541296        3.48888349164730       -2.41691038520675
H           10.19800623783167        3.03138668823328       -2.05741343303766
H           10.92200252711709        1.05289378070142       -0.76418693699626
H           11.03556247448301       -1.26664400591164        0.72322829834685
H           10.50877057887091       -3.31322466588669        2.00588137218764
H            8.18678592666362       -4.02059902588160        2.33467281580699
H            6.31324037559475       -2.70475207377508        1.41783084457379
H            5.20852128952552       -0.52531178406119        2.07555761080431
H            2.75374878643433       -0.67874088784887        2.05875255336363
H            1.03425488758476       -2.05701290215047       -1.69340043740532
H           -1.42831036486181       -2.19027623734613       -1.70691174895038
H           -4.93470800420298       -4.38729030911645       -0.68815405505831
H           -6.85597316479556       -5.96197370607609       -0.84657635189570
H           -9.15538789603088       -5.08050280293059       -0.65742458634929
H           -9.55808912556132       -2.71835999757948       -0.34372054498433
H           -9.82935779596854       -0.78699589068466       -0.26046474023973
H          -10.17327452201951        1.60453389718600       -0.09645057263895
H           -8.23590394803078        3.14292903970853        0.00505981171933
H           -5.96711057020263        2.24192805808165       -0.00541597652459
H           -4.60716385704681        1.55745742029801        2.17705607459464
H           -3.86987850551204        3.87047302443738        2.63835478677344

          :  Hamiltonian                  GFN2-xTB          :
         :: gradient norm              0.000052217510 Eh/a0 ::
         :: HOMO-LUMO gap              2.198588611213 eV    ::
         :: SCC energy              -138.202120754438 Eh    ::
         :: -> dispersion             -0.112849112816 Eh    ::
         :: -> Gsolv                  -0.052794529633 Eh    ::
         :: repulsion energy           2.299427800018 Eh    ::

    * Orbital Energies and Occupations

         #    Occupation            Energy/Eh            Energy/eV
      -------------------------------------------------------------
         1        2.0000           -0.8909107             -24.2429
       ...           ...                  ...                  ...
       112        2.0000           -0.4178226             -11.3695
       113        2.0000           -0.4170704             -11.3491
       114        2.0000           -0.4153275             -11.3016
       115        2.0000           -0.4137700             -11.2593
       116        2.0000           -0.4135252             -11.2526
       117        2.0000           -0.4058426             -11.0435
       118        2.0000           -0.4045440             -11.0082
       119        2.0000           -0.3973340             -10.8120
       120        2.0000           -0.3876375             -10.5482
       121        2.0000           -0.3859382             -10.5019
       122        2.0000           -0.3779339             -10.2841
       123        2.0000           -0.3706336             -10.0855
       124        2.0000           -0.3612492              -9.8301 (HOMO)
       125                         -0.2804526              -7.6315 (LUMO)
       126                         -0.2664982              -7.2518
       127                         -0.2656312              -7.2282
       128                         -0.2529410              -6.8829
       129                         -0.2514119              -6.8413
       130                         -0.2442865              -6.6474
       131                         -0.2323739              -6.3232
       132                         -0.2320819              -6.3153
       133                         -0.2296193              -6.2483
       134                         -0.2213226              -6.0225
       135                         -0.2115634              -5.7569
       ...                                ...                  ...
       236                          0.7450497              20.2738
      -------------------------------------------------------------
                  HL-Gap            0.0807967 Eh            2.1986 eV

     #   Z          covCN         q      C6AA      α(0)
     1   9 F        0.791    -0.221    11.456     3.998
     2   6 C        3.336     0.487    17.272     6.581
     3   9 F        0.791    -0.215    11.388     3.986
     4   9 F        0.791    -0.213    11.369     3.983
     5   6 C        2.976    -0.025    28.623     8.776
     6   6 C        2.919    -0.017    28.444     8.746
     7   6 C        2.922    -0.032    28.793     8.799
     8   6 C        2.911     0.079    26.227     8.398
     9   7 N        2.840    -0.047    22.142     6.989
    10   6 C        3.183     0.132    24.716     8.114
    11   6 C        2.974    -0.004    28.118     8.698
    12   6 C        2.920    -0.036    28.905     8.816
    13   6 C        2.923    -0.034    28.843     8.807
    14   6 C        2.976     0.015    27.678     8.630
    15   6 C        2.976     0.009    27.821     8.652
    16   6 C        2.924    -0.033    28.813     8.803
    17   6 C        2.920    -0.042    29.046     8.838
    18   6 C        2.913     0.063    26.589     8.455
    19   7 N        2.802    -0.046    22.131     6.987
    20   6 C        3.076     0.047    26.861     8.497
    21   6 C        2.909    -0.052    29.294     8.875
    22   6 C        2.924    -0.035    28.876     8.812
    23   6 C        2.920    -0.043    29.067     8.841
    24   6 C        2.912    -0.035    28.871     8.811
    25   6 C        3.067    -0.019    28.410     8.740
    26   6 C        3.067    -0.019    28.410     8.740
    27   6 C        2.912    -0.035    28.871     8.811
    28   6 C        2.919    -0.043    29.066     8.841
    29   6 C        2.924    -0.035    28.875     8.812
    30   6 C        2.909    -0.052    29.291     8.875
    31   6 C        3.076     0.047    26.860     8.497
    32   6 C        2.920    -0.042    29.045     8.838
    33   6 C        2.924    -0.032    28.809     8.802
    34   6 C        2.923    -0.032    28.792     8.799
    35   6 C        2.925    -0.028    28.697     8.785
    36   7 N        1.894    -0.303    28.705     7.943
    37   6 C        3.204     0.060    26.094     8.321
    38   6 C        2.985    -0.001    28.053     8.688
    39   6 C        2.921    -0.033    28.814     8.803
    40   6 C        2.917    -0.031    28.767     8.795
    41   6 C        2.917    -0.033    28.820     8.803
    42   6 C        2.921    -0.036    28.890     8.814
    43   6 C        2.979    -0.003    28.096     8.695
    44   6 C        2.979     0.001    28.005     8.681
    45   6 C        2.922    -0.034    28.848     8.808
    46   6 C        2.916    -0.033    28.813     8.802
    47   6 C        2.917    -0.032    28.786     8.798
    48   6 C        2.919    -0.042    29.043     8.837
    49   6 C        2.977    -0.004    28.116     8.698
    50   6 C        3.066     0.018    27.533     8.604
    51   6 C        2.921    -0.030    28.756     8.794
    52   6 C        2.920    -0.018    28.469     8.750
    53   1 H        0.926     0.073     2.054     2.241
    54   1 H        0.926     0.067     2.119     2.276
    55   1 H        0.926     0.029     2.597     2.520
    56   1 H        0.926     0.042     2.421     2.433
    57   1 H        0.926     0.045     2.388     2.417
    58   1 H        0.926     0.044     2.400     2.423
    59   1 H        0.926     0.030     2.589     2.516
    60   1 H        0.926     0.029     2.594     2.519
    61   1 H        0.926     0.027     2.629     2.535
    62   1 H        0.926     0.029     2.594     2.519
    63   1 H        0.926     0.029     2.594     2.519
    64   1 H        0.926     0.027     2.627     2.534
    65   1 H        0.926     0.030     2.590     2.517
    66   1 H        0.926     0.030     2.587     2.515
    67   1 H        0.926     0.043     2.408     2.426
    68   1 H        0.926     0.043     2.406     2.426
    69   1 H        0.926     0.046     2.367     2.406
    70   1 H        0.926     0.048     2.341     2.393
    71   1 H        0.926     0.046     2.371     2.408
    72   1 H        0.926     0.034     2.525     2.485
    73   1 H        0.926     0.034     2.535     2.490
    74   1 H        0.926     0.037     2.494     2.470
    75   1 H        0.926     0.040     2.453     2.449
    76   1 H        0.926     0.035     2.520     2.483
    77   1 H        0.926     0.033     2.539     2.492
    78   1 H        0.926     0.028     2.609     2.526
    79   1 H        0.926     0.071     2.078     2.254
    80   1 H        0.926     0.071     2.069     2.249

molecular dipole:
                 x           y           z       tot (Debye)
 q only:       -0.696      -0.916      -0.243
   full:       -0.856      -0.471      -0.151       2.513

 projected vibrational frequencies (cm⁻¹)
eigval :       -0.00    -0.00    -0.00     0.00     0.00     0.00
eigval :       -4.63     9.72    17.41    19.59    21.55    22.95
eigval :       34.12    38.65    52.06    57.94    75.20    76.42
eigval :       82.99    88.67    92.94    98.59   101.56   114.57
eigval :      127.17   142.99   144.17   159.21   178.14   186.47
eigval :      198.27   218.91   221.75   241.66   252.13   259.63
eigval :      268.27   270.30   299.59   315.77   337.88   357.94
eigval :      370.05   372.97   374.86   381.95   385.52   391.51
eigval :      395.56   397.93   403.17   417.39   421.16   427.66
eigval :      437.64   438.53   440.99   462.13   474.32   488.13
eigval :      511.91   517.48   519.35   522.58   526.59   533.04
eigval :      537.81   538.75   543.67   560.56   582.07   585.08
eigval :      593.90   600.29   606.55   616.26   625.38   633.87
eigval :      643.59   652.96   672.62   674.15   676.38   683.54
eigval :      684.89   692.03   700.59   706.41   709.62   723.25
eigval :      737.10   754.31   762.24   765.02   766.92   769.62
eigval :      780.19   782.87   800.78   807.97   831.10   834.29
eigval :      861.18   866.64   870.94   873.27   873.69   875.35
eigval :      879.80   897.26   901.96   902.91   907.96   914.75
eigval :      915.49   917.62   920.91   922.21   925.19   925.91
eigval :      926.38   927.45   928.00   930.76   934.39   938.03
eigval :      953.70   982.46   992.90  1006.56  1011.12  1016.04
eigval :     1028.53  1038.81  1065.44  1068.07  1068.10  1071.71
eigval :     1079.48  1084.99  1107.35  1116.66  1130.55  1133.30
eigval :     1137.01  1140.69  1150.27  1151.09  1169.90  1175.80
eigval :     1180.14  1181.11  1182.02  1184.46  1186.81  1196.37
eigval :     1202.50  1205.93  1235.51  1242.16  1244.44  1253.53
eigval :     1256.91  1261.90  1264.85  1269.23  1281.55  1284.74
eigval :     1299.46  1301.63  1309.50  1313.10  1317.16  1317.99
eigval :     1324.30  1336.92  1344.52  1355.43  1360.39  1366.66
eigval :     1370.68  1391.91  1405.09  1406.03  1409.98  1416.61
eigval :     1427.27  1427.57  1428.87  1433.30  1464.06  1474.37
eigval :     1482.13  1487.03  1498.96  1511.29  1515.20  1543.28
eigval :     1554.60  1560.89  1564.44  1568.86  1570.99  1573.11
eigval :     1586.77  1587.04  1589.40  1592.86  1596.91  1599.74
eigval :     1603.30  1612.93  3070.15  3070.47  3071.50  3075.28
eigval :     3075.61  3076.28  3079.65  3081.22  3081.87  3081.98
eigval :     3083.34  3084.24  3084.50  3085.25  3090.12  3091.55
eigval :     3092.25  3092.82  3094.28  3097.78  3097.78  3099.83
eigval :     3099.94  3102.21  3107.51  3111.60  3111.77  3115.66

   temp. (K)  partition function   enthalpy   heat capacity  entropy
                                   cal/mol     cal/K/mol   cal/K/mol   J/K/mol
 298.15  VIB  0.168E+20            23672.762    149.350    148.384
         ROT  0.157E+09              888.752      2.981     40.483
         INT  0.264E+28            24561.514    152.331    188.867
         TR   0.171E+29             1481.254      4.968     45.410
         TOT                       26042.7680   157.2988   234.2769   980.2145

       T/K    H(0)-H(T)+PV         H(T)/Eh          T*S/Eh         G(T)/Eh
   ------------------------------------------------------------------------
    298.15    0.415018E-01    0.635831E+00    0.111313E+00    0.524519E+00
   ------------------------------------------------------------------------

         :::::::::::::::::::::::::::::::::::::::::::::::::::::
         ::                  THERMODYNAMIC                  ::
         :::::::::::::::::::::::::::::::::::::::::::::::::::::
         :: total free energy        -135.378173969072 Eh   ::
         ::.................................................::
         :: total energy             -135.902692953586 Eh   ::
         :: zero point energy           0.594329699050 Eh   ::
         :: G(RRHO) w/o ZPVE           -0.069810714535 Eh   ::
         :: G(RRHO) contrib.            0.524518984515 Eh   ::
         :::::::::::::::::::::::::::::::::::::::::::::::::::::

           -------------------------------------------------
          | TOTAL ENERGY             -135.902692953586 Eh   |
          | TOTAL ENTHALPY           -135.266861461948 Eh   |
          | TOTAL FREE ENERGY        -135.378173969072 Eh   |
          | GRADIENT NORM               0.000052219113 Eh/α |
          | HOMO-LUMO GAP               2.198588905621 eV   |
           -------------------------------------------------

 * finished run on 2025/07/18 at 12:31:14.189
