   * xtb version 6.7.1 (edcfbbe) compiled by 'albert@albert-system' on 2024-07-22

   ID    Z sym.   atoms
    1    9 F      1, 3, 4
    2    6 C      2, 5-8, 10-18, 20-35, 37-52
    3    7 N      9, 19, 36
    4    1 H      53-80

          program call               : xtb data2507/toluene/CzB-FMPPI/CzB-FMPPI_toluene_T1_crest.xyz --gfn 2 --uhf 2 --gbsa toluene --ohess vtight --parallel 40 --molden --ceasefiles --namespace data2507/toluene/CzB-FMPPI/CzB-FMPPI_toluene_T1_finalOpt
      * Solvation model:               GBSA
        Solvent                        toluene
        Solvent mass                       9.2140E+01 g/mol
          :  Hamiltonian                  GFN2-xTB          :
 * total energy  :  -135.8201085 Eh     change       -0.2925475E-08 Eh
 * total energy  :  -135.8201678 Eh     change       -0.5933406E-04 Eh
 * total energy  :  -135.8201900 Eh     change       -0.2224910E-04 Eh
 * total energy  :  -135.8201935 Eh     change       -0.3458170E-05 Eh
 * total energy  :  -135.8201957 Eh     change       -0.2205397E-05 Eh
 * total energy  :  -135.8201977 Eh     change       -0.1984975E-05 Eh
 * total energy  :  -135.8201996 Eh     change       -0.1909386E-05 Eh
 * total energy  :  -135.8202013 Eh     change       -0.1721064E-05 Eh
 * total energy  :  -135.8202029 Eh     change       -0.1536443E-05 Eh
 * total energy  :  -135.8202043 Eh     change       -0.1418397E-05 Eh
 * total energy  :  -135.8202116 Eh     change       -0.6520063E-06 Eh
 * total energy  :  -135.8202121 Eh     change       -0.4939080E-06 Eh
 * total energy  :  -135.8202127 Eh     change       -0.5444998E-06 Eh
 * total energy  :  -135.8202133 Eh     change       -0.6407948E-06 Eh
 * total energy  :  -135.8202140 Eh     change       -0.7450221E-06 Eh
 * total energy  :  -135.8202148 Eh     change       -0.7167777E-06 Eh
 * total energy  :  -135.8202149 Eh     change       -0.1762932E-06 Eh
 * total energy  :  -135.8202153 Eh     change       -0.3943312E-06 Eh
 * total energy  :  -135.8202154 Eh     change       -0.5832766E-07 Eh
   *** GEOMETRY OPTIMIZATION CONVERGED AFTER 24 ITERATIONS ***

 final structure:
================
80
 xtb: 6.7.1 (edcfbbe)
F           -3.67440375558680        6.15427495682870       -0.19412553010635
C           -2.78712938461714        5.37247301242493        0.44809684544987
F           -2.75140161982189        5.81812100312346        1.71979247834851
F           -1.57672744842848        5.70388107011566       -0.07470256585096
C           -3.08483101408703        3.91557349848936        0.33989117750648
C           -3.81458042732055        3.42732183436281       -0.74662976906562
C           -4.06165527016654        2.07802016765021       -0.85376827196287
C           -3.57207997439256        1.19066757506408        0.11575180948238
N           -3.79858958956821       -0.17904366755020        0.00162193410003
C           -2.79803767686853       -1.17745999981342        0.01418187190976
C           -1.40707109250186       -1.00269865013631       -0.03801178611767
C           -0.73079100639464        0.20013085470881       -0.38940144658729
C            0.63011380784616        0.26427335673964       -0.40284447998231
C            1.44451218604938       -0.85256520294414       -0.08834565100169
C            2.87747391356874       -0.76039493854626       -0.08295346017161
C            3.69441225287858       -1.89212748368188       -0.29505700879606
C            5.06322370894666       -1.80265465089779       -0.28952692157477
C            5.69556164271466       -0.57283901275196       -0.06898831911404
N            7.08590581115827       -0.48133906648617       -0.06126016800409
C            7.83927840112395        0.46370141903601       -0.73272331187691
C            7.42893387435743        1.47350601235695       -1.59310205799358
C            8.40370222869017        2.27005345095796       -2.16568190672857
C            9.75617682258978        2.06494361468624       -1.90385065196014
C           10.17293343198789        1.04050902153270       -1.07302001363842
C            9.21270183853835        0.22939493039957       -0.48639398326638
C            9.28213768790833       -0.91446385432736        0.38410695054982
C           10.33262542636000       -1.59700220091919        0.97976787336918
C           10.04245659710886       -2.66673714210727        1.80736596551530
C            8.72483072368348       -3.04212486294154        2.05791728873938
C            7.66174819835579       -2.37641412007041        1.47562591909096
C            7.94780051606818       -1.32238094224403        0.61800890509983
C            4.90413485083153        0.56244605316485        0.14421649486436
C            3.53549900283896        0.46947186984489        0.13671684523752
C            0.76910862569452       -2.06808348113863        0.19897260632708
C           -0.58784602851706       -2.14329944904414        0.22115890575788
N           -3.35637949182263       -2.40219337452427       -0.02125579026077
C           -4.66710375449588       -2.22500544174743       -0.11457106805557
C           -5.66851281061721       -3.23069465679346       -0.25836556731525
C           -5.31836868563079       -4.57985285164792       -0.35882952550996
C           -6.28850049325056       -5.54009893102289       -0.54080200646490
C           -7.61975909358824       -5.15038282457717       -0.63296505226162
C           -7.97601100377178       -3.82062058364365       -0.52955983310432
C           -7.01877982831786       -2.81811482905653       -0.32666681343222
C           -7.36422333231475       -1.41432403477999       -0.15736718442042
C           -8.69479705251793       -0.99449793331671       -0.10275607343502
C           -9.04459091499831        0.32175850494530        0.11890047667308
C           -8.05301632194806        1.27863356365158        0.32633552066104
C           -6.73287715914536        0.91518329211909        0.26859385201575
C           -6.34615813492360       -0.41649400964892       -0.00183787459342
C           -5.00523899934009       -0.84097084645505       -0.07732880603034
C           -2.82889131308452        1.68882415309638        1.19628018651966
C           -2.58995127471540        3.03859464428042        1.30809051582323
H           -4.18056155932315        4.10983444439116       -1.49797077870521
H           -4.62262213809423        1.69179641185658       -1.69115342524390
H           -1.29715554019229        1.06079803785642       -0.70571403276220
H            1.09865654466547        1.18572964527416       -0.71469123902149
H            3.23672556059914       -2.84364089904993       -0.51513027451440
H            5.66453555560587       -2.67562271986322       -0.49584022847681
H            6.38559961397292        1.62693242724083       -1.82158924604993
H            8.10917411214744        3.06522681486294       -2.83458251788621
H           10.48799264972620        2.70963975637125       -2.36762323422735
H           11.22263708881001        0.86980792562562       -0.88803705555378
H           11.35364338754389       -1.29387723041004        0.80402526822496
H           10.84627396191833       -3.21311396685183        2.27810786280152
H            8.52807573687374       -3.86766730378344        2.72580336028896
H            6.64428520527645       -2.66081223128301        1.69500750847102
H            5.38225036578277        1.50745705292340        0.35571050999869
H            2.95310147156829        1.35189170436999        0.35137388538046
H            1.34495595788018       -2.94567810318840        0.44942792073602
H           -1.09036964661673       -3.06677014683861        0.46156553740706
H           -4.27190394757276       -4.83598565321960       -0.29726611934317
H           -6.01986914174970       -6.58299414353161       -0.61763592900610
H           -8.38756309899660       -5.89460304117897       -0.78756734765138
H           -9.02104481874754       -3.56886366660696       -0.61183225879940
H           -9.48871224929185       -1.71363773071029       -0.22239822031260
H          -10.08594923920912        0.60475647363220        0.15142815888614
H           -8.32201553856696        2.30291741655116        0.53815535488153
H           -5.97393671427760        1.65534779232163        0.45848711204734
H           -2.45090155119973        1.00345761309472        1.93887876161714
H           -2.03140998197753        3.42657849287820        2.14584328895388

          :  Hamiltonian                  GFN2-xTB          :
         :: gradient norm              0.000064049472 Eh/a0 ::
         :: HOMO-LUMO gap              0.532678130643 eV    ::
         :: SCC energy              -138.100023843152 Eh    ::
         :: -> dispersion             -0.113021926714 Eh    ::
         :: -> Gsolv                  -0.053031132900 Eh    ::
         :: repulsion energy           2.279808422743 Eh    ::

    * Orbital Energies and Occupations

         #    Occupation            Energy/Eh            Energy/eV
      -------------------------------------------------------------
         1        2.0000           -0.8838294             -24.0502
       ...           ...                  ...                  ...
       113        2.0000           -0.4153136             -11.3013
       114        2.0000           -0.4147707             -11.2865
       115        2.0000           -0.4126991             -11.2301
       116        2.0000           -0.4123817             -11.2215
       117        2.0000           -0.4089555             -11.1282
       118        2.0000           -0.4032034             -10.9717
       119        2.0000           -0.3941519             -10.7254
       120        2.0000           -0.3886696             -10.5762
       121        2.0000           -0.3863508             -10.5131
       122        2.0000           -0.3834714             -10.4348
       123        1.9980           -0.3713306             -10.1044
       124        1.0020           -0.3595093              -9.7827
       125        1.0000           -0.2845821              -7.7439 (HOMO)
       126        0.0000           -0.2650067              -7.2112 (LUMO)
       127                         -0.2546024              -6.9281
       128                         -0.2533484              -6.8940
       129                         -0.2513079              -6.8384
       130                         -0.2496861              -6.7943
       131                         -0.2333420              -6.3496
       132                         -0.2302000              -6.2641
       133                         -0.2297894              -6.2529
       134                         -0.2186176              -5.9489
       135                         -0.2117123              -5.7610
       136                         -0.1981523              -5.3920
       ...                                ...                  ...
       236                          0.7363945              20.0383
      -------------------------------------------------------------
                  HL-Gap            0.0195754 Eh            0.5327 eV

     #   Z          covCN         q      C6AA      α(0)
     1   9 F        0.791    -0.219    11.438     3.995
     2   6 C        3.336     0.485    17.297     6.586
     3   9 F        0.791    -0.221    11.459     3.999
     4   9 F        0.790    -0.231    11.556     4.016
     5   6 C        2.975    -0.046    29.142     8.855
     6   6 C        2.917    -0.026    28.643     8.776
     7   6 C        2.919    -0.039    28.964     8.825
     8   6 C        2.908     0.065    26.544     8.448
     9   7 N        2.814    -0.056    22.320     7.017
    10   6 C        3.138     0.122    25.102     8.200
    11   6 C        2.968    -0.009    28.228     8.715
    12   6 C        2.911    -0.043    29.066     8.840
    13   6 C        2.916    -0.034    28.848     8.808
    14   6 C        2.971     0.005    27.911     8.666
    15   6 C        2.970     0.011    27.761     8.643
    16   6 C        2.921    -0.034    28.855     8.809
    17   6 C        2.916    -0.042    29.031     8.835
    18   6 C        2.912     0.056    26.740     8.479
    19   7 N        2.800    -0.020    21.626     6.907
    20   6 C        3.071     0.046    26.892     8.503
    21   6 C        2.909    -0.046    29.133     8.851
    22   6 C        2.923    -0.032    28.808     8.802
    23   6 C        2.920    -0.036    28.906     8.817
    24   6 C        2.912    -0.031    28.780     8.797
    25   6 C        3.065    -0.013    28.282     8.721
    26   6 C        3.065    -0.013    28.282     8.721
    27   6 C        2.912    -0.031    28.779     8.797
    28   6 C        2.920    -0.036    28.905     8.816
    29   6 C        2.923    -0.032    28.807     8.802
    30   6 C        2.909    -0.046    29.133     8.851
    31   6 C        3.072     0.046    26.892     8.503
    32   6 C        2.916    -0.042    29.031     8.835
    33   6 C        2.922    -0.035    28.862     8.810
    34   6 C        2.915    -0.035    28.875     8.812
    35   6 C        2.922    -0.033    28.831     8.805
    36   7 N        1.881    -0.309    28.848     7.962
    37   6 C        3.167     0.081    25.856     8.309
    38   6 C        2.984    -0.004    28.124     8.699
    39   6 C        2.922    -0.027    28.684     8.783
    40   6 C        2.916    -0.031    28.763     8.795
    41   6 C        2.917    -0.028    28.697     8.785
    42   6 C        2.922    -0.034    28.854     8.809
    43   6 C        2.977     0.001    28.006     8.681
    44   6 C        2.977    -0.000    28.033     8.685
    45   6 C        2.920    -0.033    28.815     8.803
    46   6 C        2.916    -0.032    28.798     8.800
    47   6 C        2.914    -0.031    28.769     8.795
    48   6 C        2.918    -0.040    28.987     8.829
    49   6 C        2.973    -0.008    28.223     8.714
    50   6 C        3.034     0.032    27.261     8.564
    51   6 C        2.920    -0.038    28.947     8.823
    52   6 C        2.918    -0.024    28.594     8.769
    53   1 H        0.926     0.057     2.233     2.337
    54   1 H        0.926     0.057     2.237     2.339
    55   1 H        0.926     0.025     2.660     2.550
    56   1 H        0.926     0.036     2.505     2.475
    57   1 H        0.926     0.046     2.372     2.408
    58   1 H        0.926     0.045     2.379     2.412
    59   1 H        0.926     0.039     2.465     2.455
    60   1 H        0.926     0.037     2.493     2.469
    61   1 H        0.926     0.036     2.509     2.477
    62   1 H        0.926     0.038     2.473     2.459
    63   1 H        0.926     0.038     2.476     2.461
    64   1 H        0.926     0.036     2.506     2.475
    65   1 H        0.926     0.038     2.482     2.464
    66   1 H        0.926     0.040     2.451     2.448
    67   1 H        0.926     0.044     2.398     2.422
    68   1 H        0.926     0.043     2.413     2.429
    69   1 H        0.926     0.041     2.434     2.440
    70   1 H        0.926     0.050     2.319     2.381
    71   1 H        0.926     0.050     2.315     2.379
    72   1 H        0.926     0.040     2.455     2.450
    73   1 H        0.926     0.040     2.453     2.449
    74   1 H        0.926     0.041     2.433     2.439
    75   1 H        0.926     0.042     2.423     2.434
    76   1 H        0.926     0.037     2.493     2.469
    77   1 H        0.926     0.034     2.532     2.488
    78   1 H        0.926     0.032     2.553     2.498
    79   1 H        0.926     0.054     2.266     2.354
    80   1 H        0.926     0.056     2.242     2.342

molecular dipole:
                 x           y           z       tot (Debye)
 q only:        1.780      -2.305      -0.212
   full:        1.521      -1.792      -0.208       5.998

 projected vibrational frequencies (cm⁻¹)
eigval :       -0.00    -0.00    -0.00    -0.00     0.00     0.00
eigval :        5.88    12.88    14.34    15.07    18.45    25.91
eigval :       34.07    44.49    46.83    57.45    67.29    80.13
eigval :       88.14    91.93    99.72   108.15   111.94   119.13
eigval :      129.01   134.62   149.20   172.63   174.77   187.35
eigval :      201.04   201.30   228.77   236.11   248.01   262.23
eigval :      270.97   272.90   301.34   307.66   324.83   348.24
eigval :      364.40   370.96   374.04   380.94   381.71   386.88
eigval :      391.15   394.72   399.79   402.98   415.65   417.83
eigval :      426.62   432.68   439.09   446.89   460.01   469.06
eigval :      495.63   502.21   509.10   516.24   517.82   526.36
eigval :      531.80   538.08   541.75   544.71   578.82   582.00
eigval :      589.14   591.45   595.89   610.18   613.88   616.43
eigval :      628.66   643.53   656.31   664.50   670.20   672.16
eigval :      674.16   677.34   684.80   686.92   710.05   716.89
eigval :      727.66   747.53   753.50   755.68   759.52   771.01
eigval :      773.07   781.82   789.80   803.16   810.37   820.36
eigval :      824.57   847.54   849.49   856.83   865.84   872.59
eigval :      873.90   895.74   897.84   903.46   904.00   905.67
eigval :      911.23   911.78   914.53   915.07   917.40   919.39
eigval :      919.75   920.66   921.51   923.22   928.23   930.46
eigval :      933.03   954.13   960.77   987.65   996.79  1002.67
eigval :     1010.46  1025.41  1041.41  1051.65  1057.12  1068.21
eigval :     1072.38  1081.38  1091.73  1103.22  1113.29  1133.19
eigval :     1134.19  1138.13  1144.59  1151.25  1155.97  1167.93
eigval :     1174.94  1177.24  1178.09  1179.14  1181.15  1195.02
eigval :     1202.49  1205.82  1229.77  1231.63  1236.80  1240.38
eigval :     1246.60  1249.19  1260.24  1260.53  1270.27  1281.97
eigval :     1284.55  1286.10  1293.20  1308.16  1324.59  1328.10
eigval :     1328.63  1332.44  1334.55  1347.30  1354.91  1356.70
eigval :     1362.49  1387.24  1398.09  1405.56  1409.85  1415.75
eigval :     1415.87  1419.36  1422.32  1429.13  1438.14  1451.89
eigval :     1461.38  1462.19  1469.50  1474.54  1480.20  1481.30
eigval :     1487.76  1495.73  1513.72  1536.59  1541.53  1549.16
eigval :     1562.54  1568.35  1576.36  1579.67  1582.03  1582.99
eigval :     1590.49  1602.01  3074.23  3076.86  3077.23  3078.21
eigval :     3081.10  3083.30  3084.24  3084.51  3085.37  3085.72
eigval :     3087.50  3088.35  3091.75  3093.03  3093.07  3095.18
eigval :     3097.93  3098.89  3099.20  3100.13  3102.48  3102.97
eigval :     3104.32  3105.90  3107.75  3111.08  3112.97  3128.40

   temp. (K)  partition function   enthalpy   heat capacity  entropy
                                   cal/mol     cal/K/mol   cal/K/mol   J/K/mol
 298.15  VIB  0.156E+20            23909.118    151.332    149.117
         ROT  0.163E+09              888.752      2.981     40.564
         INT  0.254E+28            24797.870    154.313    189.682
         TR   0.171E+29             1481.254      4.968     45.410
         TOT                       26279.1242   159.2814   235.0918   983.6239

       T/K    H(0)-H(T)+PV         H(T)/Eh          T*S/Eh         G(T)/Eh
   ------------------------------------------------------------------------
    298.15    0.418785E-01    0.632156E+00    0.111700E+00    0.520456E+00
   ------------------------------------------------------------------------

         :::::::::::::::::::::::::::::::::::::::::::::::::::::
         ::                  THERMODYNAMIC                  ::
         :::::::::::::::::::::::::::::::::::::::::::::::::::::
         :: total free energy        -135.299759128043 Eh   ::
         ::.................................................::
         :: total energy             -135.820215417791 Eh   ::
         :: zero point energy           0.590277516568 Eh   ::
         :: G(RRHO) w/o ZPVE           -0.069821226820 Eh   ::
         :: G(RRHO) contrib.            0.520456289748 Eh   ::
         :::::::::::::::::::::::::::::::::::::::::::::::::::::

           -------------------------------------------------
          | TOTAL ENERGY             -135.820215417791 Eh   |
          | TOTAL ENTHALPY           -135.188059451211 Eh   |
          | TOTAL FREE ENERGY        -135.299759128043 Eh   |
          | GRADIENT NORM               0.000064219786 Eh/α |
          | HOMO-LUMO GAP               0.532674408226 eV   |
           -------------------------------------------------

 * finished run on 2025/07/18 at 12:39:35.376
